
     Program PWSCF v.7.3.1 starts on 24May2026 at 17:46: 8 

     This program is part of the open-source Quantum ESPRESSO suite
     for quantum simulation of materials; please cite
         "P. Giannozzi et al., J. Phys.:Condens. Matter 21 395502 (2009);
         "P. Giannozzi et al., J. Phys.:Condens. Matter 29 465901 (2017);
         "P. Giannozzi et al., J. Chem. Phys. 152 154105 (2020);
          URL http://www.quantum-espresso.org", 
     in publications or presentations arising from this work. More details at
     http://www.quantum-espresso.org/quote

     Parallel version (MPI & OpenMP), running on       8 processor cores
     Number of MPI processes:                 8
     Threads/MPI process:                     1

     MPI processes distributed on     1 nodes
     7538 MiB available memory on the printing compute node when the environment starts
 
     Waiting for input...
     Reading input from standard input

     Current dimensions of program PWSCF are:
     Max number of different atomic species (ntypx) = 10
     Max number of k-points (npk) =  40000
     Max angular momentum in pseudopotentials (lmaxx) =  4

     Atomic positions and unit cell read from directory:
     ./tmp/SnSe_pnma.save/
 
 
     K-points division:     npool     =       4
     R & G space division:  proc/nbgrp/npool/nimage =       2
     Subspace diagonalization in iterative solution of the eigenvalue problem:
     a serial algorithm will be used

 
     Parallelization info
     --------------------
     sticks:   dense  smooth     PW     G-vecs:    dense   smooth      PW
     Min         814     320    101                65006    16415    2747
     Max         815     321    102                65007    16418    2748
     Sum        1629     641    203               130013    32833    5495
 
     Using Slab Decomposition
 


     bravais-lattice index     =            8
     lattice parameter (alat)  =       8.6086  a.u.
     unit-cell volume          =    1481.0643 (a.u.)^3
     number of atoms/cell      =            8
     number of atomic types    =            2
     number of electrons       =        80.00
     number of Kohn-Sham states=           70
     kinetic-energy cutoff     =      30.0000  Ry
     charge density cutoff     =     300.0000  Ry
     Exchange-correlation= SLA  PW   PBE  PBE
                           (   1   4   3   4   0   0   0)

     celldm(1)=   8.608647  celldm(2)=   0.915684  celldm(3)=   2.535265
     celldm(4)=   0.000000  celldm(5)=   0.000000  celldm(6)=   0.000000

     crystal axes: (cart. coord. in units of alat)
               a(1) = (   1.000000   0.000000   0.000000 )  
               a(2) = (   0.000000   0.915684   0.000000 )  
               a(3) = (   0.000000   0.000000   2.535265 )  

     reciprocal axes: (cart. coord. in units 2 pi/alat)
               b(1) = (  1.000000  0.000000  0.000000 )  
               b(2) = (  0.000000  1.092079  0.000000 )  
               b(3) = (  0.000000  0.000000  0.394436 )  


     PseudoPot. # 1 for Sn read from file:
     ../pseudo/Sn_pbe_v1.uspp.F.UPF
     MD5 check sum: 4cf58ce39ec5d5d420df3dd08604eb00
     Pseudo is Ultrasoft + core correction, Zval = 14.0
     Generated by new atomic code, or converted to UPF format
     Using radial grid of  891 points,  6 beta functions with: 
                l(1) =   0
                l(2) =   0
                l(3) =   1
                l(4) =   1
                l(5) =   2
                l(6) =   2
     Q(r) pseudized with  6 coefficients,  rinner =    1.200   1.200   1.200
                                                       1.200   1.200

     PseudoPot. # 2 for Se read from file:
     ../pseudo/Se_pbe_v1.uspp.F.UPF
     MD5 check sum: 1b3568f3a8ae88f9a2a0ad0698632c85
     Pseudo is Ultrasoft + core correction, Zval =  6.0
     Generated by new atomic code, or converted to UPF format
     Using radial grid of  877 points,  6 beta functions with: 
                l(1) =   0
                l(2) =   0
                l(3) =   1
                l(4) =   1
                l(5) =   2
                l(6) =   2
     Q(r) pseudized with  8 coefficients,  rinner =    1.300   1.300   1.300
                                                       1.300   1.300

     atomic species   valence    mass     pseudopotential
     Sn               14.00   118.71000     Sn( 1.00)
     Se                6.00    78.97100     Se( 1.00)

      8 Sym. Ops., with inversion, found ( 6 have fractional translation)


                                    s                        frac. trans.

      isym =  1     identity                                     

 cryst.   s( 1) = (     1          0          0      )
                  (     0          1          0      )
                  (     0          0          1      )

 cart.    s( 1) = (  1.0000000  0.0000000  0.0000000 )
                  (  0.0000000  1.0000000  0.0000000 )
                  (  0.0000000  0.0000000  1.0000000 )


      isym =  2     180 deg rotation - cart. axis [0,0,1]        

 cryst.   s( 2) = (    -1          0          0      )    f =(  0.5000000 )
                  (     0         -1          0      )       (  0.5000000 )
                  (     0          0          1      )       (  0.5000000 )

 cart.    s( 2) = ( -1.0000000  0.0000000  0.0000000 )    f =(  0.5000000 )
                  (  0.0000000 -1.0000000  0.0000000 )       (  0.4578422 )
                  (  0.0000000  0.0000000  1.0000000 )       (  1.2676325 )


      isym =  3     180 deg rotation - cart. axis [0,1,0]        

 cryst.   s( 3) = (    -1          0          0      )    f =( -0.0000000 )
                  (     0          1          0      )       (  0.5000000 )
                  (     0          0         -1      )       ( -0.0000000 )

 cart.    s( 3) = ( -1.0000000  0.0000000  0.0000000 )    f =( -0.0000000 )
                  (  0.0000000  1.0000000  0.0000000 )       (  0.4578422 )
                  (  0.0000000  0.0000000 -1.0000000 )       ( -0.0000000 )


      isym =  4     180 deg rotation - cart. axis [1,0,0]        

 cryst.   s( 4) = (     1          0          0      )    f =( -0.5000000 )
                  (     0         -1          0      )       ( -0.0000000 )
                  (     0          0         -1      )       (  0.5000000 )

 cart.    s( 4) = (  1.0000000  0.0000000  0.0000000 )    f =( -0.5000000 )
                  (  0.0000000 -1.0000000  0.0000000 )       ( -0.0000000 )
                  (  0.0000000  0.0000000 -1.0000000 )       (  1.2676325 )


      isym =  5     inversion                                    

 cryst.   s( 5) = (    -1          0          0      )
                  (     0         -1          0      )
                  (     0          0         -1      )

 cart.    s( 5) = ( -1.0000000  0.0000000  0.0000000 )
                  (  0.0000000 -1.0000000  0.0000000 )
                  (  0.0000000  0.0000000 -1.0000000 )


      isym =  6     inv. 180 deg rotation - cart. axis [0,0,1]   

 cryst.   s( 6) = (     1          0          0      )    f =( -0.5000000 )
                  (     0          1          0      )       (  0.5000000 )
                  (     0          0         -1      )       (  0.5000000 )

 cart.    s( 6) = (  1.0000000  0.0000000  0.0000000 )    f =( -0.5000000 )
                  (  0.0000000  1.0000000  0.0000000 )       (  0.4578422 )
                  (  0.0000000  0.0000000 -1.0000000 )       (  1.2676325 )


      isym =  7     inv. 180 deg rotation - cart. axis [0,1,0]   

 cryst.   s( 7) = (     1          0          0      )    f =(  0.0000000 )
                  (     0         -1          0      )       (  0.5000000 )
                  (     0          0          1      )       (  0.0000000 )

 cart.    s( 7) = (  1.0000000  0.0000000  0.0000000 )    f =(  0.0000000 )
                  (  0.0000000 -1.0000000  0.0000000 )       (  0.4578422 )
                  (  0.0000000  0.0000000  1.0000000 )       (  0.0000000 )


      isym =  8     inv. 180 deg rotation - cart. axis [1,0,0]   

 cryst.   s( 8) = (    -1          0          0      )    f =(  0.5000000 )
                  (     0          1          0      )       (  0.0000000 )
                  (     0          0          1      )       (  0.5000000 )

 cart.    s( 8) = ( -1.0000000  0.0000000  0.0000000 )    f =(  0.5000000 )
                  (  0.0000000  1.0000000  0.0000000 )       (  0.0000000 )
                  (  0.0000000  0.0000000  1.0000000 )       (  1.2676325 )


     point group D_2h (mmm) 
     there are  8 classes
     the character table:

       E     C2    C2'   C2''  i     s_v   s_v'  s_v''
A_g    1.00  1.00  1.00  1.00  1.00  1.00  1.00  1.00
B_1g   1.00  1.00 -1.00 -1.00  1.00  1.00 -1.00 -1.00
B_2g   1.00 -1.00  1.00 -1.00  1.00 -1.00  1.00 -1.00
B_3g   1.00 -1.00 -1.00  1.00  1.00 -1.00 -1.00  1.00
A_u    1.00  1.00  1.00  1.00 -1.00 -1.00 -1.00 -1.00
B_1u   1.00  1.00 -1.00 -1.00 -1.00 -1.00  1.00  1.00
B_2u   1.00 -1.00  1.00 -1.00 -1.00  1.00 -1.00  1.00
B_3u   1.00 -1.00 -1.00  1.00 -1.00  1.00  1.00 -1.00

     the symmetry operations in each class and the name of the first element:

     E        1
          identity                                               
     C2       2
          180 deg rotation - cart. axis [0,0,1]                  
     C2'      4
          180 deg rotation - cart. axis [1,0,0]                  
     C2''     3
          180 deg rotation - cart. axis [0,1,0]                  
     i        5
          inversion                                              
     s_v      6
          inv. 180 deg rotation - cart. axis [0,0,1]             
     s_v'     8
          inv. 180 deg rotation - cart. axis [1,0,0]             
     s_v''    7
          inv. 180 deg rotation - cart. axis [0,1,0]             

   Cartesian axes

     site n.     atom                  positions (alat units)
         1        Se     tau(   1) = (   0.4832481   0.6867633   2.1675410  )
         2        Sn     tau(   2) = (   0.1122870   0.6867633   0.2954585  )
         3        Se     tau(   3) = (   0.9832481   0.2289211   1.6353566  )
         4        Sn     tau(   4) = (   0.6122870   0.2289211   0.9721740  )
         5        Se     tau(   5) = (   0.0167519   0.6867633   0.8999084  )
         6        Sn     tau(   6) = (   0.3877130   0.6867633   1.5630911  )
         7        Se     tau(   7) = (   0.5167519   0.2289211   0.3677241  )
         8        Sn     tau(   8) = (   0.8877130   0.2289211   2.2398065  )

     --------------------------------------------
     DFT-D3 Dispersion Correction (3-body terms):
     --------------------------------------------
       Reference C6 values for interpolation: 

         atom   Coordination number   C6
         Se         0.000           427.35
         Se         0.990           427.57
         Se         1.981           421.05
         Sn         0.000          1255.14
         Sn         0.951          1084.09
         Sn         1.950          1010.83
         Sn         2.926           818.29
         Sn         3.912           672.20

       Values used:

         atom   Coordination number  R0_AB[au]  C6      C8
         Se         3.412            3.332    421.05  29958.36
         Sn         4.106            3.957    672.80  84444.47
         Se         3.412            3.332    421.05  29958.36
         Sn         4.106            3.957    672.80  84444.47
         Se         3.412            3.332    421.05  29958.36
         Sn         4.106            3.957    672.80  84444.47
         Se         3.412            3.332    421.05  29958.36
         Sn         4.106            3.957    672.80  84444.47

         Molecular C6 ( Ry / a.u.^6 ) =     34513.28


   Crystallographic axes

     site n.     atom                  positions (cryst. coord.)
         1        Se     tau(   1) = (  0.4832481  0.7500000  0.8549563  )
         2        Sn     tau(   2) = (  0.1122870  0.7500000  0.1165395  )
         3        Se     tau(   3) = (  0.9832481  0.2500000  0.6450437  )
         4        Sn     tau(   4) = (  0.6122870  0.2500000  0.3834605  )
         5        Se     tau(   5) = (  0.0167519  0.7500000  0.3549563  )
         6        Sn     tau(   6) = (  0.3877130  0.7500000  0.6165395  )
         7        Se     tau(   7) = (  0.5167519  0.2500000  0.1450437  )
         8        Sn     tau(   8) = (  0.8877130  0.2500000  0.8834605  )

     number of k points=    50 (tetrahedron method)
                       cart. coord. in units 2pi/alat
        k(    1) = (   0.0000000   0.0000000   0.0000000), wk =   0.0104167
        k(    2) = (   0.0000000   0.0000000   0.1314787), wk =   0.0208333
        k(    3) = (   0.0000000   0.1365099   0.0000000), wk =   0.0208333
        k(    4) = (   0.0000000   0.1365099   0.1314787), wk =   0.0416667
        k(    5) = (   0.0000000   0.2730198   0.0000000), wk =   0.0208333
        k(    6) = (   0.0000000   0.2730198   0.1314787), wk =   0.0416667
        k(    7) = (   0.0000000   0.4095298   0.0000000), wk =   0.0208333
        k(    8) = (   0.0000000   0.4095298   0.1314787), wk =   0.0416667
        k(    9) = (   0.0000000  -0.5460397   0.0000000), wk =   0.0104167
        k(   10) = (   0.0000000  -0.5460397   0.1314787), wk =   0.0208333
        k(   11) = (   0.1250000   0.0000000   0.0000000), wk =   0.0208333
        k(   12) = (   0.1250000   0.0000000   0.1314787), wk =   0.0416667
        k(   13) = (   0.1250000   0.1365099   0.0000000), wk =   0.0416667
        k(   14) = (   0.1250000   0.1365099   0.1314787), wk =   0.0833333
        k(   15) = (   0.1250000   0.2730198   0.0000000), wk =   0.0416667
        k(   16) = (   0.1250000   0.2730198   0.1314787), wk =   0.0833333
        k(   17) = (   0.1250000   0.4095298   0.0000000), wk =   0.0416667
        k(   18) = (   0.1250000   0.4095298   0.1314787), wk =   0.0833333
        k(   19) = (   0.1250000  -0.5460397   0.0000000), wk =   0.0208333
        k(   20) = (   0.1250000  -0.5460397   0.1314787), wk =   0.0416667
        k(   21) = (   0.2500000   0.0000000   0.0000000), wk =   0.0208333
        k(   22) = (   0.2500000   0.0000000   0.1314787), wk =   0.0416667
        k(   23) = (   0.2500000   0.1365099   0.0000000), wk =   0.0416667
        k(   24) = (   0.2500000   0.1365099   0.1314787), wk =   0.0833333
        k(   25) = (   0.2500000   0.2730198   0.0000000), wk =   0.0416667
        k(   26) = (   0.2500000   0.2730198   0.1314787), wk =   0.0833333
        k(   27) = (   0.2500000   0.4095298   0.0000000), wk =   0.0416667
        k(   28) = (   0.2500000   0.4095298   0.1314787), wk =   0.0833333
        k(   29) = (   0.2500000  -0.5460397   0.0000000), wk =   0.0208333
        k(   30) = (   0.2500000  -0.5460397   0.1314787), wk =   0.0416667
        k(   31) = (   0.3750000   0.0000000   0.0000000), wk =   0.0208333
        k(   32) = (   0.3750000   0.0000000   0.1314787), wk =   0.0416667
        k(   33) = (   0.3750000   0.1365099   0.0000000), wk =   0.0416667
        k(   34) = (   0.3750000   0.1365099   0.1314787), wk =   0.0833333
        k(   35) = (   0.3750000   0.2730198   0.0000000), wk =   0.0416667
        k(   36) = (   0.3750000   0.2730198   0.1314787), wk =   0.0833333
        k(   37) = (   0.3750000   0.4095298   0.0000000), wk =   0.0416667
        k(   38) = (   0.3750000   0.4095298   0.1314787), wk =   0.0833333
        k(   39) = (   0.3750000  -0.5460397   0.0000000), wk =   0.0208333
        k(   40) = (   0.3750000  -0.5460397   0.1314787), wk =   0.0416667
        k(   41) = (  -0.5000000   0.0000000   0.0000000), wk =   0.0104167
        k(   42) = (  -0.5000000   0.0000000   0.1314787), wk =   0.0208333
        k(   43) = (  -0.5000000   0.1365099   0.0000000), wk =   0.0208333
        k(   44) = (  -0.5000000   0.1365099   0.1314787), wk =   0.0416667
        k(   45) = (  -0.5000000   0.2730198   0.0000000), wk =   0.0208333
        k(   46) = (  -0.5000000   0.2730198   0.1314787), wk =   0.0416667
        k(   47) = (  -0.5000000   0.4095298   0.0000000), wk =   0.0208333
        k(   48) = (  -0.5000000   0.4095298   0.1314787), wk =   0.0416667
        k(   49) = (  -0.5000000  -0.5460397   0.0000000), wk =   0.0104167
        k(   50) = (  -0.5000000  -0.5460397   0.1314787), wk =   0.0208333

                       cryst. coord.
        k(    1) = (   0.0000000   0.0000000   0.0000000), wk =   0.0104167
        k(    2) = (   0.0000000   0.0000000   0.3333333), wk =   0.0208333
        k(    3) = (   0.0000000   0.1250000   0.0000000), wk =   0.0208333
        k(    4) = (   0.0000000   0.1250000   0.3333333), wk =   0.0416667
        k(    5) = (   0.0000000   0.2500000   0.0000000), wk =   0.0208333
        k(    6) = (   0.0000000   0.2500000   0.3333333), wk =   0.0416667
        k(    7) = (   0.0000000   0.3750000   0.0000000), wk =   0.0208333
        k(    8) = (   0.0000000   0.3750000   0.3333333), wk =   0.0416667
        k(    9) = (   0.0000000  -0.5000000   0.0000000), wk =   0.0104167
        k(   10) = (   0.0000000  -0.5000000   0.3333333), wk =   0.0208333
        k(   11) = (   0.1250000   0.0000000   0.0000000), wk =   0.0208333
        k(   12) = (   0.1250000   0.0000000   0.3333333), wk =   0.0416667
        k(   13) = (   0.1250000   0.1250000   0.0000000), wk =   0.0416667
        k(   14) = (   0.1250000   0.1250000   0.3333333), wk =   0.0833333
        k(   15) = (   0.1250000   0.2500000   0.0000000), wk =   0.0416667
        k(   16) = (   0.1250000   0.2500000   0.3333333), wk =   0.0833333
        k(   17) = (   0.1250000   0.3750000   0.0000000), wk =   0.0416667
        k(   18) = (   0.1250000   0.3750000   0.3333333), wk =   0.0833333
        k(   19) = (   0.1250000  -0.5000000   0.0000000), wk =   0.0208333
        k(   20) = (   0.1250000  -0.5000000   0.3333333), wk =   0.0416667
        k(   21) = (   0.2500000   0.0000000   0.0000000), wk =   0.0208333
        k(   22) = (   0.2500000   0.0000000   0.3333333), wk =   0.0416667
        k(   23) = (   0.2500000   0.1250000   0.0000000), wk =   0.0416667
        k(   24) = (   0.2500000   0.1250000   0.3333333), wk =   0.0833333
        k(   25) = (   0.2500000   0.2500000   0.0000000), wk =   0.0416667
        k(   26) = (   0.2500000   0.2500000   0.3333333), wk =   0.0833333
        k(   27) = (   0.2500000   0.3750000   0.0000000), wk =   0.0416667
        k(   28) = (   0.2500000   0.3750000   0.3333333), wk =   0.0833333
        k(   29) = (   0.2500000  -0.5000000   0.0000000), wk =   0.0208333
        k(   30) = (   0.2500000  -0.5000000   0.3333333), wk =   0.0416667
        k(   31) = (   0.3750000   0.0000000   0.0000000), wk =   0.0208333
        k(   32) = (   0.3750000   0.0000000   0.3333333), wk =   0.0416667
        k(   33) = (   0.3750000   0.1250000   0.0000000), wk =   0.0416667
        k(   34) = (   0.3750000   0.1250000   0.3333333), wk =   0.0833333
        k(   35) = (   0.3750000   0.2500000   0.0000000), wk =   0.0416667
        k(   36) = (   0.3750000   0.2500000   0.3333333), wk =   0.0833333
        k(   37) = (   0.3750000   0.3750000   0.0000000), wk =   0.0416667
        k(   38) = (   0.3750000   0.3750000   0.3333333), wk =   0.0833333
        k(   39) = (   0.3750000  -0.5000000   0.0000000), wk =   0.0208333
        k(   40) = (   0.3750000  -0.5000000   0.3333333), wk =   0.0416667
        k(   41) = (  -0.5000000   0.0000000   0.0000000), wk =   0.0104167
        k(   42) = (  -0.5000000   0.0000000   0.3333333), wk =   0.0208333
        k(   43) = (  -0.5000000   0.1250000   0.0000000), wk =   0.0208333
        k(   44) = (  -0.5000000   0.1250000   0.3333333), wk =   0.0416667
        k(   45) = (  -0.5000000   0.2500000   0.0000000), wk =   0.0208333
        k(   46) = (  -0.5000000   0.2500000   0.3333333), wk =   0.0416667
        k(   47) = (  -0.5000000   0.3750000   0.0000000), wk =   0.0208333
        k(   48) = (  -0.5000000   0.3750000   0.3333333), wk =   0.0416667
        k(   49) = (  -0.5000000  -0.5000000   0.0000000), wk =   0.0104167
        k(   50) = (  -0.5000000  -0.5000000   0.3333333), wk =   0.0208333

     Dense  grid:   130013 G-vectors     FFT dimensions: (  48,  48, 128)

     Smooth grid:    32833 G-vectors     FFT dimensions: (  32,  30,  80)

     Dynamical RAM for                 wfc:       2.19 MB

     Dynamical RAM for     wfc (w. buffer):       2.19 MB

     Dynamical RAM for           str. fact:       1.98 MB

     Dynamical RAM for           local pot:       0.00 MB

     Dynamical RAM for          nlocal pot:       4.52 MB

     Dynamical RAM for                qrad:       2.78 MB

     Dynamical RAM for          rho,v,vnew:       6.35 MB

     Dynamical RAM for           G-vectors:       3.84 MB

     Dynamical RAM for          h,s,v(r/c):       0.90 MB

     Dynamical RAM for          <psi|beta>:       0.15 MB

     Dynamical RAM for                 psi:       4.39 MB

     Dynamical RAM for                hpsi:       4.39 MB

     Dynamical RAM for                spsi:       4.39 MB

     Dynamical RAM for      wfcinit/wfcrot:       4.50 MB

     Dynamical RAM for           addusdens:      47.86 MB

     Estimated static dynamical RAM per process >      30.27 MB

     Estimated max dynamical RAM per process >      78.13 MB

     Estimated total dynamical RAM >     625.04 MB

     The potential is recalculated from file :
     ./tmp/SnSe_pnma.save/charge-density

     Starting wfcs are   52 randomized atomic wfcs +   18 random wfcs

     Band Structure Calculation
     Davidson diagonalization with overlap

     Computing kpt #:     1  of    13 on this pool
     total cpu time spent up to now is        5.7 secs

     Computing kpt #:     2  of    13 on this pool
     total cpu time spent up to now is        9.7 secs

     Computing kpt #:     3  of    13 on this pool
     total cpu time spent up to now is       13.8 secs

     Computing kpt #:     4  of    13 on this pool
     total cpu time spent up to now is       17.6 secs

     Computing kpt #:     5  of    13 on this pool
     total cpu time spent up to now is       21.6 secs

     Computing kpt #:     6  of    13 on this pool
     total cpu time spent up to now is       25.6 secs

     Computing kpt #:     7  of    13 on this pool
     total cpu time spent up to now is       30.0 secs

     Computing kpt #:     8  of    13 on this pool
     total cpu time spent up to now is       34.3 secs

     Computing kpt #:     9  of    13 on this pool
     total cpu time spent up to now is       38.6 secs

     Computing kpt #:    10  of    13 on this pool
     total cpu time spent up to now is       42.9 secs

     Computing kpt #:    11  of    13 on this pool
     total cpu time spent up to now is       46.9 secs

     Computing kpt #:    12  of    13 on this pool
     total cpu time spent up to now is       51.0 secs

     Computing kpt #:    13  of    13 on this pool
     total cpu time spent up to now is       54.6 secs

     ethr =  1.25E-11,  avg # of iterations = 74.3

     total cpu time spent up to now is       54.7 secs

     End of band structure calculation

          k = 0.0000 0.0000 0.0000 (  4129 PWs)   bands (ev):

   -13.7590 -13.7478 -13.7458 -13.7415 -13.7404 -13.7377 -13.7343 -13.7332
   -13.7262 -13.7233 -13.7218 -13.7216 -13.7118 -13.7080 -13.6918 -13.6878
   -13.6844 -13.6815 -13.6747 -13.6681  -6.0326  -5.6990  -5.0731  -4.6158
     0.4122   1.4682   1.9732   2.5890   2.9238   4.3421   4.4184   4.4252
     4.6972   4.9083   5.4427   5.7917   6.1054   6.5556   6.8493   7.1459
     8.3724  10.2511  10.5145  10.5214  10.6921  10.9585  11.4753  12.0273
    12.1233  12.3152  12.9290  13.4278  13.6098  13.6963  13.9793  14.5855
    14.6265  15.5713  16.0153  16.1341  16.1366  16.1981  16.4602  16.6693
    17.1258  17.3369  17.8981  18.0006  18.1853  18.2964

     occupation numbers 
     1.0000   1.0000   1.0000   1.0000   1.0000   1.0000   1.0000   1.0000
     1.0000   1.0000   1.0000   1.0000   1.0000   1.0000   1.0000   1.0000
     1.0000   1.0000   1.0000   1.0000   1.0000   1.0000   1.0000   1.0000
     1.0000   1.0000   1.0000   1.0000   1.0000   1.0000   1.0000   1.0000
     1.0000   1.0000   1.0000   1.0000   1.0000   1.0000   1.0000   1.0000
     0.0000   0.0000   0.0000   0.0000   0.0000   0.0000   0.0000   0.0000
     0.0000   0.0000   0.0000   0.0000   0.0000   0.0000   0.0000   0.0000
     0.0000   0.0000   0.0000   0.0000   0.0000   0.0000   0.0000   0.0000
     0.0000   0.0000   0.0000   0.0000   0.0000   0.0000

          k = 0.0000 0.0000 0.1315 (  4118 PWs)   bands (ev):

   -13.7568 -13.7516 -13.7442 -13.7424 -13.7399 -13.7386 -13.7335 -13.7330
   -13.7254 -13.7231 -13.7224 -13.7218 -13.7111 -13.7091 -13.6907 -13.6887
   -13.6836 -13.6822 -13.6729 -13.6696  -5.9717  -5.8149  -4.9264  -4.7078
     0.5567   0.9838   2.3658   2.5427   3.2360   3.9343   4.5002   4.6455
     4.7202   4.9138   5.6224   5.6729   5.7754   5.9792   6.9621   7.1139
     9.4678  10.1128  10.2220  10.5082  11.0761  11.0901  11.4776  11.5691
    12.3495  12.4542  12.7307  13.2132  13.2329  13.4236  14.1390  14.4721
    14.9301  15.2662  15.6533  15.8947  16.0774  16.2011  16.3483  16.6976
    17.3942  17.5710  17.6412  18.0113  18.2721  18.4495

     occupation numbers 
     1.0000   1.0000   1.0000   1.0000   1.0000   1.0000   1.0000   1.0000
     1.0000   1.0000   1.0000   1.0000   1.0000   1.0000   1.0000   1.0000
     1.0000   1.0000   1.0000   1.0000   1.0000   1.0000   1.0000   1.0000
     1.0000   1.0000   1.0000   1.0000   1.0000   1.0000   1.0000   1.0000
     1.0000   1.0000   1.0000   1.0000   1.0000   1.0000   1.0000   1.0000
     0.0000   0.0000   0.0000   0.0000   0.0000   0.0000   0.0000   0.0000
     0.0000   0.0000   0.0000   0.0000   0.0000   0.0000   0.0000   0.0000
     0.0000   0.0000   0.0000   0.0000   0.0000   0.0000   0.0000   0.0000
     0.0000   0.0000   0.0000   0.0000   0.0000   0.0000

          k = 0.0000 0.1365 0.0000 (  4113 PWs)   bands (ev):

   -13.7558 -13.7465 -13.7429 -13.7418 -13.7398 -13.7389 -13.7364 -13.7342
   -13.7277 -13.7234 -13.7227 -13.7198 -13.7100 -13.7085 -13.6902 -13.6889
   -13.6835 -13.6833 -13.6745 -13.6688  -5.9503  -5.6291  -5.0326  -4.6108
     0.3162   1.2679   1.8909   2.1810   2.9401   4.2724   4.4467   4.6976
     4.7822   4.8278   5.6035   5.8403   6.0198   6.7717   6.8690   7.0786
     8.4920   9.8467  10.3487  10.6933  10.7987  10.8016  11.3370  11.5404
    11.7091  12.4527  12.7669  12.9958  13.3610  13.5034  13.9450  14.2554
    14.3281  15.8425  15.9182  16.0354  16.8069  16.8892  16.9562  17.2101
    17.6364  17.8500  17.9149  18.0325  18.5983  18.6834

     occupation numbers 
     1.0000   1.0000   1.0000   1.0000   1.0000   1.0000   1.0000   1.0000
     1.0000   1.0000   1.0000   1.0000   1.0000   1.0000   1.0000   1.0000
     1.0000   1.0000   1.0000   1.0000   1.0000   1.0000   1.0000   1.0000
     1.0000   1.0000   1.0000   1.0000   1.0000   1.0000   1.0000   1.0000
     1.0000   1.0000   1.0000   1.0000   1.0000   1.0000   1.0000   1.0000
     0.0000   0.0000   0.0000   0.0000   0.0000   0.0000   0.0000   0.0000
     0.0000   0.0000   0.0000   0.0000   0.0000   0.0000   0.0000   0.0000
     0.0000   0.0000   0.0000   0.0000   0.0000   0.0000   0.0000   0.0000
     0.0000   0.0000   0.0000   0.0000   0.0000   0.0000

          k = 0.0000 0.1365 0.1315 (  4100 PWs)   bands (ev):

   -13.7538 -13.7493 -13.7423 -13.7415 -13.7404 -13.7399 -13.7352 -13.7343
   -13.7268 -13.7247 -13.7215 -13.7201 -13.7099 -13.7091 -13.6895 -13.6888
   -13.6837 -13.6837 -13.6729 -13.6701  -5.8914  -5.7403  -4.8961  -4.6947
     0.4564   0.8617   2.1187   2.1814   3.3006   4.0264   4.3787   4.6594
     4.9036   5.0280   5.6268   5.6801   5.9153   6.0354   7.0226   7.1193
     9.5297  10.0583  10.3477  10.3755  10.7006  10.9249  10.9548  11.5268
    12.1474  12.5160  12.6053  12.8084  13.2042  13.3443  13.7176  14.0861
    14.4243  15.3005  15.7630  16.0485  16.8722  16.9269  17.0216  17.2624
    17.9220  18.1649  18.1896  18.3455  18.8158  18.8959

     occupation numbers 
     1.0000   1.0000   1.0000   1.0000   1.0000   1.0000   1.0000   1.0000
     1.0000   1.0000   1.0000   1.0000   1.0000   1.0000   1.0000   1.0000
     1.0000   1.0000   1.0000   1.0000   1.0000   1.0000   1.0000   1.0000
     1.0000   1.0000   1.0000   1.0000   1.0000   1.0000   1.0000   1.0000
     1.0000   1.0000   1.0000   1.0000   1.0000   1.0000   1.0000   1.0000
     0.0000   0.0000   0.0000   0.0000   0.0000   0.0000   0.0000   0.0000
     0.0000   0.0000   0.0000   0.0000   0.0000   0.0000   0.0000   0.0000
     0.0000   0.0000   0.0000   0.0000   0.0000   0.0000   0.0000   0.0000
     0.0000   0.0000   0.0000   0.0000   0.0000   0.0000

          k = 0.0000 0.2730 0.0000 (  4118 PWs)   bands (ev):

   -13.7483 -13.7473 -13.7447 -13.7416 -13.7376 -13.7372 -13.7362 -13.7361
   -13.7289 -13.7265 -13.7222 -13.7154 -13.7104 -13.7067 -13.6920 -13.6891
   -13.6863 -13.6807 -13.6737 -13.6703  -5.7171  -5.4374  -4.9415  -4.6294
     0.0841   0.8481   1.3443   1.5441   3.1362   4.3775   4.7442   4.8155
     4.9323   5.0164   5.8780   5.8935   6.0254   6.8350   6.8750   7.2534
     8.5522   8.7662   9.8462   9.9845  10.1703  10.6211  10.8193  11.2546
    11.9897  12.0778  12.2124  12.5149  13.4197  13.5862  14.0735  14.7545
    14.8962  15.2200  16.3175  16.5698  16.8118  17.0023  17.0815  17.7155
    18.0687  18.8939  19.0126  19.5697  19.7902  19.9884

     occupation numbers 
     1.0000   1.0000   1.0000   1.0000   1.0000   1.0000   1.0000   1.0000
     1.0000   1.0000   1.0000   1.0000   1.0000   1.0000   1.0000   1.0000
     1.0000   1.0000   1.0000   1.0000   1.0000   1.0000   1.0000   1.0000
     1.0000   1.0000   1.0000   1.0000   1.0000   1.0000   1.0000   1.0000
     1.0000   1.0000   1.0000   1.0000   1.0000   1.0000   1.0000   1.0000
     0.0000   0.0000   0.0000   0.0000   0.0000   0.0000   0.0000   0.0000
     0.0000   0.0000   0.0000   0.0000   0.0000   0.0000   0.0000   0.0000
     0.0000   0.0000   0.0000   0.0000   0.0000   0.0000   0.0000   0.0000
     0.0000   0.0000   0.0000   0.0000   0.0000   0.0000

          k = 0.0000 0.2730 0.1315 (  4128 PWs)   bands (ev):

   -13.7481 -13.7476 -13.7434 -13.7416 -13.7379 -13.7377 -13.7369 -13.7364
   -13.7282 -13.7271 -13.7203 -13.7173 -13.7091 -13.7075 -13.6915 -13.6902
   -13.6844 -13.6818 -13.6728 -13.6711  -5.6650  -5.5329  -4.8372  -4.6889
     0.2147   0.5677   1.4129   1.5347   3.5400   4.3027   4.4747   4.7004
     5.1765   5.2786   5.7050   5.7881   5.9042   6.3121   7.0158   7.1581
     8.8301   9.4700   9.7917  10.0337  10.2740  10.7188  10.8048  11.3877
    11.5959  11.8283  12.1213  12.2006  13.3947  13.5390  14.2087  14.4894
    14.7994  15.1614  16.2633  16.6060  17.2591  17.4160  17.5754  18.0860
    18.3826  18.3954  18.9745  18.9966  19.3760  19.5708

     occupation numbers 
     1.0000   1.0000   1.0000   1.0000   1.0000   1.0000   1.0000   1.0000
     1.0000   1.0000   1.0000   1.0000   1.0000   1.0000   1.0000   1.0000
     1.0000   1.0000   1.0000   1.0000   1.0000   1.0000   1.0000   1.0000
     1.0000   1.0000   1.0000   1.0000   1.0000   1.0000   1.0000   1.0000
     1.0000   1.0000   1.0000   1.0000   1.0000   1.0000   1.0000   1.0000
     0.0000   0.0000   0.0000   0.0000   0.0000   0.0000   0.0000   0.0000
     0.0000   0.0000   0.0000   0.0000   0.0000   0.0000   0.0000   0.0000
     0.0000   0.0000   0.0000   0.0000   0.0000   0.0000   0.0000   0.0000
     0.0000   0.0000   0.0000   0.0000   0.0000   0.0000

          k = 0.0000 0.4095 0.0000 (  4120 PWs)   bands (ev):

   -13.7501 -13.7472 -13.7471 -13.7451 -13.7371 -13.7335 -13.7330 -13.7300
   -13.7279 -13.7262 -13.7230 -13.7142 -13.7098 -13.7033 -13.6967 -13.6959
   -13.6812 -13.6773 -13.6732 -13.6725  -5.3784  -5.1829  -4.8873  -4.7507
    -0.0910   0.5450   0.5635   1.0274   3.5861   4.5566   5.0077   5.0323
     5.2379   5.2775   5.7348   6.1070   6.3302   6.6846   6.7773   7.0487
     8.2358   9.0464   9.0514   9.0980   9.5372   9.8347  10.1635  10.7416
    11.0928  11.4791  12.1604  12.5715  14.1629  14.7791  15.1635  15.4152
    15.5309  15.8310  16.0428  16.4094  17.0384  17.1832  17.7016  18.3462
    19.2252  19.2506  19.2955  19.5286  19.8275  20.0807

     occupation numbers 
     1.0000   1.0000   1.0000   1.0000   1.0000   1.0000   1.0000   1.0000
     1.0000   1.0000   1.0000   1.0000   1.0000   1.0000   1.0000   1.0000
     1.0000   1.0000   1.0000   1.0000   1.0000   1.0000   1.0000   1.0000
     1.0000   1.0000   1.0000   1.0000   1.0000   1.0000   1.0000   1.0000
     1.0000   1.0000   1.0000   1.0000   1.0000   1.0000   1.0000   1.0000
     0.0000   0.0000   0.0000   0.0000   0.0000   0.0000   0.0000   0.0000
     0.0000   0.0000   0.0000   0.0000   0.0000   0.0000   0.0000   0.0000
     0.0000   0.0000   0.0000   0.0000   0.0000   0.0000   0.0000   0.0000
     0.0000   0.0000   0.0000   0.0000   0.0000   0.0000

          k = 0.0000 0.4095 0.1315 (  4134 PWs)   bands (ev):

   -13.7497 -13.7484 -13.7464 -13.7452 -13.7358 -13.7334 -13.7334 -13.7322
   -13.7271 -13.7262 -13.7208 -13.7171 -13.7073 -13.7044 -13.6966 -13.6962
   -13.6802 -13.6782 -13.6730 -13.6727  -5.3404  -5.2472  -4.8375  -4.7738
     0.0364   0.3525   0.6581   0.9010   3.9803   4.7350   4.7418   4.9528
     5.2442   5.5695   5.7183   5.8269   6.1082   6.2435   6.8622   6.9915
     8.4858   8.7929   9.4323   9.4427  10.0133  10.0901  10.1200  10.5802
    10.8839  11.4696  11.6472  11.9879  14.4804  15.0721  15.1073  15.4316
    15.6965  16.1459  16.1524  16.3351  17.0087  17.1602  17.7748  17.7782
    18.6015  18.8611  18.9374  19.6307  20.3001  20.5421

     occupation numbers 
     1.0000   1.0000   1.0000   1.0000   1.0000   1.0000   1.0000   1.0000
     1.0000   1.0000   1.0000   1.0000   1.0000   1.0000   1.0000   1.0000
     1.0000   1.0000   1.0000   1.0000   1.0000   1.0000   1.0000   1.0000
     1.0000   1.0000   1.0000   1.0000   1.0000   1.0000   1.0000   1.0000
     1.0000   1.0000   1.0000   1.0000   1.0000   1.0000   1.0000   1.0000
     0.0000   0.0000   0.0000   0.0000   0.0000   0.0000   0.0000   0.0000
     0.0000   0.0000   0.0000   0.0000   0.0000   0.0000   0.0000   0.0000
     0.0000   0.0000   0.0000   0.0000   0.0000   0.0000   0.0000   0.0000
     0.0000   0.0000   0.0000   0.0000   0.0000   0.0000

          k = 0.0000-0.5460 0.0000 (  4146 PWs)   bands (ev):

   -13.7504 -13.7504 -13.7473 -13.7473 -13.7338 -13.7338 -13.7303 -13.7303
   -13.7249 -13.7249 -13.7201 -13.7201 -13.7037 -13.7037 -13.6997 -13.6997
   -13.6762 -13.6762 -13.6744 -13.6744  -5.0198  -5.0198  -4.9669  -4.9669
     0.0320   0.0320   0.6317   0.6317   4.1665   4.1665   5.3047   5.3047
     5.3603   5.3603   5.8783   5.8783   6.6130   6.6130   6.6424   6.6424
     8.6814   8.6814   8.8264   8.8264   9.4124   9.4124  10.1760  10.1760
    10.8746  10.8746  12.4181  12.4181  14.8712  14.8712  14.9038  14.9038
    16.7053  16.7053  17.1307  17.1307  17.6258  17.6258  18.4568  18.4568
    18.7621  18.7621  19.1319  19.1319  19.3168  19.3168

     occupation numbers 
     1.0000   1.0000   1.0000   1.0000   1.0000   1.0000   1.0000   1.0000
     1.0000   1.0000   1.0000   1.0000   1.0000   1.0000   1.0000   1.0000
     1.0000   1.0000   1.0000   1.0000   1.0000   1.0000   1.0000   1.0000
     1.0000   1.0000   1.0000   1.0000   1.0000   1.0000   1.0000   1.0000
     1.0000   1.0000   1.0000   1.0000   1.0000   1.0000   1.0000   1.0000
     0.0000   0.0000   0.0000   0.0000   0.0000   0.0000   0.0000   0.0000
     0.0000   0.0000   0.0000   0.0000   0.0000   0.0000   0.0000   0.0000
     0.0000   0.0000   0.0000   0.0000   0.0000   0.0000   0.0000   0.0000
     0.0000   0.0000   0.0000   0.0000   0.0000   0.0000

          k = 0.0000-0.5460 0.1315 (  4124 PWs)   bands (ev):

   -13.7497 -13.7497 -13.7482 -13.7482 -13.7331 -13.7331 -13.7314 -13.7314
   -13.7234 -13.7234 -13.7211 -13.7211 -13.7027 -13.7027 -13.7007 -13.7007
   -13.6757 -13.6757 -13.6748 -13.6748  -5.0069  -5.0069  -4.9804  -4.9804
     0.1607   0.1607   0.4559   0.4559   4.5278   4.5278   5.1419   5.1419
     5.4172   5.4172   5.6629   5.6629   6.4482   6.4482   6.5390   6.5390
     8.8835   8.8835   9.0450   9.0450   9.6500   9.6500   9.9912   9.9912
    10.9677  10.9677  11.8187  11.8187  15.2375  15.2375  15.4885  15.4885
    16.4162  16.4162  16.7978  16.7978  17.4485  17.4485  17.7778  17.7778
    18.8149  18.8149  19.0620  19.0620  20.2599  20.2599

     occupation numbers 
     1.0000   1.0000   1.0000   1.0000   1.0000   1.0000   1.0000   1.0000
     1.0000   1.0000   1.0000   1.0000   1.0000   1.0000   1.0000   1.0000
     1.0000   1.0000   1.0000   1.0000   1.0000   1.0000   1.0000   1.0000
     1.0000   1.0000   1.0000   1.0000   1.0000   1.0000   1.0000   1.0000
     1.0000   1.0000   1.0000   1.0000   1.0000   1.0000   1.0000   1.0000
     0.0000   0.0000   0.0000   0.0000   0.0000   0.0000   0.0000   0.0000
     0.0000   0.0000   0.0000   0.0000   0.0000   0.0000   0.0000   0.0000
     0.0000   0.0000   0.0000   0.0000   0.0000   0.0000   0.0000   0.0000
     0.0000   0.0000   0.0000   0.0000   0.0000   0.0000

          k = 0.1250 0.0000 0.0000 (  4113 PWs)   bands (ev):

   -13.7583 -13.7473 -13.7460 -13.7414 -13.7410 -13.7384 -13.7344 -13.7331
   -13.7262 -13.7223 -13.7218 -13.7202 -13.7113 -13.7081 -13.6919 -13.6874
   -13.6849 -13.6818 -13.6745 -13.6683  -5.9732  -5.6449  -5.0672  -4.6321
     0.2033   1.3588   1.6367   2.3495   2.9194   4.3659   4.5097   4.7992
     4.9891   5.1160   5.4986   5.9174   6.1287   6.6713   6.8046   7.1609
     8.4085   9.7503  10.5196  10.5567  10.5647  10.7036  11.6373  11.6420
    11.8255  12.1930  12.8230  13.0481  13.2550  13.8195  13.9569  14.5964
    14.8117  15.6256  15.7114  16.2253  16.5244  16.6798  17.0378  17.1726
    17.5239  17.6729  17.9155  18.0797  18.4743  18.5831

     occupation numbers 
     1.0000   1.0000   1.0000   1.0000   1.0000   1.0000   1.0000   1.0000
     1.0000   1.0000   1.0000   1.0000   1.0000   1.0000   1.0000   1.0000
     1.0000   1.0000   1.0000   1.0000   1.0000   1.0000   1.0000   1.0000
     1.0000   1.0000   1.0000   1.0000   1.0000   1.0000   1.0000   1.0000
     1.0000   1.0000   1.0000   1.0000   1.0000   1.0000   1.0000   1.0000
     0.0000   0.0000   0.0000   0.0000   0.0000   0.0000   0.0000   0.0000
     0.0000   0.0000   0.0000   0.0000   0.0000   0.0000   0.0000   0.0000
     0.0000   0.0000   0.0000   0.0000   0.0000   0.0000   0.0000   0.0000
     0.0000   0.0000   0.0000   0.0000   0.0000   0.0000

          k = 0.1250 0.0000 0.1315 (  4098 PWs)   bands (ev):

   -13.7562 -13.7512 -13.7440 -13.7422 -13.7405 -13.7392 -13.7338 -13.7331
   -13.7253 -13.7231 -13.7213 -13.7204 -13.7107 -13.7091 -13.6908 -13.6886
   -13.6839 -13.6824 -13.6728 -13.6697  -5.9136  -5.7598  -4.9256  -4.7185
     0.3596   0.8145   2.0327   2.2802   3.3238   4.1127   4.5898   4.8049
     4.8315   5.1417   5.7197   5.7874   6.0101   6.1578   6.8452   7.0830
     9.4039   9.9158  10.3270  10.5246  10.7063  10.7981  11.1150  11.4771
    12.2629  12.3800  12.4668  12.8641  13.2292  13.4021  14.0589  14.5555
    14.9261  15.2944  15.7365  15.8345  16.4587  16.7903  16.9174  17.2185
    17.8542  17.9679  18.2323  18.3382  18.4984  18.7065

     occupation numbers 
     1.0000   1.0000   1.0000   1.0000   1.0000   1.0000   1.0000   1.0000
     1.0000   1.0000   1.0000   1.0000   1.0000   1.0000   1.0000   1.0000
     1.0000   1.0000   1.0000   1.0000   1.0000   1.0000   1.0000   1.0000
     1.0000   1.0000   1.0000   1.0000   1.0000   1.0000   1.0000   1.0000
     1.0000   1.0000   1.0000   1.0000   1.0000   1.0000   1.0000   1.0000
     0.0000   0.0000   0.0000   0.0000   0.0000   0.0000   0.0000   0.0000
     0.0000   0.0000   0.0000   0.0000   0.0000   0.0000   0.0000   0.0000
     0.0000   0.0000   0.0000   0.0000   0.0000   0.0000   0.0000   0.0000
     0.0000   0.0000   0.0000   0.0000   0.0000   0.0000

          k = 0.1250 0.1365 0.0000 (  4106 PWs)   bands (ev):

   -13.7552 -13.7463 -13.7432 -13.7425 -13.7396 -13.7393 -13.7366 -13.7344
   -13.7281 -13.7236 -13.7212 -13.7185 -13.7100 -13.7082 -13.6905 -13.6884
   -13.6839 -13.6836 -13.6743 -13.6690  -5.8922  -5.5765  -5.0264  -4.6247
     0.1647   1.2255   1.5769   2.0907   2.9653   4.0163   4.2356   4.9736
     5.0928   5.3132   5.3298   5.9264   6.2768   6.7046   7.0358   7.1250
     8.5345   9.4650  10.0717  10.2956  10.5426  10.8279  11.2959  11.6091
    11.8473  12.3562  12.4663  12.9913  13.4908  13.9018  14.1470  14.4455
    14.6730  15.8598  15.9809  16.0348  16.4921  16.7140  16.8793  17.2156
    17.4934  17.8201  18.3071  18.7008  18.7609  19.2025

     occupation numbers 
     1.0000   1.0000   1.0000   1.0000   1.0000   1.0000   1.0000   1.0000
     1.0000   1.0000   1.0000   1.0000   1.0000   1.0000   1.0000   1.0000
     1.0000   1.0000   1.0000   1.0000   1.0000   1.0000   1.0000   1.0000
     1.0000   1.0000   1.0000   1.0000   1.0000   1.0000   1.0000   1.0000
     1.0000   1.0000   1.0000   1.0000   1.0000   1.0000   1.0000   1.0000
     0.0000   0.0000   0.0000   0.0000   0.0000   0.0000   0.0000   0.0000
     0.0000   0.0000   0.0000   0.0000   0.0000   0.0000   0.0000   0.0000
     0.0000   0.0000   0.0000   0.0000   0.0000   0.0000   0.0000   0.0000
     0.0000   0.0000   0.0000   0.0000   0.0000   0.0000

          k = 0.1250 0.1365 0.1315 (  4105 PWs)   bands (ev):

   -13.7533 -13.7490 -13.7425 -13.7422 -13.7402 -13.7401 -13.7356 -13.7346
   -13.7269 -13.7247 -13.7203 -13.7189 -13.7098 -13.7089 -13.6896 -13.6885
   -13.6841 -13.6840 -13.6728 -13.6702  -5.8346  -5.6866  -4.8947  -4.7036
     0.3172   0.7540   1.8651   2.0399   3.3789   3.9955   4.2941   4.5487
     5.0723   5.3938   5.4582   5.6540   6.2613   6.5082   6.9289   7.1205
     9.3930   9.5975  10.0417  10.3827  10.5290  10.7380  11.2119  11.5538
    11.8739  12.2102  12.3956  12.6706  13.5169  13.7920  13.9903  14.3778
    14.7666  15.4445  15.8583  16.2219  16.5071  16.8863  17.1665  17.3698
    17.7471  17.8698  18.5899  18.7250  18.8451  19.0704

     occupation numbers 
     1.0000   1.0000   1.0000   1.0000   1.0000   1.0000   1.0000   1.0000
     1.0000   1.0000   1.0000   1.0000   1.0000   1.0000   1.0000   1.0000
     1.0000   1.0000   1.0000   1.0000   1.0000   1.0000   1.0000   1.0000
     1.0000   1.0000   1.0000   1.0000   1.0000   1.0000   1.0000   1.0000
     1.0000   1.0000   1.0000   1.0000   1.0000   1.0000   1.0000   1.0000
     0.0000   0.0000   0.0000   0.0000   0.0000   0.0000   0.0000   0.0000
     0.0000   0.0000   0.0000   0.0000   0.0000   0.0000   0.0000   0.0000
     0.0000   0.0000   0.0000   0.0000   0.0000   0.0000   0.0000   0.0000
     0.0000   0.0000   0.0000   0.0000   0.0000   0.0000

          k = 0.1250 0.2730 0.0000 (  4111 PWs)   bands (ev):

   -13.7499 -13.7459 -13.7457 -13.7422 -13.7386 -13.7366 -13.7363 -13.7358
   -13.7289 -13.7265 -13.7208 -13.7143 -13.7106 -13.7062 -13.6917 -13.6891
   -13.6863 -13.6811 -13.6736 -13.6704  -5.6636  -5.3900  -4.9338  -4.6350
     0.0518   0.8958   1.2649   1.4857   3.2105   3.7694   4.1249   4.7828
     5.3309   5.4814   5.5238   5.8574   6.3857   6.7745   6.9494   7.0875
     8.7560   8.8805   9.3327   9.4874  10.5617  10.5908  11.2240  11.4635
    11.9782  12.0016  12.4023  12.9099  13.4825  14.0796  14.3069  14.9288
    15.0553  15.4639  15.5974  16.1647  16.5316  17.2325  17.6136  17.7108
    18.5197  18.6407  19.1253  19.2895  19.3111  19.7616

     occupation numbers 
     1.0000   1.0000   1.0000   1.0000   1.0000   1.0000   1.0000   1.0000
     1.0000   1.0000   1.0000   1.0000   1.0000   1.0000   1.0000   1.0000
     1.0000   1.0000   1.0000   1.0000   1.0000   1.0000   1.0000   1.0000
     1.0000   1.0000   1.0000   1.0000   1.0000   1.0000   1.0000   1.0000
     1.0000   1.0000   1.0000   1.0000   1.0000   1.0000   1.0000   1.0000
     0.0000   0.0000   0.0000   0.0000   0.0000   0.0000   0.0000   0.0000
     0.0000   0.0000   0.0000   0.0000   0.0000   0.0000   0.0000   0.0000
     0.0000   0.0000   0.0000   0.0000   0.0000   0.0000   0.0000   0.0000
     0.0000   0.0000   0.0000   0.0000   0.0000   0.0000

          k = 0.1250 0.2730 0.1315 (  4113 PWs)   bands (ev):

   -13.7493 -13.7476 -13.7439 -13.7421 -13.7389 -13.7379 -13.7361 -13.7359
   -13.7280 -13.7270 -13.7194 -13.7164 -13.7090 -13.7071 -13.6913 -13.6902
   -13.6846 -13.6821 -13.6727 -13.6711  -5.6129  -5.4840  -4.8328  -4.6914
     0.1929   0.5730   1.3690   1.4719   3.5604   3.8425   4.1989   4.5923
     5.0451   5.3373   5.7136   5.8148   6.3378   6.5011   6.9714   7.0591
     8.9042   9.1303   9.7299   9.9376  10.3294  10.6685  10.9955  11.2481
    11.6085  12.0076  12.3951  12.6029  13.6624  13.9540  14.5094  14.7442
    14.9998  15.3718  15.9193  16.4400  16.8058  17.2399  17.4451  17.7587
    18.3473  18.5407  18.8726  19.2804  19.4741  19.9296

     occupation numbers 
     1.0000   1.0000   1.0000   1.0000   1.0000   1.0000   1.0000   1.0000
     1.0000   1.0000   1.0000   1.0000   1.0000   1.0000   1.0000   1.0000
     1.0000   1.0000   1.0000   1.0000   1.0000   1.0000   1.0000   1.0000
     1.0000   1.0000   1.0000   1.0000   1.0000   1.0000   1.0000   1.0000
     1.0000   1.0000   1.0000   1.0000   1.0000   1.0000   1.0000   1.0000
     0.0000   0.0000   0.0000   0.0000   0.0000   0.0000   0.0000   0.0000
     0.0000   0.0000   0.0000   0.0000   0.0000   0.0000   0.0000   0.0000
     0.0000   0.0000   0.0000   0.0000   0.0000   0.0000   0.0000   0.0000
     0.0000   0.0000   0.0000   0.0000   0.0000   0.0000

          k = 0.1250 0.4095 0.0000 (  4111 PWs)   bands (ev):

   -13.7516 -13.7489 -13.7475 -13.7458 -13.7373 -13.7334 -13.7322 -13.7299
   -13.7277 -13.7263 -13.7218 -13.7141 -13.7091 -13.7032 -13.6960 -13.6955
   -13.6812 -13.6776 -13.6731 -13.6724  -5.3344  -5.1449  -4.8740  -4.7410
    -0.0356   0.6014   0.6349   1.0188   3.6483   3.9276   4.3033   4.8932
     5.2088   5.2641   5.8598   5.8919   6.1446   6.5567   6.8136   6.9077
     8.6046   8.6255   9.0068   9.2962  10.3183  10.4042  10.7154  10.8269
    11.6102  11.9270  12.2107  12.4465  13.6970  14.4517  15.3440  15.4536
    15.6154  15.7921  16.4923  16.5604  17.0930  17.3543  18.0743  18.1213
    18.8953  19.0620  19.1037  19.8243  20.2433  20.4527

     occupation numbers 
     1.0000   1.0000   1.0000   1.0000   1.0000   1.0000   1.0000   1.0000
     1.0000   1.0000   1.0000   1.0000   1.0000   1.0000   1.0000   1.0000
     1.0000   1.0000   1.0000   1.0000   1.0000   1.0000   1.0000   1.0000
     1.0000   1.0000   1.0000   1.0000   1.0000   1.0000   1.0000   1.0000
     1.0000   1.0000   1.0000   1.0000   1.0000   1.0000   1.0000   1.0000
     0.0000   0.0000   0.0000   0.0000   0.0000   0.0000   0.0000   0.0000
     0.0000   0.0000   0.0000   0.0000   0.0000   0.0000   0.0000   0.0000
     0.0000   0.0000   0.0000   0.0000   0.0000   0.0000   0.0000   0.0000
     0.0000   0.0000   0.0000   0.0000   0.0000   0.0000

          k = 0.1250 0.4095 0.1315 (  4132 PWs)   bands (ev):

   -13.7510 -13.7494 -13.7475 -13.7462 -13.7359 -13.7333 -13.7329 -13.7320
   -13.7267 -13.7258 -13.7202 -13.7168 -13.7067 -13.7041 -13.6963 -13.6958
   -13.6802 -13.6784 -13.6730 -13.6726  -5.2978  -5.2077  -4.8252  -4.7634
     0.0944   0.4133   0.7081   0.9152   3.9041   4.0203   4.4637   4.7557
     5.1181   5.3375   5.5889   5.9266   6.1441   6.2971   6.6398   6.8057
     8.9096   9.0295   9.2610   9.4061  10.3135  10.3573  10.6635  10.9171
    11.3130  11.7590  11.8782  12.0612  14.1713  14.9775  15.2035  15.4760
    15.6566  15.9951  16.2588  16.4940  17.0645  17.2619  17.8555  18.5061
    18.6463  18.8828  18.9808  19.7305  20.1686  20.3089

     occupation numbers 
     1.0000   1.0000   1.0000   1.0000   1.0000   1.0000   1.0000   1.0000
     1.0000   1.0000   1.0000   1.0000   1.0000   1.0000   1.0000   1.0000
     1.0000   1.0000   1.0000   1.0000   1.0000   1.0000   1.0000   1.0000
     1.0000   1.0000   1.0000   1.0000   1.0000   1.0000   1.0000   1.0000
     1.0000   1.0000   1.0000   1.0000   1.0000   1.0000   1.0000   1.0000
     0.0000   0.0000   0.0000   0.0000   0.0000   0.0000   0.0000   0.0000
     0.0000   0.0000   0.0000   0.0000   0.0000   0.0000   0.0000   0.0000
     0.0000   0.0000   0.0000   0.0000   0.0000   0.0000   0.0000   0.0000
     0.0000   0.0000   0.0000   0.0000   0.0000   0.0000

          k = 0.1250-0.5460 0.0000 (  4140 PWs)   bands (ev):

   -13.7518 -13.7518 -13.7483 -13.7483 -13.7340 -13.7340 -13.7296 -13.7296
   -13.7248 -13.7248 -13.7195 -13.7195 -13.7038 -13.7038 -13.6988 -13.6988
   -13.6766 -13.6766 -13.6741 -13.6741  -4.9914  -4.9914  -4.9420  -4.9420
     0.1135   0.1135   0.6803   0.6803   4.0986   4.0986   4.5964   4.5964
     5.0757   5.0757   5.9381   5.9381   6.1765   6.1765   6.8655   6.8655
     8.3908   8.3908   9.2975   9.2975  10.0977  10.0977  10.8590  10.8590
    11.2969  11.2969  12.2372  12.2372  13.9118  13.9118  15.8229  15.8229
    16.5567  16.5567  17.1855  17.1855  17.4493  17.4493  18.7204  18.7204
    18.8902  18.8902  19.2061  19.2061  19.7015  19.7015

     occupation numbers 
     1.0000   1.0000   1.0000   1.0000   1.0000   1.0000   1.0000   1.0000
     1.0000   1.0000   1.0000   1.0000   1.0000   1.0000   1.0000   1.0000
     1.0000   1.0000   1.0000   1.0000   1.0000   1.0000   1.0000   1.0000
     1.0000   1.0000   1.0000   1.0000   1.0000   1.0000   1.0000   1.0000
     1.0000   1.0000   1.0000   1.0000   1.0000   1.0000   1.0000   1.0000
     0.0000   0.0000   0.0000   0.0000   0.0000   0.0000   0.0000   0.0000
     0.0000   0.0000   0.0000   0.0000   0.0000   0.0000   0.0000   0.0000
     0.0000   0.0000   0.0000   0.0000   0.0000   0.0000   0.0000   0.0000
     0.0000   0.0000   0.0000   0.0000   0.0000   0.0000

          k = 0.1250-0.5460 0.1315 (  4140 PWs)   bands (ev):

   -13.7510 -13.7510 -13.7493 -13.7493 -13.7331 -13.7331 -13.7311 -13.7311
   -13.7231 -13.7231 -13.7206 -13.7206 -13.7024 -13.7024 -13.6999 -13.6999
   -13.6759 -13.6759 -13.6747 -13.6747  -4.9793  -4.9793  -4.9546  -4.9546
     0.2359   0.2359   0.5153   0.5153   4.3375   4.3375   4.5990   4.5990
     5.1087   5.1087   5.6551   5.6551   6.2536   6.2536   6.5413   6.5413
     8.9015   8.9015   9.2471   9.2471  10.3081  10.3081  10.7069  10.7069
    11.2435  11.2435  11.7452  11.7452  14.4620  14.4620  15.7201  15.7201
    16.6113  16.6113  17.1395  17.1395  17.4888  17.4888  18.2471  18.2471
    18.7745  18.7745  19.1210  19.1210  20.0913  20.0913

     occupation numbers 
     1.0000   1.0000   1.0000   1.0000   1.0000   1.0000   1.0000   1.0000
     1.0000   1.0000   1.0000   1.0000   1.0000   1.0000   1.0000   1.0000
     1.0000   1.0000   1.0000   1.0000   1.0000   1.0000   1.0000   1.0000
     1.0000   1.0000   1.0000   1.0000   1.0000   1.0000   1.0000   1.0000
     1.0000   1.0000   1.0000   1.0000   1.0000   1.0000   1.0000   1.0000
     0.0000   0.0000   0.0000   0.0000   0.0000   0.0000   0.0000   0.0000
     0.0000   0.0000   0.0000   0.0000   0.0000   0.0000   0.0000   0.0000
     0.0000   0.0000   0.0000   0.0000   0.0000   0.0000   0.0000   0.0000
     0.0000   0.0000   0.0000   0.0000   0.0000   0.0000

          k = 0.2500 0.0000 0.0000 (  4109 PWs)   bands (ev):

   -13.7562 -13.7467 -13.7461 -13.7423 -13.7413 -13.7404 -13.7347 -13.7333
   -13.7261 -13.7224 -13.7194 -13.7167 -13.7104 -13.7084 -13.6919 -13.6865
   -13.6863 -13.6825 -13.6738 -13.6691  -5.8061  -5.4923  -5.0730  -4.6939
    -0.1763   0.8801   1.1152   1.9059   3.0726   4.6366   4.7695   5.2161
     5.3498   5.6262   5.6758   6.1576   6.3647   6.4748   7.0818   7.3425
     8.6929   8.8875   9.7646   9.8450  10.3075  10.7815  10.8016  11.2307
    11.9471  12.0524  12.2588  12.7613  13.2183  14.0717  14.4876  14.6969
    15.1766  15.2139  15.9899  16.3908  16.8631  17.2281  17.6860  17.9402
    18.1957  18.3813  18.5310  18.8880  18.9855  19.5360

     occupation numbers 
     1.0000   1.0000   1.0000   1.0000   1.0000   1.0000   1.0000   1.0000
     1.0000   1.0000   1.0000   1.0000   1.0000   1.0000   1.0000   1.0000
     1.0000   1.0000   1.0000   1.0000   1.0000   1.0000   1.0000   1.0000
     1.0000   1.0000   1.0000   1.0000   1.0000   1.0000   1.0000   1.0000
     1.0000   1.0000   1.0000   1.0000   1.0000   1.0000   1.0000   1.0000
     0.0000   0.0000   0.0000   0.0000   0.0000   0.0000   0.0000   0.0000
     0.0000   0.0000   0.0000   0.0000   0.0000   0.0000   0.0000   0.0000
     0.0000   0.0000   0.0000   0.0000   0.0000   0.0000   0.0000   0.0000
     0.0000   0.0000   0.0000   0.0000   0.0000   0.0000

          k = 0.2500 0.0000 0.1315 (  4088 PWs)   bands (ev):

   -13.7545 -13.7504 -13.7438 -13.7420 -13.7418 -13.7407 -13.7346 -13.7337
   -13.7251 -13.7233 -13.7184 -13.7171 -13.7101 -13.7091 -13.6908 -13.6885
   -13.6845 -13.6831 -13.6725 -13.6702  -5.7508  -5.6062  -4.9429  -4.7656
    -0.0139   0.4293   1.4269   1.7507   3.5571   4.4541   4.8438   5.0429
     5.2459   5.5420   5.8205   6.0620   6.2333   6.6083   6.8093   7.1167
     9.1441   9.5408   9.9933  10.0278  10.1780  10.3943  10.6132  11.4154
    11.6181  12.0655  12.2616  12.5125  13.3211  13.5747  14.4462  15.0277
    15.0910  15.6467  15.8938  16.0720  16.7883  17.2813  17.9480  18.0455
    18.2216  18.4069  18.7215  19.1527  19.3947  19.4060

     occupation numbers 
     1.0000   1.0000   1.0000   1.0000   1.0000   1.0000   1.0000   1.0000
     1.0000   1.0000   1.0000   1.0000   1.0000   1.0000   1.0000   1.0000
     1.0000   1.0000   1.0000   1.0000   1.0000   1.0000   1.0000   1.0000
     1.0000   1.0000   1.0000   1.0000   1.0000   1.0000   1.0000   1.0000
     1.0000   1.0000   1.0000   1.0000   1.0000   1.0000   1.0000   1.0000
     0.0000   0.0000   0.0000   0.0000   0.0000   0.0000   0.0000   0.0000
     0.0000   0.0000   0.0000   0.0000   0.0000   0.0000   0.0000   0.0000
     0.0000   0.0000   0.0000   0.0000   0.0000   0.0000   0.0000   0.0000
     0.0000   0.0000   0.0000   0.0000   0.0000   0.0000

          k = 0.2500 0.1365 0.0000 (  4098 PWs)   bands (ev):

   -13.7537 -13.7458 -13.7447 -13.7434 -13.7400 -13.7394 -13.7370 -13.7354
   -13.7279 -13.7241 -13.7182 -13.7153 -13.7100 -13.7076 -13.6906 -13.6874
   -13.6852 -13.6841 -13.6736 -13.6696  -5.7295  -5.4288  -5.0304  -4.6789
    -0.1308   0.9058   1.1025   1.7974   3.1641   3.9632   4.1838   5.1249
     5.2785   5.5331   5.8475   5.9103   6.5464   6.7304   7.1508   7.2270
     8.7660   9.1996   9.3716   9.4472  10.5299  10.5461  11.0639  11.4159
    12.0711  12.1558  12.3400  13.0354  13.6863  13.9780  14.6056  14.8910
    15.3420  15.5702  15.8111  16.4417  16.4430  16.9198  17.3947  17.5489
    18.1200  18.3878  19.0409  19.1378  19.2945  19.7156

     occupation numbers 
     1.0000   1.0000   1.0000   1.0000   1.0000   1.0000   1.0000   1.0000
     1.0000   1.0000   1.0000   1.0000   1.0000   1.0000   1.0000   1.0000
     1.0000   1.0000   1.0000   1.0000   1.0000   1.0000   1.0000   1.0000
     1.0000   1.0000   1.0000   1.0000   1.0000   1.0000   1.0000   1.0000
     1.0000   1.0000   1.0000   1.0000   1.0000   1.0000   1.0000   1.0000
     0.0000   0.0000   0.0000   0.0000   0.0000   0.0000   0.0000   0.0000
     0.0000   0.0000   0.0000   0.0000   0.0000   0.0000   0.0000   0.0000
     0.0000   0.0000   0.0000   0.0000   0.0000   0.0000   0.0000   0.0000
     0.0000   0.0000   0.0000   0.0000   0.0000   0.0000

          k = 0.2500 0.1365 0.1315 (  4106 PWs)   bands (ev):

   -13.7521 -13.7484 -13.7442 -13.7433 -13.7402 -13.7397 -13.7365 -13.7356
   -13.7267 -13.7248 -13.7174 -13.7159 -13.7096 -13.7084 -13.6896 -13.6880
   -13.6852 -13.6846 -13.6725 -13.6705  -5.6762  -5.5375  -4.9090  -4.7448
     0.0294   0.4637   1.3941   1.6691   3.5956   4.0032   4.2930   4.8185
     5.0108   5.3580   5.8807   6.0226   6.5981   6.7349   6.9417   7.1099
     9.1563   9.2336   9.6417   9.9146  10.2653  10.6701  11.0622  11.1230
    11.7891  12.0018  12.4290  12.6412  13.8277  14.0186  14.7472  14.8167
    15.2710  15.6584  15.8903  16.2935  16.6893  17.0047  17.4880  17.6569
    17.8782  18.3305  18.8661  19.0202  19.3492  19.7098

     occupation numbers 
     1.0000   1.0000   1.0000   1.0000   1.0000   1.0000   1.0000   1.0000
     1.0000   1.0000   1.0000   1.0000   1.0000   1.0000   1.0000   1.0000
     1.0000   1.0000   1.0000   1.0000   1.0000   1.0000   1.0000   1.0000
     1.0000   1.0000   1.0000   1.0000   1.0000   1.0000   1.0000   1.0000
     1.0000   1.0000   1.0000   1.0000   1.0000   1.0000   1.0000   1.0000
     0.0000   0.0000   0.0000   0.0000   0.0000   0.0000   0.0000   0.0000
     0.0000   0.0000   0.0000   0.0000   0.0000   0.0000   0.0000   0.0000
     0.0000   0.0000   0.0000   0.0000   0.0000   0.0000   0.0000   0.0000
     0.0000   0.0000   0.0000   0.0000   0.0000   0.0000

          k = 0.2500 0.2730 0.0000 (  4110 PWs)   bands (ev):

   -13.7520 -13.7482 -13.7446 -13.7435 -13.7401 -13.7368 -13.7362 -13.7353
   -13.7284 -13.7266 -13.7180 -13.7116 -13.7108 -13.7054 -13.6910 -13.6890
   -13.6861 -13.6822 -13.6731 -13.6707  -5.5155  -5.2584  -4.9301  -4.6641
    -0.0234   0.9158   1.0027   1.4319   3.3330   3.4288   3.6582   4.5167
     4.7678   5.5938   5.6273   6.0787   6.2593   6.7031   6.7042   6.9521
     8.5311   9.2002   9.7403  10.0200  10.3581  10.6695  11.1012  11.9114
    12.2505  12.3507  12.7683  13.1983  13.3761  14.3530  14.7677  15.1827
    15.5416  15.6382  15.7871  16.5572  16.7962  17.0417  17.5842  17.8845
    18.1704  18.5650  19.1223  19.1662  19.4569  20.2457

     occupation numbers 
     1.0000   1.0000   1.0000   1.0000   1.0000   1.0000   1.0000   1.0000
     1.0000   1.0000   1.0000   1.0000   1.0000   1.0000   1.0000   1.0000
     1.0000   1.0000   1.0000   1.0000   1.0000   1.0000   1.0000   1.0000
     1.0000   1.0000   1.0000   1.0000   1.0000   1.0000   1.0000   1.0000
     1.0000   1.0000   1.0000   1.0000   1.0000   1.0000   1.0000   1.0000
     0.0000   0.0000   0.0000   0.0000   0.0000   0.0000   0.0000   0.0000
     0.0000   0.0000   0.0000   0.0000   0.0000   0.0000   0.0000   0.0000
     0.0000   0.0000   0.0000   0.0000   0.0000   0.0000   0.0000   0.0000
     0.0000   0.0000   0.0000   0.0000   0.0000   0.0000

          k = 0.2500 0.2730 0.1315 (  4121 PWs)   bands (ev):

   -13.7511 -13.7490 -13.7453 -13.7435 -13.7396 -13.7380 -13.7353 -13.7353
   -13.7276 -13.7268 -13.7172 -13.7146 -13.7082 -13.7062 -13.6909 -13.6900
   -13.6848 -13.6829 -13.6724 -13.6712  -5.4692  -5.3500  -4.8361  -4.7124
     0.1270   0.5216   1.2197   1.3687   3.4102   3.5356   4.0339   4.4229
     4.5666   5.1839   5.8479   6.1023   6.1456   6.2406   6.8812   7.0538
     9.1102   9.5055   9.6218   9.9907  10.2597  10.6590  11.0944  11.5190
    11.9150  12.3250  12.7629  12.9071  13.8848  14.6360  14.9851  15.2984
    15.5122  15.7624  15.8680  16.2489  16.5583  16.9456  17.4427  17.7312
    18.2726  18.6687  18.9215  19.4235  19.5930  20.1556

     occupation numbers 
     1.0000   1.0000   1.0000   1.0000   1.0000   1.0000   1.0000   1.0000
     1.0000   1.0000   1.0000   1.0000   1.0000   1.0000   1.0000   1.0000
     1.0000   1.0000   1.0000   1.0000   1.0000   1.0000   1.0000   1.0000
     1.0000   1.0000   1.0000   1.0000   1.0000   1.0000   1.0000   1.0000
     1.0000   1.0000   1.0000   1.0000   1.0000   1.0000   1.0000   1.0000
     0.0000   0.0000   0.0000   0.0000   0.0000   0.0000   0.0000   0.0000
     0.0000   0.0000   0.0000   0.0000   0.0000   0.0000   0.0000   0.0000
     0.0000   0.0000   0.0000   0.0000   0.0000   0.0000   0.0000   0.0000
     0.0000   0.0000   0.0000   0.0000   0.0000   0.0000

          k = 0.2500 0.4095 0.0000 (  4125 PWs)   bands (ev):

   -13.7547 -13.7523 -13.7492 -13.7478 -13.7373 -13.7336 -13.7309 -13.7298
   -13.7270 -13.7260 -13.7194 -13.7139 -13.7072 -13.7031 -13.6946 -13.6944
   -13.6813 -13.6786 -13.6729 -13.6722  -5.2158  -5.0434  -4.8500  -4.7250
     0.1103   0.7152   0.8275   0.9995   3.2086   3.6783   3.7927   4.1712
     4.5679   5.1824   5.2182   5.5695   5.9143   6.0739   6.6114   6.8783
     8.3452   9.5974   9.7955  10.3442  10.8115  11.0243  11.7195  11.7684
    11.9686  11.9923  12.6472  13.1846  13.4178  13.5673  15.1098  15.4398
    15.9895  16.1882  16.7745  17.1707  17.3897  17.8609  18.0004  18.4837
    18.8754  19.2618  19.3183  19.6401  20.1616  20.4605

     occupation numbers 
     1.0000   1.0000   1.0000   1.0000   1.0000   1.0000   1.0000   1.0000
     1.0000   1.0000   1.0000   1.0000   1.0000   1.0000   1.0000   1.0000
     1.0000   1.0000   1.0000   1.0000   1.0000   1.0000   1.0000   1.0000
     1.0000   1.0000   1.0000   1.0000   1.0000   1.0000   1.0000   1.0000
     1.0000   1.0000   1.0000   1.0000   1.0000   1.0000   1.0000   1.0000
     0.0000   0.0000   0.0000   0.0000   0.0000   0.0000   0.0000   0.0000
     0.0000   0.0000   0.0000   0.0000   0.0000   0.0000   0.0000   0.0000
     0.0000   0.0000   0.0000   0.0000   0.0000   0.0000   0.0000   0.0000
     0.0000   0.0000   0.0000   0.0000   0.0000   0.0000

          k = 0.2500 0.4095 0.1315 (  4123 PWs)   bands (ev):

   -13.7538 -13.7521 -13.7499 -13.7486 -13.7359 -13.7335 -13.7322 -13.7313
   -13.7258 -13.7250 -13.7189 -13.7162 -13.7050 -13.7032 -13.6953 -13.6949
   -13.6803 -13.6789 -13.6728 -13.6725  -5.1834  -5.1025  -4.8027  -4.7456
     0.2389   0.5446   0.8452   0.9558   3.3171   3.5345   4.2093   4.2288
     4.4723   4.9250   5.2174   5.6804   5.7072   6.1185   6.3953   6.8039
     9.1148   9.7344   9.8271  10.2527  10.6006  10.7467  11.4928  11.5623
    11.6623  11.9103  12.7796  13.0858  13.9522  14.3223  15.1342  15.5609
    16.0274  16.1863  16.3784  16.8217  17.4531  17.6707  17.8529  18.4413
    18.8687  19.3304  19.6433  19.6855  19.8177  20.1345

     occupation numbers 
     1.0000   1.0000   1.0000   1.0000   1.0000   1.0000   1.0000   1.0000
     1.0000   1.0000   1.0000   1.0000   1.0000   1.0000   1.0000   1.0000
     1.0000   1.0000   1.0000   1.0000   1.0000   1.0000   1.0000   1.0000
     1.0000   1.0000   1.0000   1.0000   1.0000   1.0000   1.0000   1.0000
     1.0000   1.0000   1.0000   1.0000   1.0000   1.0000   1.0000   1.0000
     0.0000   0.0000   0.0000   0.0000   0.0000   0.0000   0.0000   0.0000
     0.0000   0.0000   0.0000   0.0000   0.0000   0.0000   0.0000   0.0000
     0.0000   0.0000   0.0000   0.0000   0.0000   0.0000   0.0000   0.0000
     0.0000   0.0000   0.0000   0.0000   0.0000   0.0000

          k = 0.2500-0.5460 0.0000 (  4136 PWs)   bands (ev):

   -13.7552 -13.7552 -13.7506 -13.7506 -13.7343 -13.7343 -13.7284 -13.7284
   -13.7245 -13.7245 -13.7184 -13.7184 -13.7034 -13.7034 -13.6967 -13.6967
   -13.6773 -13.6773 -13.6736 -13.6736  -4.9200  -4.9200  -4.8811  -4.8811
     0.3402   0.3402   0.8013   0.8013   3.5756   3.5756   4.0311   4.0311
     4.6101   4.6101   5.2919   5.2919   5.6839   5.6839   6.7060   6.7060
     8.8490   8.8490  10.4247  10.4247  11.2491  11.2491  11.6303  11.6303
    11.8615  11.8615  12.6052  12.6052  13.3669  13.3669  15.1280  15.1280
    16.9959  16.9959  17.6810  17.6810  18.1746  18.1746  18.9487  18.9487
    19.0669  19.0669  19.4323  19.4323  19.9026  19.9026

     occupation numbers 
     1.0000   1.0000   1.0000   1.0000   1.0000   1.0000   1.0000   1.0000
     1.0000   1.0000   1.0000   1.0000   1.0000   1.0000   1.0000   1.0000
     1.0000   1.0000   1.0000   1.0000   1.0000   1.0000   1.0000   1.0000
     1.0000   1.0000   1.0000   1.0000   1.0000   1.0000   1.0000   1.0000
     1.0000   1.0000   1.0000   1.0000   1.0000   1.0000   1.0000   1.0000
     0.0000   0.0000   0.0000   0.0000   0.0000   0.0000   0.0000   0.0000
     0.0000   0.0000   0.0000   0.0000   0.0000   0.0000   0.0000   0.0000
     0.0000   0.0000   0.0000   0.0000   0.0000   0.0000   0.0000   0.0000
     0.0000   0.0000   0.0000   0.0000   0.0000   0.0000

          k = 0.2500-0.5460 0.1315 (  4124 PWs)   bands (ev):

   -13.7541 -13.7541 -13.7518 -13.7518 -13.7332 -13.7332 -13.7305 -13.7305
   -13.7225 -13.7225 -13.7197 -13.7197 -13.7015 -13.7015 -13.6983 -13.6983
   -13.6762 -13.6762 -13.6744 -13.6744  -4.9104  -4.9104  -4.8910  -4.8910
     0.4417   0.4417   0.6698   0.6698   3.6977   3.6977   3.9731   3.9731
     4.6482   4.6482   5.2024   5.2024   5.8263   5.8263   6.4235   6.4235
     9.4110   9.4110  10.2606  10.2606  10.8922  10.8922  11.2269  11.2269
    12.1209  12.1209  12.4569  12.4569  14.0296  14.0296  15.2794  15.2794
    16.6618  16.6618  17.4376  17.4376  18.4322  18.4322  18.7098  18.7098
    19.0443  19.0443  19.3083  19.3083  20.0981  20.0981

     occupation numbers 
     1.0000   1.0000   1.0000   1.0000   1.0000   1.0000   1.0000   1.0000
     1.0000   1.0000   1.0000   1.0000   1.0000   1.0000   1.0000   1.0000
     1.0000   1.0000   1.0000   1.0000   1.0000   1.0000   1.0000   1.0000
     1.0000   1.0000   1.0000   1.0000   1.0000   1.0000   1.0000   1.0000
     1.0000   1.0000   1.0000   1.0000   1.0000   1.0000   1.0000   1.0000
     0.0000   0.0000   0.0000   0.0000   0.0000   0.0000   0.0000   0.0000
     0.0000   0.0000   0.0000   0.0000   0.0000   0.0000   0.0000   0.0000
     0.0000   0.0000   0.0000   0.0000   0.0000   0.0000   0.0000   0.0000
     0.0000   0.0000   0.0000   0.0000   0.0000   0.0000

          k = 0.3750 0.0000 0.0000 (  4107 PWs)   bands (ev):

   -13.7533 -13.7481 -13.7446 -13.7434 -13.7424 -13.7419 -13.7349 -13.7340
   -13.7255 -13.7233 -13.7156 -13.7129 -13.7106 -13.7088 -13.6913 -13.6881
   -13.6854 -13.6834 -13.6727 -13.6702  -5.5677  -5.2710  -5.1462  -4.8256
    -0.3931   0.1750   0.9666   1.4079   3.4754   4.5496   5.1465   5.5387
     5.6911   5.9001   6.0178   6.0888   6.4481   6.9950   7.2391   7.4869
     8.5222   8.9323   9.2306   9.3539   9.6088   9.9331  10.2949  10.8473
    11.0599  11.4601  12.7802  13.2291  14.1278  14.5548  15.0859  15.3360
    15.4168  15.6231  15.9776  16.4942  16.4962  17.3165  18.2328  18.2344
    18.3220  18.5510  18.9081  19.3047  19.7738  19.9687

     occupation numbers 
     1.0000   1.0000   1.0000   1.0000   1.0000   1.0000   1.0000   1.0000
     1.0000   1.0000   1.0000   1.0000   1.0000   1.0000   1.0000   1.0000
     1.0000   1.0000   1.0000   1.0000   1.0000   1.0000   1.0000   1.0000
     1.0000   1.0000   1.0000   1.0000   1.0000   1.0000   1.0000   1.0000
     1.0000   1.0000   1.0000   1.0000   1.0000   1.0000   1.0000   1.0000
     0.0000   0.0000   0.0000   0.0000   0.0000   0.0000   0.0000   0.0000
     0.0000   0.0000   0.0000   0.0000   0.0000   0.0000   0.0000   0.0000
     0.0000   0.0000   0.0000   0.0000   0.0000   0.0000   0.0000   0.0000
     0.0000   0.0000   0.0000   0.0000   0.0000   0.0000

          k = 0.3750 0.0000 0.1315 (  4101 PWs)   bands (ev):

   -13.7522 -13.7497 -13.7437 -13.7429 -13.7424 -13.7423 -13.7353 -13.7347
   -13.7247 -13.7236 -13.7149 -13.7135 -13.7102 -13.7093 -13.6904 -13.6889
   -13.6848 -13.6838 -13.6720 -13.6708  -5.5222  -5.3982  -5.0135  -4.8776
    -0.2578   0.0357   1.0004   1.2367   3.9541   4.7775   5.2076   5.2314
     5.3720   5.8330   5.8578   6.0250   6.5226   6.7482   7.2936   7.4612
     8.6830   9.0691   9.4824   9.4950   9.7687   9.9659  10.2263  10.9910
    11.1057  11.2943  12.4392  12.7564  14.2363  14.4361  15.0418  15.5086
    15.6779  15.8437  16.2286  16.4396  17.0096  17.0749  17.3731  17.8190
    18.0765  18.3408  18.8258  19.3375  19.6816  20.0316

     occupation numbers 
     1.0000   1.0000   1.0000   1.0000   1.0000   1.0000   1.0000   1.0000
     1.0000   1.0000   1.0000   1.0000   1.0000   1.0000   1.0000   1.0000
     1.0000   1.0000   1.0000   1.0000   1.0000   1.0000   1.0000   1.0000
     1.0000   1.0000   1.0000   1.0000   1.0000   1.0000   1.0000   1.0000
     1.0000   1.0000   1.0000   1.0000   1.0000   1.0000   1.0000   1.0000
     0.0000   0.0000   0.0000   0.0000   0.0000   0.0000   0.0000   0.0000
     0.0000   0.0000   0.0000   0.0000   0.0000   0.0000   0.0000   0.0000
     0.0000   0.0000   0.0000   0.0000   0.0000   0.0000   0.0000   0.0000
     0.0000   0.0000   0.0000   0.0000   0.0000   0.0000

          k = 0.3750 0.1365 0.0000 (  4090 PWs)   bands (ev):

   -13.7516 -13.7470 -13.7454 -13.7441 -13.7404 -13.7397 -13.7374 -13.7367
   -13.7270 -13.7249 -13.7148 -13.7115 -13.7105 -13.7075 -13.6900 -13.6869
   -13.6864 -13.6847 -13.6727 -13.6705  -5.4988  -5.2164  -5.0979  -4.7982
    -0.3020   0.2532   1.0181   1.4097   3.5531   4.1602   4.3588   5.1025
     5.2347   5.2973   5.9496   6.2455   6.7525   6.8376   7.1682   7.1981
     8.8124   8.9786   9.1045   9.4319  10.2048  10.3758  10.6521  11.2215
    11.6512  11.9520  12.7060  13.1350  13.8467  14.5844  14.6619  15.0164
    15.5834  16.0701  16.0967  16.8903  16.9774  17.4653  18.2523  18.2588
    18.4473  18.7134  18.8109  19.2146  19.2741  19.7019

     occupation numbers 
     1.0000   1.0000   1.0000   1.0000   1.0000   1.0000   1.0000   1.0000
     1.0000   1.0000   1.0000   1.0000   1.0000   1.0000   1.0000   1.0000
     1.0000   1.0000   1.0000   1.0000   1.0000   1.0000   1.0000   1.0000
     1.0000   1.0000   1.0000   1.0000   1.0000   1.0000   1.0000   1.0000
     1.0000   1.0000   1.0000   1.0000   1.0000   1.0000   1.0000   1.0000
     0.0000   0.0000   0.0000   0.0000   0.0000   0.0000   0.0000   0.0000
     0.0000   0.0000   0.0000   0.0000   0.0000   0.0000   0.0000   0.0000
     0.0000   0.0000   0.0000   0.0000   0.0000   0.0000   0.0000   0.0000
     0.0000   0.0000   0.0000   0.0000   0.0000   0.0000

          k = 0.3750 0.1365 0.1315 (  4095 PWs)   bands (ev):

   -13.7504 -13.7476 -13.7463 -13.7449 -13.7399 -13.7395 -13.7372 -13.7368
   -13.7261 -13.7251 -13.7143 -13.7129 -13.7094 -13.7081 -13.6892 -13.6876
   -13.6861 -13.6854 -13.6720 -13.6709  -5.4553  -5.3370  -4.9734  -4.8465
    -0.1697   0.1165   1.0479   1.2583   3.9326   4.2379   4.5585   4.8840
     5.1013   5.3637   5.6496   6.1151   6.7159   6.8392   6.9894   7.0948
     9.0514   9.3382   9.3690   9.7304  10.0583  10.5225  10.5686  10.8410
    11.7420  11.8395  12.3924  12.6724  14.3644  14.6464  14.9210  15.2025
    15.6511  16.0343  16.1369  16.3717  16.8931  17.2346  17.6477  18.2584
    18.4742  18.7387  19.1748  19.2081  19.4829  19.8677

     occupation numbers 
     1.0000   1.0000   1.0000   1.0000   1.0000   1.0000   1.0000   1.0000
     1.0000   1.0000   1.0000   1.0000   1.0000   1.0000   1.0000   1.0000
     1.0000   1.0000   1.0000   1.0000   1.0000   1.0000   1.0000   1.0000
     1.0000   1.0000   1.0000   1.0000   1.0000   1.0000   1.0000   1.0000
     1.0000   1.0000   1.0000   1.0000   1.0000   1.0000   1.0000   1.0000
     0.0000   0.0000   0.0000   0.0000   0.0000   0.0000   0.0000   0.0000
     0.0000   0.0000   0.0000   0.0000   0.0000   0.0000   0.0000   0.0000
     0.0000   0.0000   0.0000   0.0000   0.0000   0.0000   0.0000   0.0000
     0.0000   0.0000   0.0000   0.0000   0.0000   0.0000

          k = 0.3750 0.2730 0.0000 (  4094 PWs)   bands (ev):

   -13.7533 -13.7511 -13.7447 -13.7444 -13.7407 -13.7379 -13.7358 -13.7351
   -13.7275 -13.7267 -13.7150 -13.7113 -13.7084 -13.7052 -13.6901 -13.6889
   -13.6856 -13.6834 -13.6725 -13.6711  -5.3109  -5.0749  -4.9776  -4.7436
    -0.0497   0.4542   1.1049   1.3376   3.2957   3.6154   3.7086   4.2550
     4.4598   5.1546   5.2792   5.8712   6.0207   6.4597   6.6480   6.9767
     8.4635   9.8232   9.8549  10.7400  10.9160  11.0007  11.3481  12.0924
    12.2729  12.3666  12.8833  13.0136  13.3876  13.6991  14.8076  15.3873
    16.0386  16.2893  16.7584  17.4139  17.5177  17.5565  17.9311  18.3410
    18.5182  18.6988  18.9871  19.4072  19.7207  19.7723

     occupation numbers 
     1.0000   1.0000   1.0000   1.0000   1.0000   1.0000   1.0000   1.0000
     1.0000   1.0000   1.0000   1.0000   1.0000   1.0000   1.0000   1.0000
     1.0000   1.0000   1.0000   1.0000   1.0000   1.0000   1.0000   1.0000
     1.0000   1.0000   1.0000   1.0000   1.0000   1.0000   1.0000   1.0000
     1.0000   1.0000   1.0000   1.0000   1.0000   1.0000   1.0000   1.0000
     0.0000   0.0000   0.0000   0.0000   0.0000   0.0000   0.0000   0.0000
     0.0000   0.0000   0.0000   0.0000   0.0000   0.0000   0.0000   0.0000
     0.0000   0.0000   0.0000   0.0000   0.0000   0.0000   0.0000   0.0000
     0.0000   0.0000   0.0000   0.0000   0.0000   0.0000

          k = 0.3750 0.2730 0.1315 (  4110 PWs)   bands (ev):

   -13.7524 -13.7511 -13.7465 -13.7454 -13.7392 -13.7381 -13.7350 -13.7349
   -13.7271 -13.7267 -13.7150 -13.7134 -13.7067 -13.7054 -13.6903 -13.6898
   -13.6848 -13.6838 -13.6720 -13.6713  -5.2738  -5.1743  -4.8789  -4.7804
     0.0709   0.3291   1.1191   1.2455   3.3728   3.5301   4.0446   4.2069
     4.4572   5.1433   5.4265   5.7433   5.9306   6.0717   6.6281   6.8826
     9.2675   9.9642  10.0540  10.3496  10.7336  10.9295  11.2814  11.6132
    12.0491  12.3392  12.8520  12.9617  13.9289  14.4080  14.9208  15.5326
    15.9743  16.2333  16.6641  16.7926  17.2250  17.2887  17.7280  18.2241
    18.8476  18.9874  19.3467  19.5684  19.7108  19.8348

     occupation numbers 
     1.0000   1.0000   1.0000   1.0000   1.0000   1.0000   1.0000   1.0000
     1.0000   1.0000   1.0000   1.0000   1.0000   1.0000   1.0000   1.0000
     1.0000   1.0000   1.0000   1.0000   1.0000   1.0000   1.0000   1.0000
     1.0000   1.0000   1.0000   1.0000   1.0000   1.0000   1.0000   1.0000
     1.0000   1.0000   1.0000   1.0000   1.0000   1.0000   1.0000   1.0000
     0.0000   0.0000   0.0000   0.0000   0.0000   0.0000   0.0000   0.0000
     0.0000   0.0000   0.0000   0.0000   0.0000   0.0000   0.0000   0.0000
     0.0000   0.0000   0.0000   0.0000   0.0000   0.0000   0.0000   0.0000
     0.0000   0.0000   0.0000   0.0000   0.0000   0.0000

          k = 0.3750 0.4095 0.0000 (  4099 PWs)   bands (ev):

   -13.7572 -13.7558 -13.7508 -13.7502 -13.7366 -13.7344 -13.7301 -13.7297
   -13.7262 -13.7256 -13.7171 -13.7141 -13.7049 -13.7029 -13.6932 -13.6932
   -13.6811 -13.6795 -13.6725 -13.6722  -5.0616  -4.9124  -4.8555  -4.7346
     0.2958   0.6682   1.0566   1.0851   2.8579   3.3800   3.4619   3.8264
     4.2586   4.6472   4.6653   5.2856   5.5395   5.7048   6.4897   6.5225
     8.8941  10.2654  10.5992  10.7946  11.6218  11.6683  11.9405  12.2581
    12.4489  12.6883  12.9927  13.3059  13.5828  13.7646  14.5985  15.0677
    16.6869  16.9684  17.4016  17.4092  17.9262  18.1297  18.5041  18.7007
    18.9156  19.2815  19.4179  19.7235  19.9415  20.1478

     occupation numbers 
     1.0000   1.0000   1.0000   1.0000   1.0000   1.0000   1.0000   1.0000
     1.0000   1.0000   1.0000   1.0000   1.0000   1.0000   1.0000   1.0000
     1.0000   1.0000   1.0000   1.0000   1.0000   1.0000   1.0000   1.0000
     1.0000   1.0000   1.0000   1.0000   1.0000   1.0000   1.0000   1.0000
     1.0000   1.0000   1.0000   1.0000   1.0000   1.0000   1.0000   1.0000
     0.0000   0.0000   0.0000   0.0000   0.0000   0.0000   0.0000   0.0000
     0.0000   0.0000   0.0000   0.0000   0.0000   0.0000   0.0000   0.0000
     0.0000   0.0000   0.0000   0.0000   0.0000   0.0000   0.0000   0.0000
     0.0000   0.0000   0.0000   0.0000   0.0000   0.0000

          k = 0.3750 0.4095 0.1315 (  4109 PWs)   bands (ev):

   -13.7562 -13.7551 -13.7519 -13.7511 -13.7356 -13.7342 -13.7316 -13.7310
   -13.7249 -13.7244 -13.7174 -13.7159 -13.7031 -13.7022 -13.6943 -13.6940
   -13.6802 -13.6794 -13.6726 -13.6724  -5.0370  -4.9731  -4.8020  -4.7522
     0.3903   0.5825   1.0314   1.0564   2.9884   3.2633   3.5810   3.9406
     4.0989   4.5326   4.6282   5.2115   5.5804   6.0310   6.2521   6.5374
     9.4729  10.0627  10.4128  10.7503  10.9750  11.2662  12.0441  12.1755
    12.4468  12.6694  13.4925  13.7202  13.8912  14.0294  14.8867  15.1853
    16.5285  16.7768  17.2681  17.3745  17.6369  17.8638  18.1232  18.3975
    18.9569  19.1229  19.1727  19.4785  20.0581  20.1958

     occupation numbers 
     1.0000   1.0000   1.0000   1.0000   1.0000   1.0000   1.0000   1.0000
     1.0000   1.0000   1.0000   1.0000   1.0000   1.0000   1.0000   1.0000
     1.0000   1.0000   1.0000   1.0000   1.0000   1.0000   1.0000   1.0000
     1.0000   1.0000   1.0000   1.0000   1.0000   1.0000   1.0000   1.0000
     1.0000   1.0000   1.0000   1.0000   1.0000   1.0000   1.0000   1.0000
     0.0000   0.0000   0.0000   0.0000   0.0000   0.0000   0.0000   0.0000
     0.0000   0.0000   0.0000   0.0000   0.0000   0.0000   0.0000   0.0000
     0.0000   0.0000   0.0000   0.0000   0.0000   0.0000   0.0000   0.0000
     0.0000   0.0000   0.0000   0.0000   0.0000   0.0000

          k = 0.3750-0.5460 0.0000 (  4100 PWs)   bands (ev):

   -13.7584 -13.7584 -13.7530 -13.7530 -13.7345 -13.7345 -13.7276 -13.7276
   -13.7240 -13.7240 -13.7176 -13.7176 -13.7025 -13.7025 -13.6949 -13.6949
   -13.6777 -13.6777 -13.6733 -13.6733  -4.8431  -4.8431  -4.8202  -4.8202
     0.6381   0.6381   0.9201   0.9201   3.0095   3.0095   3.6208   3.6208
     4.1385   4.1385   4.9274   4.9274   5.3225   5.3225   6.3937   6.3937
     9.6443   9.6443  10.8472  10.8472  11.9161  11.9161  12.1271  12.1271
    12.5622  12.5622  13.5290  13.5290  13.6416  13.6416  14.6671  14.6671
    16.9961  16.9961  18.2084  18.2084  18.5929  18.5929  18.9287  18.9287
    19.3057  19.3057  19.8444  19.8444  20.1137  20.1137

     occupation numbers 
     1.0000   1.0000   1.0000   1.0000   1.0000   1.0000   1.0000   1.0000
     1.0000   1.0000   1.0000   1.0000   1.0000   1.0000   1.0000   1.0000
     1.0000   1.0000   1.0000   1.0000   1.0000   1.0000   1.0000   1.0000
     1.0000   1.0000   1.0000   1.0000   1.0000   1.0000   1.0000   1.0000
     1.0000   1.0000   1.0000   1.0000   1.0000   1.0000   1.0000   1.0000
     0.0000   0.0000   0.0000   0.0000   0.0000   0.0000   0.0000   0.0000
     0.0000   0.0000   0.0000   0.0000   0.0000   0.0000   0.0000   0.0000
     0.0000   0.0000   0.0000   0.0000   0.0000   0.0000   0.0000   0.0000
     0.0000   0.0000   0.0000   0.0000   0.0000   0.0000

          k = 0.3750-0.5460 0.1315 (  4100 PWs)   bands (ev):

   -13.7570 -13.7570 -13.7543 -13.7543 -13.7334 -13.7334 -13.7303 -13.7303
   -13.7216 -13.7216 -13.7189 -13.7189 -13.7004 -13.7004 -13.6966 -13.6966
   -13.6764 -13.6764 -13.6743 -13.6743  -4.8374  -4.8374  -4.8259  -4.8259
     0.7001   0.7001   0.8397   0.8397   3.1704   3.1704   3.5564   3.5564
     4.0710   4.0710   4.5748   4.5748   5.7920   5.7920   6.3325   6.3325
     9.8044   9.8044  10.4388  10.4388  11.6879  11.6879  11.7653  11.7653
    13.2357  13.2357  13.5572  13.5572  14.0297  14.0297  14.9751  14.9751
    16.6498  16.6498  17.5671  17.5671  18.6440  18.6440  18.8645  18.8645
    19.2178  19.2178  19.4392  19.4392  19.9779  19.9779

     occupation numbers 
     1.0000   1.0000   1.0000   1.0000   1.0000   1.0000   1.0000   1.0000
     1.0000   1.0000   1.0000   1.0000   1.0000   1.0000   1.0000   1.0000
     1.0000   1.0000   1.0000   1.0000   1.0000   1.0000   1.0000   1.0000
     1.0000   1.0000   1.0000   1.0000   1.0000   1.0000   1.0000   1.0000
     1.0000   1.0000   1.0000   1.0000   1.0000   1.0000   1.0000   1.0000
     0.0000   0.0000   0.0000   0.0000   0.0000   0.0000   0.0000   0.0000
     0.0000   0.0000   0.0000   0.0000   0.0000   0.0000   0.0000   0.0000
     0.0000   0.0000   0.0000   0.0000   0.0000   0.0000   0.0000   0.0000
     0.0000   0.0000   0.0000   0.0000   0.0000   0.0000

          k =-0.5000 0.0000 0.0000 (  4068 PWs)   bands (ev):

   -13.7504 -13.7504 -13.7435 -13.7435 -13.7430 -13.7430 -13.7347 -13.7347
   -13.7245 -13.7245 -13.7124 -13.7124 -13.7101 -13.7101 -13.6899 -13.6899
   -13.6843 -13.6843 -13.6714 -13.6714  -5.3225  -5.3225  -5.0300  -5.0300
    -0.2799  -0.2799   1.0615   1.0615   4.0231   4.0231   5.5187   5.5187
     5.8638   5.8638   6.2738   6.2738   6.7289   6.7289   7.3625   7.3625
     8.8183   8.8183   9.2691   9.2691   9.3865   9.3865  10.2201  10.2201
    10.9299  10.9299  13.2828  13.2828  14.9625  14.9625  15.4203  15.4203
    15.7115  15.7115  16.5159  16.5159  17.1431  17.1431  17.4501  17.4501
    18.1299  18.1299  18.8992  18.8992  19.2929  19.2929

     occupation numbers 
     1.0000   1.0000   1.0000   1.0000   1.0000   1.0000   1.0000   1.0000
     1.0000   1.0000   1.0000   1.0000   1.0000   1.0000   1.0000   1.0000
     1.0000   1.0000   1.0000   1.0000   1.0000   1.0000   1.0000   1.0000
     1.0000   1.0000   1.0000   1.0000   1.0000   1.0000   1.0000   1.0000
     1.0000   1.0000   1.0000   1.0000   1.0000   1.0000   1.0000   1.0000
     0.0000   0.0000   0.0000   0.0000   0.0000   0.0000   0.0000   0.0000
     0.0000   0.0000   0.0000   0.0000   0.0000   0.0000   0.0000   0.0000
     0.0000   0.0000   0.0000   0.0000   0.0000   0.0000   0.0000   0.0000
     0.0000   0.0000   0.0000   0.0000   0.0000   0.0000

          k =-0.5000 0.0000 0.1315 (  4114 PWs)   bands (ev):

   -13.7503 -13.7503 -13.7432 -13.7432 -13.7432 -13.7432 -13.7354 -13.7354
   -13.7241 -13.7241 -13.7122 -13.7122 -13.7103 -13.7103 -13.6897 -13.6897
   -13.6845 -13.6845 -13.6715 -13.6715  -5.3206  -5.3206  -5.0326  -5.0326
    -0.2317  -0.2317   0.9426   0.9426   4.4630   4.4630   5.5069   5.5069
     5.5256   5.5256   5.8539   5.8539   7.0240   7.0240   7.3522   7.3522
     8.7784   8.7784   9.3616   9.3616   9.4221   9.4221  10.5857  10.5857
    10.8650  10.8650  12.7189  12.7189  15.2637  15.2637  15.6220  15.6220
    16.1024  16.1024  16.1050  16.1050  17.1567  17.1567  17.3747  17.3747
    17.5586  17.5586  18.4630  18.4630  19.4680  19.4680

     occupation numbers 
     1.0000   1.0000   1.0000   1.0000   1.0000   1.0000   1.0000   1.0000
     1.0000   1.0000   1.0000   1.0000   1.0000   1.0000   1.0000   1.0000
     1.0000   1.0000   1.0000   1.0000   1.0000   1.0000   1.0000   1.0000
     1.0000   1.0000   1.0000   1.0000   1.0000   1.0000   1.0000   1.0000
     1.0000   1.0000   1.0000   1.0000   1.0000   1.0000   1.0000   1.0000
     0.0000   0.0000   0.0000   0.0000   0.0000   0.0000   0.0000   0.0000
     0.0000   0.0000   0.0000   0.0000   0.0000   0.0000   0.0000   0.0000
     0.0000   0.0000   0.0000   0.0000   0.0000   0.0000   0.0000   0.0000
     0.0000   0.0000   0.0000   0.0000   0.0000   0.0000

          k =-0.5000 0.1365 0.0000 (  4074 PWs)   bands (ev):

   -13.7493 -13.7493 -13.7449 -13.7449 -13.7402 -13.7402 -13.7374 -13.7374
   -13.7259 -13.7259 -13.7120 -13.7120 -13.7088 -13.7088 -13.6886 -13.6886
   -13.6855 -13.6855 -13.6716 -13.6716  -5.2642  -5.2642  -4.9882  -4.9882
    -0.1808  -0.1808   1.1141   1.1141   4.0136   4.0136   4.7657   4.7657
     5.1471   5.1471   6.1184   6.1184   6.9675   6.9675   7.1222   7.1222
     8.7410   8.7410   9.3107   9.3107  10.3624  10.3624  10.7978  10.7978
    11.4732  11.4732  13.1111  13.1111  14.0867  14.0867  15.3804  15.3804
    16.2368  16.2368  16.8465  16.8465  17.3831  17.3831  17.8487  17.8487
    18.2252  18.2252  18.7893  18.7893  19.2061  19.2061

     occupation numbers 
     1.0000   1.0000   1.0000   1.0000   1.0000   1.0000   1.0000   1.0000
     1.0000   1.0000   1.0000   1.0000   1.0000   1.0000   1.0000   1.0000
     1.0000   1.0000   1.0000   1.0000   1.0000   1.0000   1.0000   1.0000
     1.0000   1.0000   1.0000   1.0000   1.0000   1.0000   1.0000   1.0000
     1.0000   1.0000   1.0000   1.0000   1.0000   1.0000   1.0000   1.0000
     0.0000   0.0000   0.0000   0.0000   0.0000   0.0000   0.0000   0.0000
     0.0000   0.0000   0.0000   0.0000   0.0000   0.0000   0.0000   0.0000
     0.0000   0.0000   0.0000   0.0000   0.0000   0.0000   0.0000   0.0000
     0.0000   0.0000   0.0000   0.0000   0.0000   0.0000

          k =-0.5000 0.1365 0.1315 (  4090 PWs)   bands (ev):

   -13.7485 -13.7485 -13.7463 -13.7463 -13.7396 -13.7396 -13.7374 -13.7374
   -13.7256 -13.7256 -13.7123 -13.7123 -13.7087 -13.7087 -13.6883 -13.6883
   -13.6860 -13.6860 -13.6714 -13.6714  -5.2625  -5.2625  -4.9906  -4.9906
    -0.1358  -0.1358   1.0059   1.0059   4.3204   4.3204   4.7602   4.7602
     5.1629   5.1629   5.7789   5.7789   6.8147   6.8147   7.0569   7.0569
     9.1708   9.1708   9.5290   9.5290  10.1536  10.1536  10.7763  10.7763
    11.5293  11.5293  12.5816  12.5816  14.6656  14.6656  15.5471  15.5471
    15.9326  15.9326  16.8924  16.8924  17.2320  17.2320  17.4231  17.4231
    18.0113  18.0113  18.9175  18.9175  19.9360  19.9360

     occupation numbers 
     1.0000   1.0000   1.0000   1.0000   1.0000   1.0000   1.0000   1.0000
     1.0000   1.0000   1.0000   1.0000   1.0000   1.0000   1.0000   1.0000
     1.0000   1.0000   1.0000   1.0000   1.0000   1.0000   1.0000   1.0000
     1.0000   1.0000   1.0000   1.0000   1.0000   1.0000   1.0000   1.0000
     1.0000   1.0000   1.0000   1.0000   1.0000   1.0000   1.0000   1.0000
     0.0000   0.0000   0.0000   0.0000   0.0000   0.0000   0.0000   0.0000
     0.0000   0.0000   0.0000   0.0000   0.0000   0.0000   0.0000   0.0000
     0.0000   0.0000   0.0000   0.0000   0.0000   0.0000   0.0000   0.0000
     0.0000   0.0000   0.0000   0.0000   0.0000   0.0000

          k =-0.5000 0.2730 0.0000 (  4094 PWs)   bands (ev):

   -13.7530 -13.7530 -13.7450 -13.7450 -13.7394 -13.7394 -13.7354 -13.7354
   -13.7269 -13.7269 -13.7126 -13.7126 -13.7061 -13.7061 -13.6893 -13.6893
   -13.6847 -13.6847 -13.6718 -13.6718  -5.1109  -5.1109  -4.8875  -4.8875
     0.0978   0.0978   1.2093   1.2093   3.5846   3.5846   3.8973   3.8973
     4.6156   4.6156   5.4029   5.4029   6.1733   6.1733   6.7766   6.7766
     9.0282   9.0282  10.6278  10.6278  11.4847  11.4847  11.8900  11.8900
    12.1709  12.1709  12.7706  12.7706  13.4322  13.4322  14.9570  14.9570
    17.1472  17.1472  17.2355  17.2355  17.4998  17.4998  18.7382  18.7382
    18.8807  18.8807  19.0662  19.0662  19.4371  19.4371

     occupation numbers 
     1.0000   1.0000   1.0000   1.0000   1.0000   1.0000   1.0000   1.0000
     1.0000   1.0000   1.0000   1.0000   1.0000   1.0000   1.0000   1.0000
     1.0000   1.0000   1.0000   1.0000   1.0000   1.0000   1.0000   1.0000
     1.0000   1.0000   1.0000   1.0000   1.0000   1.0000   1.0000   1.0000
     1.0000   1.0000   1.0000   1.0000   1.0000   1.0000   1.0000   1.0000
     0.0000   0.0000   0.0000   0.0000   0.0000   0.0000   0.0000   0.0000
     0.0000   0.0000   0.0000   0.0000   0.0000   0.0000   0.0000   0.0000
     0.0000   0.0000   0.0000   0.0000   0.0000   0.0000   0.0000   0.0000
     0.0000   0.0000   0.0000   0.0000   0.0000   0.0000

          k =-0.5000 0.2730 0.1315 (  4090 PWs)   bands (ev):

   -13.7525 -13.7525 -13.7466 -13.7466 -13.7385 -13.7385 -13.7349 -13.7349
   -13.7267 -13.7267 -13.7135 -13.7135 -13.7054 -13.7054 -13.6899 -13.6899
   -13.6845 -13.6845 -13.6716 -13.6716  -5.1095  -5.1095  -4.8894  -4.8894
     0.1321   0.1321   1.1363   1.1363   3.6477   3.6477   3.8429   3.8429
     4.8432   4.8432   5.4447   5.4447   5.9210   5.9210   6.5837   6.5837
     9.6114   9.6114  10.7546  10.7546  10.8828  10.8828  11.5210  11.5210
    12.2892  12.2892  12.6822  12.6822  14.1069  14.1069  15.1893  15.1893
    16.4444  16.4444  17.2787  17.2787  17.6228  17.6228  18.4592  18.4592
    18.5921  18.5921  19.0230  19.0230  19.8675  19.8675

     occupation numbers 
     1.0000   1.0000   1.0000   1.0000   1.0000   1.0000   1.0000   1.0000
     1.0000   1.0000   1.0000   1.0000   1.0000   1.0000   1.0000   1.0000
     1.0000   1.0000   1.0000   1.0000   1.0000   1.0000   1.0000   1.0000
     1.0000   1.0000   1.0000   1.0000   1.0000   1.0000   1.0000   1.0000
     1.0000   1.0000   1.0000   1.0000   1.0000   1.0000   1.0000   1.0000
     0.0000   0.0000   0.0000   0.0000   0.0000   0.0000   0.0000   0.0000
     0.0000   0.0000   0.0000   0.0000   0.0000   0.0000   0.0000   0.0000
     0.0000   0.0000   0.0000   0.0000   0.0000   0.0000   0.0000   0.0000
     0.0000   0.0000   0.0000   0.0000   0.0000   0.0000

          k =-0.5000 0.4095 0.0000 (  4094 PWs)   bands (ev):

   -13.7577 -13.7577 -13.7514 -13.7514 -13.7356 -13.7356 -13.7298 -13.7298
   -13.7256 -13.7256 -13.7152 -13.7152 -13.7033 -13.7033 -13.6927 -13.6927
   -13.6804 -13.6804 -13.6723 -13.6723  -4.9268  -4.9268  -4.7978  -4.7978
     0.4868   0.4868   1.1637   1.1637   2.9643   2.9643   3.5389   3.5389
     4.1811   4.1811   4.9789   4.9789   5.4271   5.4271   6.4211   6.4211
     9.6152   9.6152  11.0240  11.0240  12.0861  12.0861  12.2931  12.2931
    12.6365  12.6365  13.5069  13.5069  13.6525  13.6525  14.6260  14.6260
    17.2627  17.2627  17.9943  17.9943  18.1108  18.1108  18.5318  18.5318
    18.7907  18.7907  19.5332  19.5332  20.2283  20.2283

     occupation numbers 
     1.0000   1.0000   1.0000   1.0000   1.0000   1.0000   1.0000   1.0000
     1.0000   1.0000   1.0000   1.0000   1.0000   1.0000   1.0000   1.0000
     1.0000   1.0000   1.0000   1.0000   1.0000   1.0000   1.0000   1.0000
     1.0000   1.0000   1.0000   1.0000   1.0000   1.0000   1.0000   1.0000
     1.0000   1.0000   1.0000   1.0000   1.0000   1.0000   1.0000   1.0000
     0.0000   0.0000   0.0000   0.0000   0.0000   0.0000   0.0000   0.0000
     0.0000   0.0000   0.0000   0.0000   0.0000   0.0000   0.0000   0.0000
     0.0000   0.0000   0.0000   0.0000   0.0000   0.0000   0.0000   0.0000
     0.0000   0.0000   0.0000   0.0000   0.0000   0.0000

          k =-0.5000 0.4095 0.1315 (  4102 PWs)   bands (ev):

   -13.7568 -13.7568 -13.7524 -13.7524 -13.7350 -13.7350 -13.7311 -13.7311
   -13.7243 -13.7243 -13.7163 -13.7163 -13.7019 -13.7019 -13.6937 -13.6937
   -13.6799 -13.6799 -13.6725 -13.6725  -4.9259  -4.9259  -4.7988  -4.7988
     0.5030   0.5030   1.1320   1.1320   3.0944   3.0944   3.4247   3.4247
     4.1928   4.1928   4.7357   4.7357   5.7626   5.7626   6.3598   6.3598
     9.7477   9.7477  10.6586  10.6586  11.8583  11.8583  11.9676  11.9676
    13.2372  13.2372  13.5734  13.5734  14.0078  14.0078  14.9201  14.9201
    16.7672  16.7672  17.7381  17.7381  18.0818  18.0818  18.4988  18.4988
    18.9171  18.9171  19.0748  19.0748  20.0956  20.0956

     occupation numbers 
     1.0000   1.0000   1.0000   1.0000   1.0000   1.0000   1.0000   1.0000
     1.0000   1.0000   1.0000   1.0000   1.0000   1.0000   1.0000   1.0000
     1.0000   1.0000   1.0000   1.0000   1.0000   1.0000   1.0000   1.0000
     1.0000   1.0000   1.0000   1.0000   1.0000   1.0000   1.0000   1.0000
     1.0000   1.0000   1.0000   1.0000   1.0000   1.0000   1.0000   1.0000
     0.0000   0.0000   0.0000   0.0000   0.0000   0.0000   0.0000   0.0000
     0.0000   0.0000   0.0000   0.0000   0.0000   0.0000   0.0000   0.0000
     0.0000   0.0000   0.0000   0.0000   0.0000   0.0000   0.0000   0.0000
     0.0000   0.0000   0.0000   0.0000   0.0000   0.0000

          k =-0.5000-0.5460 0.0000 (  4060 PWs)   bands (ev):

   -13.7596 -13.7596 -13.7539 -13.7539 -13.7345 -13.7345 -13.7273 -13.7273
   -13.7237 -13.7237 -13.7174 -13.7174 -13.7020 -13.7020 -13.6942 -13.6942
   -13.6778 -13.6778 -13.6731 -13.6731  -4.8069  -4.8069  -4.7974  -4.7974
     0.8097   0.8097   0.9542   0.9542   2.8054   2.8054   3.3737   3.3737
     4.0581   4.0581   4.5956   4.5956   5.3847   5.3847   6.2430   6.2430
    10.1764  10.1764  10.5216  10.5216  12.1542  12.1542  12.2796  12.2796
    13.0684  13.0684  13.9098  13.9098  14.0945  14.0945  14.6685  14.6685
    17.2216  17.2216  17.5975  17.5975  17.8927  17.8927  19.6053  19.6053
    19.6880  19.6880  20.0011  20.0011  20.1325  20.1325

     occupation numbers 
     1.0000   1.0000   1.0000   1.0000   1.0000   1.0000   1.0000   1.0000
     1.0000   1.0000   1.0000   1.0000   1.0000   1.0000   1.0000   1.0000
     1.0000   1.0000   1.0000   1.0000   1.0000   1.0000   1.0000   1.0000
     1.0000   1.0000   1.0000   1.0000   1.0000   1.0000   1.0000   1.0000
     1.0000   1.0000   1.0000   1.0000   1.0000   1.0000   1.0000   1.0000
     0.0000   0.0000   0.0000   0.0000   0.0000   0.0000   0.0000   0.0000
     0.0000   0.0000   0.0000   0.0000   0.0000   0.0000   0.0000   0.0000
     0.0000   0.0000   0.0000   0.0000   0.0000   0.0000   0.0000   0.0000
     0.0000   0.0000   0.0000   0.0000   0.0000   0.0000

          k =-0.5000-0.5460 0.1315 (  4072 PWs)   bands (ev):

   -13.7582 -13.7582 -13.7553 -13.7553 -13.7335 -13.7335 -13.7303 -13.7303
   -13.7213 -13.7213 -13.7186 -13.7186 -13.6998 -13.6998 -13.6960 -13.6960
   -13.6765 -13.6765 -13.6742 -13.6742  -4.8046  -4.8046  -4.7998  -4.7998
     0.8373   0.8373   0.9087   0.9087   2.9965   2.9965   3.3974   3.3974
     3.8438   3.8438   4.2557   4.2557   5.8569   5.8569   6.2842   6.2842
     9.9721   9.9721  10.2069  10.2069  12.1586  12.1586  12.1847  12.1847
    13.7440  13.7440  14.0596  14.0596  14.0895  14.0895  14.8934  14.8934
    16.8405  16.8405  17.4767  17.4767  18.0089  18.0089  18.5052  18.5052
    19.5404  19.5404  19.7282  19.7282  20.1076  20.1076

     occupation numbers 
     1.0000   1.0000   1.0000   1.0000   1.0000   1.0000   1.0000   1.0000
     1.0000   1.0000   1.0000   1.0000   1.0000   1.0000   1.0000   1.0000
     1.0000   1.0000   1.0000   1.0000   1.0000   1.0000   1.0000   1.0000
     1.0000   1.0000   1.0000   1.0000   1.0000   1.0000   1.0000   1.0000
     1.0000   1.0000   1.0000   1.0000   1.0000   1.0000   1.0000   1.0000
     0.0000   0.0000   0.0000   0.0000   0.0000   0.0000   0.0000   0.0000
     0.0000   0.0000   0.0000   0.0000   0.0000   0.0000   0.0000   0.0000
     0.0000   0.0000   0.0000   0.0000   0.0000   0.0000   0.0000   0.0000
     0.0000   0.0000   0.0000   0.0000   0.0000   0.0000

     the Fermi energy is     7.8183 ev
     (compare with:     8.0966 eV, computed in scf)

     Writing all to output data dir ./tmp/SnSe_pnma.save/ :
     XML data file, pseudopotentials, collected wavefunctions
 
     init_run     :      0.47s CPU      0.55s WALL (       1 calls)
     electrons    :     53.11s CPU     53.94s WALL (       1 calls)

     Called by init_run:
     wfcinit      :      0.00s CPU      0.00s WALL (       1 calls)
     wfcinit:atom :      0.01s CPU      0.01s WALL (      13 calls)
     wfcinit:wfcr :      0.73s CPU      0.76s WALL (      13 calls)
     potinit      :      0.10s CPU      0.11s WALL (       1 calls)
     hinit0       :      0.20s CPU      0.21s WALL (       1 calls)

     Called by electrons:
     c_bands      :     53.10s CPU     53.91s WALL (       1 calls)
     v_of_rho     :      0.08s CPU      0.09s WALL (       1 calls)
     v_h          :      0.00s CPU      0.00s WALL (       1 calls)
     v_xc         :      0.07s CPU      0.08s WALL (       1 calls)
     newd         :      0.11s CPU      0.16s WALL (       1 calls)

     Called by c_bands:
     init_us_2    :      0.03s CPU      0.03s WALL (      13 calls)
     cegterg      :     45.61s CPU     45.93s WALL (      49 calls)

     Called by sum_band:

     Called by *egterg:
     cdiaghg      :      4.72s CPU      4.73s WALL (     873 calls)
     cegterg:over :      4.50s CPU      4.52s WALL (     860 calls)
     cegterg:upda :      2.55s CPU      2.55s WALL (     860 calls)
     cegterg:last :      7.38s CPU      7.40s WALL (     578 calls)
     h_psi        :     23.50s CPU     23.78s WALL (     922 calls)
     s_psi        :      2.64s CPU      2.64s WALL (     922 calls)
     g_psi        :      0.15s CPU      0.15s WALL (     860 calls)

     Called by h_psi:
     h_psi:calbec :      2.64s CPU      2.66s WALL (     922 calls)
     vloc_psi     :     17.96s CPU     18.20s WALL (     922 calls)
     add_vuspsi   :      2.69s CPU      2.69s WALL (     922 calls)

     General routines
     calbec       :      2.63s CPU      2.66s WALL (     922 calls)
     fft          :      0.03s CPU      0.03s WALL (      13 calls)
     ffts         :      0.00s CPU      0.00s WALL (       1 calls)
     fftw         :     12.08s CPU     12.25s WALL (   75138 calls)
     interpolate  :      0.00s CPU      0.00s WALL (       1 calls)
     davcio       :      0.01s CPU      0.03s WALL (      26 calls)
 
     Parallel routines
 
     PWSCF        :     53.88s CPU     55.63s WALL

 
   This run was terminated on:  17:47: 3  24May2026            

=------------------------------------------------------------------------------=
   JOB DONE.
=------------------------------------------------------------------------------=
