
     Program PWSCF v.7.3.1 starts on 24May2026 at 17:45:29 

     This program is part of the open-source Quantum ESPRESSO suite
     for quantum simulation of materials; please cite
         "P. Giannozzi et al., J. Phys.:Condens. Matter 21 395502 (2009);
         "P. Giannozzi et al., J. Phys.:Condens. Matter 29 465901 (2017);
         "P. Giannozzi et al., J. Chem. Phys. 152 154105 (2020);
          URL http://www.quantum-espresso.org", 
     in publications or presentations arising from this work. More details at
     http://www.quantum-espresso.org/quote

     Parallel version (MPI & OpenMP), running on       8 processor cores
     Number of MPI processes:                 8
     Threads/MPI process:                     1

     MPI processes distributed on     1 nodes
     7548 MiB available memory on the printing compute node when the environment starts
 
     Waiting for input...
     Reading input from standard input

     Current dimensions of program PWSCF are:
     Max number of different atomic species (ntypx) = 10
     Max number of k-points (npk) =  40000
     Max angular momentum in pseudopotentials (lmaxx) =  4

     Atomic positions and unit cell read from directory:
     ./tmp/SnSe_pnma.save/
 
 
     K-points division:     npool     =       4
     R & G space division:  proc/nbgrp/npool/nimage =       2
     Subspace diagonalization in iterative solution of the eigenvalue problem:
     a serial algorithm will be used

 
     Parallelization info
     --------------------
     sticks:   dense  smooth     PW     G-vecs:    dense   smooth      PW
     Min         814     320    101                65006    16415    2761
     Max         815     321    102                65007    16418    2762
     Sum        1629     641    203               130013    32833    5523
 
     Using Slab Decomposition
 


     bravais-lattice index     =            8
     lattice parameter (alat)  =       8.6086  a.u.
     unit-cell volume          =    1481.0643 (a.u.)^3
     number of atoms/cell      =            8
     number of atomic types    =            2
     number of electrons       =        80.00
     number of Kohn-Sham states=           70
     kinetic-energy cutoff     =      30.0000  Ry
     charge density cutoff     =     300.0000  Ry
     Exchange-correlation= SLA  PW   PBE  PBE
                           (   1   4   3   4   0   0   0)

     celldm(1)=   8.608647  celldm(2)=   0.915684  celldm(3)=   2.535265
     celldm(4)=   0.000000  celldm(5)=   0.000000  celldm(6)=   0.000000

     crystal axes: (cart. coord. in units of alat)
               a(1) = (   1.000000   0.000000   0.000000 )  
               a(2) = (   0.000000   0.915684   0.000000 )  
               a(3) = (   0.000000   0.000000   2.535265 )  

     reciprocal axes: (cart. coord. in units 2 pi/alat)
               b(1) = (  1.000000  0.000000  0.000000 )  
               b(2) = (  0.000000  1.092079  0.000000 )  
               b(3) = (  0.000000  0.000000  0.394436 )  


     PseudoPot. # 1 for Sn read from file:
     ../pseudo/Sn_pbe_v1.uspp.F.UPF
     MD5 check sum: 4cf58ce39ec5d5d420df3dd08604eb00
     Pseudo is Ultrasoft + core correction, Zval = 14.0
     Generated by new atomic code, or converted to UPF format
     Using radial grid of  891 points,  6 beta functions with: 
                l(1) =   0
                l(2) =   0
                l(3) =   1
                l(4) =   1
                l(5) =   2
                l(6) =   2
     Q(r) pseudized with  6 coefficients,  rinner =    1.200   1.200   1.200
                                                       1.200   1.200

     PseudoPot. # 2 for Se read from file:
     ../pseudo/Se_pbe_v1.uspp.F.UPF
     MD5 check sum: 1b3568f3a8ae88f9a2a0ad0698632c85
     Pseudo is Ultrasoft + core correction, Zval =  6.0
     Generated by new atomic code, or converted to UPF format
     Using radial grid of  877 points,  6 beta functions with: 
                l(1) =   0
                l(2) =   0
                l(3) =   1
                l(4) =   1
                l(5) =   2
                l(6) =   2
     Q(r) pseudized with  8 coefficients,  rinner =    1.300   1.300   1.300
                                                       1.300   1.300

     atomic species   valence    mass     pseudopotential
     Sn               14.00   118.71000     Sn( 1.00)
     Se                6.00    78.97100     Se( 1.00)

      8 Sym. Ops., with inversion, found ( 6 have fractional translation)


                                    s                        frac. trans.

      isym =  1     identity                                     

 cryst.   s( 1) = (     1          0          0      )
                  (     0          1          0      )
                  (     0          0          1      )

 cart.    s( 1) = (  1.0000000  0.0000000  0.0000000 )
                  (  0.0000000  1.0000000  0.0000000 )
                  (  0.0000000  0.0000000  1.0000000 )


      isym =  2     180 deg rotation - cart. axis [0,0,1]        

 cryst.   s( 2) = (    -1          0          0      )    f =(  0.5000000 )
                  (     0         -1          0      )       (  0.5000000 )
                  (     0          0          1      )       (  0.5000000 )

 cart.    s( 2) = ( -1.0000000  0.0000000  0.0000000 )    f =(  0.5000000 )
                  (  0.0000000 -1.0000000  0.0000000 )       (  0.4578422 )
                  (  0.0000000  0.0000000  1.0000000 )       (  1.2676325 )


      isym =  3     180 deg rotation - cart. axis [0,1,0]        

 cryst.   s( 3) = (    -1          0          0      )    f =( -0.0000000 )
                  (     0          1          0      )       (  0.5000000 )
                  (     0          0         -1      )       ( -0.0000000 )

 cart.    s( 3) = ( -1.0000000  0.0000000  0.0000000 )    f =( -0.0000000 )
                  (  0.0000000  1.0000000  0.0000000 )       (  0.4578422 )
                  (  0.0000000  0.0000000 -1.0000000 )       ( -0.0000000 )


      isym =  4     180 deg rotation - cart. axis [1,0,0]        

 cryst.   s( 4) = (     1          0          0      )    f =( -0.5000000 )
                  (     0         -1          0      )       ( -0.0000000 )
                  (     0          0         -1      )       (  0.5000000 )

 cart.    s( 4) = (  1.0000000  0.0000000  0.0000000 )    f =( -0.5000000 )
                  (  0.0000000 -1.0000000  0.0000000 )       ( -0.0000000 )
                  (  0.0000000  0.0000000 -1.0000000 )       (  1.2676325 )


      isym =  5     inversion                                    

 cryst.   s( 5) = (    -1          0          0      )
                  (     0         -1          0      )
                  (     0          0         -1      )

 cart.    s( 5) = ( -1.0000000  0.0000000  0.0000000 )
                  (  0.0000000 -1.0000000  0.0000000 )
                  (  0.0000000  0.0000000 -1.0000000 )


      isym =  6     inv. 180 deg rotation - cart. axis [0,0,1]   

 cryst.   s( 6) = (     1          0          0      )    f =( -0.5000000 )
                  (     0          1          0      )       (  0.5000000 )
                  (     0          0         -1      )       (  0.5000000 )

 cart.    s( 6) = (  1.0000000  0.0000000  0.0000000 )    f =( -0.5000000 )
                  (  0.0000000  1.0000000  0.0000000 )       (  0.4578422 )
                  (  0.0000000  0.0000000 -1.0000000 )       (  1.2676325 )


      isym =  7     inv. 180 deg rotation - cart. axis [0,1,0]   

 cryst.   s( 7) = (     1          0          0      )    f =(  0.0000000 )
                  (     0         -1          0      )       (  0.5000000 )
                  (     0          0          1      )       (  0.0000000 )

 cart.    s( 7) = (  1.0000000  0.0000000  0.0000000 )    f =(  0.0000000 )
                  (  0.0000000 -1.0000000  0.0000000 )       (  0.4578422 )
                  (  0.0000000  0.0000000  1.0000000 )       (  0.0000000 )


      isym =  8     inv. 180 deg rotation - cart. axis [1,0,0]   

 cryst.   s( 8) = (    -1          0          0      )    f =(  0.5000000 )
                  (     0          1          0      )       (  0.0000000 )
                  (     0          0          1      )       (  0.5000000 )

 cart.    s( 8) = ( -1.0000000  0.0000000  0.0000000 )    f =(  0.5000000 )
                  (  0.0000000  1.0000000  0.0000000 )       (  0.0000000 )
                  (  0.0000000  0.0000000  1.0000000 )       (  1.2676325 )


     point group D_2h (mmm) 
     there are  8 classes
     the character table:

       E     C2    C2'   C2''  i     s_v   s_v'  s_v''
A_g    1.00  1.00  1.00  1.00  1.00  1.00  1.00  1.00
B_1g   1.00  1.00 -1.00 -1.00  1.00  1.00 -1.00 -1.00
B_2g   1.00 -1.00  1.00 -1.00  1.00 -1.00  1.00 -1.00
B_3g   1.00 -1.00 -1.00  1.00  1.00 -1.00 -1.00  1.00
A_u    1.00  1.00  1.00  1.00 -1.00 -1.00 -1.00 -1.00
B_1u   1.00  1.00 -1.00 -1.00 -1.00 -1.00  1.00  1.00
B_2u   1.00 -1.00  1.00 -1.00 -1.00  1.00 -1.00  1.00
B_3u   1.00 -1.00 -1.00  1.00 -1.00  1.00  1.00 -1.00

     the symmetry operations in each class and the name of the first element:

     E        1
          identity                                               
     C2       2
          180 deg rotation - cart. axis [0,0,1]                  
     C2'      4
          180 deg rotation - cart. axis [1,0,0]                  
     C2''     3
          180 deg rotation - cart. axis [0,1,0]                  
     i        5
          inversion                                              
     s_v      6
          inv. 180 deg rotation - cart. axis [0,0,1]             
     s_v'     8
          inv. 180 deg rotation - cart. axis [1,0,0]             
     s_v''    7
          inv. 180 deg rotation - cart. axis [0,1,0]             

   Cartesian axes

     site n.     atom                  positions (alat units)
         1        Se     tau(   1) = (   0.4832481   0.6867633   2.1675410  )
         2        Sn     tau(   2) = (   0.1122870   0.6867633   0.2954585  )
         3        Se     tau(   3) = (   0.9832481   0.2289211   1.6353566  )
         4        Sn     tau(   4) = (   0.6122870   0.2289211   0.9721740  )
         5        Se     tau(   5) = (   0.0167519   0.6867633   0.8999084  )
         6        Sn     tau(   6) = (   0.3877130   0.6867633   1.5630911  )
         7        Se     tau(   7) = (   0.5167519   0.2289211   0.3677241  )
         8        Sn     tau(   8) = (   0.8877130   0.2289211   2.2398065  )

     --------------------------------------------
     DFT-D3 Dispersion Correction (3-body terms):
     --------------------------------------------
       Reference C6 values for interpolation: 

         atom   Coordination number   C6
         Se         0.000           427.35
         Se         0.990           427.57
         Se         1.981           421.05
         Sn         0.000          1255.14
         Sn         0.951          1084.09
         Sn         1.950          1010.83
         Sn         2.926           818.29
         Sn         3.912           672.20

       Values used:

         atom   Coordination number  R0_AB[au]  C6      C8
         Se         3.412            3.332    421.05  29958.36
         Sn         4.106            3.957    672.80  84444.47
         Se         3.412            3.332    421.05  29958.36
         Sn         4.106            3.957    672.80  84444.47
         Se         3.412            3.332    421.05  29958.36
         Sn         4.106            3.957    672.80  84444.47
         Se         3.412            3.332    421.05  29958.36
         Sn         4.106            3.957    672.80  84444.47

         Molecular C6 ( Ry / a.u.^6 ) =     34513.28


   Crystallographic axes

     site n.     atom                  positions (cryst. coord.)
         1        Se     tau(   1) = (  0.4832481  0.7500000  0.8549563  )
         2        Sn     tau(   2) = (  0.1122870  0.7500000  0.1165395  )
         3        Se     tau(   3) = (  0.9832481  0.2500000  0.6450437  )
         4        Sn     tau(   4) = (  0.6122870  0.2500000  0.3834605  )
         5        Se     tau(   5) = (  0.0167519  0.7500000  0.3549563  )
         6        Sn     tau(   6) = (  0.3877130  0.7500000  0.6165395  )
         7        Se     tau(   7) = (  0.5167519  0.2500000  0.1450437  )
         8        Sn     tau(   8) = (  0.8877130  0.2500000  0.8834605  )

     number of k points=    32 (tetrahedron method)
                       cart. coord. in units 2pi/alat
        k(    1) = (   0.0000000   0.0000000   0.0000000), wk =   0.0277778
        k(    2) = (   0.0000000   0.0000000  -0.1972180), wk =   0.0277778
        k(    3) = (   0.0000000   0.1820132   0.0000000), wk =   0.0555556
        k(    4) = (   0.0000000   0.1820132  -0.1972180), wk =   0.0555556
        k(    5) = (   0.0000000   0.3640265   0.0000000), wk =   0.0555556
        k(    6) = (   0.0000000   0.3640265  -0.1972180), wk =   0.0555556
        k(    7) = (   0.0000000  -0.5460397   0.0000000), wk =   0.0277778
        k(    8) = (   0.0000000  -0.5460397  -0.1972180), wk =   0.0277778
        k(    9) = (   0.1666667   0.0000000   0.0000000), wk =   0.0555556
        k(   10) = (   0.1666667   0.0000000  -0.1972180), wk =   0.0555556
        k(   11) = (   0.1666667   0.1820132   0.0000000), wk =   0.1111111
        k(   12) = (   0.1666667   0.1820132  -0.1972180), wk =   0.1111111
        k(   13) = (   0.1666667   0.3640265   0.0000000), wk =   0.1111111
        k(   14) = (   0.1666667   0.3640265  -0.1972180), wk =   0.1111111
        k(   15) = (   0.1666667  -0.5460397   0.0000000), wk =   0.0555556
        k(   16) = (   0.1666667  -0.5460397  -0.1972180), wk =   0.0555556
        k(   17) = (   0.3333333   0.0000000   0.0000000), wk =   0.0555556
        k(   18) = (   0.3333333   0.0000000  -0.1972180), wk =   0.0555556
        k(   19) = (   0.3333333   0.1820132   0.0000000), wk =   0.1111111
        k(   20) = (   0.3333333   0.1820132  -0.1972180), wk =   0.1111111
        k(   21) = (   0.3333333   0.3640265   0.0000000), wk =   0.1111111
        k(   22) = (   0.3333333   0.3640265  -0.1972180), wk =   0.1111111
        k(   23) = (   0.3333333  -0.5460397   0.0000000), wk =   0.0555556
        k(   24) = (   0.3333333  -0.5460397  -0.1972180), wk =   0.0555556
        k(   25) = (  -0.5000000   0.0000000   0.0000000), wk =   0.0277778
        k(   26) = (  -0.5000000   0.0000000  -0.1972180), wk =   0.0277778
        k(   27) = (  -0.5000000   0.1820132   0.0000000), wk =   0.0555556
        k(   28) = (  -0.5000000   0.1820132  -0.1972180), wk =   0.0555556
        k(   29) = (  -0.5000000   0.3640265   0.0000000), wk =   0.0555556
        k(   30) = (  -0.5000000   0.3640265  -0.1972180), wk =   0.0555556
        k(   31) = (  -0.5000000  -0.5460397   0.0000000), wk =   0.0277778
        k(   32) = (  -0.5000000  -0.5460397  -0.1972180), wk =   0.0277778

                       cryst. coord.
        k(    1) = (   0.0000000   0.0000000   0.0000000), wk =   0.0277778
        k(    2) = (   0.0000000   0.0000000  -0.5000000), wk =   0.0277778
        k(    3) = (   0.0000000   0.1666667   0.0000000), wk =   0.0555556
        k(    4) = (   0.0000000   0.1666667  -0.5000000), wk =   0.0555556
        k(    5) = (   0.0000000   0.3333333   0.0000000), wk =   0.0555556
        k(    6) = (   0.0000000   0.3333333  -0.5000000), wk =   0.0555556
        k(    7) = (   0.0000000  -0.5000000   0.0000000), wk =   0.0277778
        k(    8) = (   0.0000000  -0.5000000  -0.5000000), wk =   0.0277778
        k(    9) = (   0.1666667   0.0000000   0.0000000), wk =   0.0555556
        k(   10) = (   0.1666667   0.0000000  -0.5000000), wk =   0.0555556
        k(   11) = (   0.1666667   0.1666667   0.0000000), wk =   0.1111111
        k(   12) = (   0.1666667   0.1666667  -0.5000000), wk =   0.1111111
        k(   13) = (   0.1666667   0.3333333   0.0000000), wk =   0.1111111
        k(   14) = (   0.1666667   0.3333333  -0.5000000), wk =   0.1111111
        k(   15) = (   0.1666667  -0.5000000   0.0000000), wk =   0.0555556
        k(   16) = (   0.1666667  -0.5000000  -0.5000000), wk =   0.0555556
        k(   17) = (   0.3333333   0.0000000   0.0000000), wk =   0.0555556
        k(   18) = (   0.3333333   0.0000000  -0.5000000), wk =   0.0555556
        k(   19) = (   0.3333333   0.1666667   0.0000000), wk =   0.1111111
        k(   20) = (   0.3333333   0.1666667  -0.5000000), wk =   0.1111111
        k(   21) = (   0.3333333   0.3333333   0.0000000), wk =   0.1111111
        k(   22) = (   0.3333333   0.3333333  -0.5000000), wk =   0.1111111
        k(   23) = (   0.3333333  -0.5000000   0.0000000), wk =   0.0555556
        k(   24) = (   0.3333333  -0.5000000  -0.5000000), wk =   0.0555556
        k(   25) = (  -0.5000000   0.0000000   0.0000000), wk =   0.0277778
        k(   26) = (  -0.5000000   0.0000000  -0.5000000), wk =   0.0277778
        k(   27) = (  -0.5000000   0.1666667   0.0000000), wk =   0.0555556
        k(   28) = (  -0.5000000   0.1666667  -0.5000000), wk =   0.0555556
        k(   29) = (  -0.5000000   0.3333333   0.0000000), wk =   0.0555556
        k(   30) = (  -0.5000000   0.3333333  -0.5000000), wk =   0.0555556
        k(   31) = (  -0.5000000  -0.5000000   0.0000000), wk =   0.0277778
        k(   32) = (  -0.5000000  -0.5000000  -0.5000000), wk =   0.0277778

     Dense  grid:   130013 G-vectors     FFT dimensions: (  48,  48, 128)

     Smooth grid:    32833 G-vectors     FFT dimensions: (  32,  30,  80)

     Dynamical RAM for                 wfc:       2.19 MB

     Dynamical RAM for     wfc (w. buffer):       2.19 MB

     Dynamical RAM for           str. fact:       1.98 MB

     Dynamical RAM for           local pot:       0.00 MB

     Dynamical RAM for          nlocal pot:       4.52 MB

     Dynamical RAM for                qrad:       2.78 MB

     Dynamical RAM for          rho,v,vnew:       6.35 MB

     Dynamical RAM for           G-vectors:       3.84 MB

     Dynamical RAM for          h,s,v(r/c):       0.90 MB

     Dynamical RAM for          <psi|beta>:       0.15 MB

     Dynamical RAM for                 psi:       4.39 MB

     Dynamical RAM for                hpsi:       4.39 MB

     Dynamical RAM for                spsi:       4.39 MB

     Dynamical RAM for      wfcinit/wfcrot:       4.50 MB

     Dynamical RAM for           addusdens:      47.86 MB

     Estimated static dynamical RAM per process >      30.27 MB

     Estimated max dynamical RAM per process >      78.13 MB

     Estimated total dynamical RAM >     625.04 MB

     The potential is recalculated from file :
     ./tmp/SnSe_pnma.save/charge-density

     Starting wfcs are   52 randomized atomic wfcs +   18 random wfcs

     Band Structure Calculation
     Davidson diagonalization with overlap

     Computing kpt #:     1  of     8 on this pool
     total cpu time spent up to now is        6.2 secs

     Computing kpt #:     2  of     8 on this pool
     total cpu time spent up to now is        9.6 secs

     Computing kpt #:     3  of     8 on this pool
     total cpu time spent up to now is       14.1 secs

     Computing kpt #:     4  of     8 on this pool
     total cpu time spent up to now is       18.1 secs

     Computing kpt #:     5  of     8 on this pool
     total cpu time spent up to now is       22.5 secs

     Computing kpt #:     6  of     8 on this pool
     total cpu time spent up to now is       26.3 secs

     Computing kpt #:     7  of     8 on this pool
     total cpu time spent up to now is       30.2 secs

     Computing kpt #:     8  of     8 on this pool
     total cpu time spent up to now is       33.6 secs

     ethr =  1.25E-11,  avg # of iterations = 67.7

     total cpu time spent up to now is       33.6 secs

     End of band structure calculation

          k = 0.0000 0.0000 0.0000 (  4129 PWs)   bands (ev):

   -13.7590 -13.7478 -13.7458 -13.7415 -13.7404 -13.7377 -13.7343 -13.7332
   -13.7262 -13.7233 -13.7218 -13.7216 -13.7118 -13.7080 -13.6918 -13.6878
   -13.6844 -13.6815 -13.6747 -13.6681  -6.0326  -5.6990  -5.0731  -4.6158
     0.4122   1.4682   1.9732   2.5890   2.9238   4.3421   4.4184   4.4252
     4.6972   4.9083   5.4427   5.7917   6.1054   6.5556   6.8493   7.1459
     8.3724  10.2511  10.5145  10.5214  10.6921  10.9585  11.4753  12.0273
    12.1233  12.3152  12.9290  13.4278  13.6098  13.6963  13.9793  14.5855
    14.6265  15.5713  16.0153  16.1341  16.1366  16.1981  16.4602  16.6693
    17.1258  17.3369  17.8981  18.0006  18.1853  18.2964

     occupation numbers 
     1.0000   1.0000   1.0000   1.0000   1.0000   1.0000   1.0000   1.0000
     1.0000   1.0000   1.0000   1.0000   1.0000   1.0000   1.0000   1.0000
     1.0000   1.0000   1.0000   1.0000   1.0000   1.0000   1.0000   1.0000
     1.0000   1.0000   1.0000   1.0000   1.0000   1.0000   1.0000   1.0000
     1.0000   1.0000   1.0000   1.0000   1.0000   1.0000   1.0000   1.0000
     0.0000   0.0000   0.0000   0.0000   0.0000   0.0000   0.0000   0.0000
     0.0000   0.0000   0.0000   0.0000   0.0000   0.0000   0.0000   0.0000
     0.0000   0.0000   0.0000   0.0000   0.0000   0.0000   0.0000   0.0000
     0.0000   0.0000   0.0000   0.0000   0.0000   0.0000

          k = 0.0000 0.0000-0.1972 (  4114 PWs)   bands (ev):

   -13.7543 -13.7543 -13.7432 -13.7432 -13.7393 -13.7393 -13.7331 -13.7331
   -13.7243 -13.7243 -13.7219 -13.7219 -13.7101 -13.7101 -13.6897 -13.6897
   -13.6829 -13.6829 -13.6712 -13.6712  -5.9010  -5.9010  -4.8094  -4.8094
     0.7368   0.7368   2.4810   2.4810   3.5883   3.5883   4.5972   4.5972
     4.8644   4.8644   5.5466   5.5466   5.8387   5.8387   7.0508   7.0508
    10.0890  10.0890  10.1754  10.1754  11.2533  11.2533  11.3679  11.3679
    12.3284  12.3284  13.0114  13.0114  13.2118  13.2118  14.3056  14.3056
    15.2692  15.2692  15.5572  15.5572  16.0319  16.0319  16.5239  16.5239
    17.6916  17.6916  17.7578  17.7578  18.3115  18.3115

     occupation numbers 
     1.0000   1.0000   1.0000   1.0000   1.0000   1.0000   1.0000   1.0000
     1.0000   1.0000   1.0000   1.0000   1.0000   1.0000   1.0000   1.0000
     1.0000   1.0000   1.0000   1.0000   1.0000   1.0000   1.0000   1.0000
     1.0000   1.0000   1.0000   1.0000   1.0000   1.0000   1.0000   1.0000
     1.0000   1.0000   1.0000   1.0000   1.0000   1.0000   1.0000   1.0000
     0.0000   0.0000   0.0000   0.0000   0.0000   0.0000   0.0000   0.0000
     0.0000   0.0000   0.0000   0.0000   0.0000   0.0000   0.0000   0.0000
     0.0000   0.0000   0.0000   0.0000   0.0000   0.0000   0.0000   0.0000
     0.0000   0.0000   0.0000   0.0000   0.0000   0.0000

          k = 0.0000 0.1820 0.0000 (  4114 PWs)   bands (ev):

   -13.7535 -13.7462 -13.7427 -13.7409 -13.7392 -13.7387 -13.7379 -13.7350
   -13.7284 -13.7245 -13.7224 -13.7185 -13.7090 -13.7089 -13.6897 -13.6891
   -13.6850 -13.6826 -13.6743 -13.6693  -5.8878  -5.5767  -5.0046  -4.6109
     0.2473   1.1349   1.8087   1.9209   2.9755   4.2788   4.5266   4.7886
     4.7986   4.8470   5.6938   5.8745   5.9854   6.8773   6.9209   7.0131
     8.5719   9.4044  10.2773  10.6016  10.6360  10.8720  11.2595  11.3042
    11.7710  12.4452  12.6110  12.7860  13.1400  13.3753  14.1206  14.1302
    14.4213  15.6670  16.1397  16.1574  16.8775  17.0471  17.1524  17.5604
    17.6473  17.9954  18.2702  18.5511  18.7687  18.9210

     occupation numbers 
     1.0000   1.0000   1.0000   1.0000   1.0000   1.0000   1.0000   1.0000
     1.0000   1.0000   1.0000   1.0000   1.0000   1.0000   1.0000   1.0000
     1.0000   1.0000   1.0000   1.0000   1.0000   1.0000   1.0000   1.0000
     1.0000   1.0000   1.0000   1.0000   1.0000   1.0000   1.0000   1.0000
     1.0000   1.0000   1.0000   1.0000   1.0000   1.0000   1.0000   1.0000
     0.0000   0.0000   0.0000   0.0000   0.0000   0.0000   0.0000   0.0000
     0.0000   0.0000   0.0000   0.0000   0.0000   0.0000   0.0000   0.0000
     0.0000   0.0000   0.0000   0.0000   0.0000   0.0000   0.0000   0.0000
     0.0000   0.0000   0.0000   0.0000   0.0000   0.0000

          k = 0.0000 0.1820-0.1972 (  4102 PWs)   bands (ev):

   -13.7500 -13.7500 -13.7417 -13.7417 -13.7399 -13.7399 -13.7357 -13.7357
   -13.7266 -13.7266 -13.7200 -13.7200 -13.7092 -13.7092 -13.6890 -13.6890
   -13.6841 -13.6841 -13.6716 -13.6716  -5.7643  -5.7643  -4.7752  -4.7752
     0.5524   0.5524   1.9606   1.9606   3.7354   3.7354   4.5040   4.5040
     5.1412   5.1412   5.6517   5.6517   5.8902   5.8902   7.1172   7.1172
     9.7879   9.7879  10.2825  10.2825  10.7443  10.7443  11.0691  11.0691
    12.2283  12.2283  12.5162  12.5162  13.0997  13.0997  13.9531  13.9531
    14.6692  14.6692  16.1688  16.1688  17.2857  17.2857  17.5313  17.5313
    18.1744  18.1744  18.4769  18.4769  19.3244  19.3244

     occupation numbers 
     1.0000   1.0000   1.0000   1.0000   1.0000   1.0000   1.0000   1.0000
     1.0000   1.0000   1.0000   1.0000   1.0000   1.0000   1.0000   1.0000
     1.0000   1.0000   1.0000   1.0000   1.0000   1.0000   1.0000   1.0000
     1.0000   1.0000   1.0000   1.0000   1.0000   1.0000   1.0000   1.0000
     1.0000   1.0000   1.0000   1.0000   1.0000   1.0000   1.0000   1.0000
     0.0000   0.0000   0.0000   0.0000   0.0000   0.0000   0.0000   0.0000
     0.0000   0.0000   0.0000   0.0000   0.0000   0.0000   0.0000   0.0000
     0.0000   0.0000   0.0000   0.0000   0.0000   0.0000   0.0000   0.0000
     0.0000   0.0000   0.0000   0.0000   0.0000   0.0000

          k = 0.0000 0.3640 0.0000 (  4106 PWs)   bands (ev):

   -13.7493 -13.7466 -13.7454 -13.7449 -13.7381 -13.7344 -13.7341 -13.7315
   -13.7278 -13.7276 -13.7226 -13.7127 -13.7117 -13.7044 -13.6946 -13.6941
   -13.6829 -13.6784 -13.6732 -13.6717  -5.4986  -5.2692  -4.8944  -4.6942
    -0.0552   0.6249   0.7889   1.2001   3.4135   4.5310   4.9320   4.9827
     5.0594   5.2016   5.8116   6.0443   6.2118   6.7026   6.8244   7.2909
     8.1253   8.9722   9.3267   9.3301   9.7083  10.0885  10.3276  10.9630
    11.3726  11.7402  12.0908  12.5705  13.9639  14.5794  14.6807  14.9255
    15.6187  15.8000  15.8342  16.2540  16.9120  16.9459  17.4640  18.0921
    19.0343  19.3752  19.5069  19.5338  20.1658  20.1719

     occupation numbers 
     1.0000   1.0000   1.0000   1.0000   1.0000   1.0000   1.0000   1.0000
     1.0000   1.0000   1.0000   1.0000   1.0000   1.0000   1.0000   1.0000
     1.0000   1.0000   1.0000   1.0000   1.0000   1.0000   1.0000   1.0000
     1.0000   1.0000   1.0000   1.0000   1.0000   1.0000   1.0000   1.0000
     1.0000   1.0000   1.0000   1.0000   1.0000   1.0000   1.0000   1.0000
     0.0000   0.0000   0.0000   0.0000   0.0000   0.0000   0.0000   0.0000
     0.0000   0.0000   0.0000   0.0000   0.0000   0.0000   0.0000   0.0000
     0.0000   0.0000   0.0000   0.0000   0.0000   0.0000   0.0000   0.0000
     0.0000   0.0000   0.0000   0.0000   0.0000   0.0000

          k = 0.0000 0.3640-0.1972 (  4120 PWs)   bands (ev):

   -13.7487 -13.7487 -13.7443 -13.7443 -13.7358 -13.7358 -13.7342 -13.7342
   -13.7274 -13.7274 -13.7186 -13.7186 -13.7067 -13.7067 -13.6945 -13.6945
   -13.6806 -13.6806 -13.6724 -13.6724  -5.4051  -5.4051  -4.7724  -4.7724
     0.2197   0.2197   0.9954   0.9954   4.2001   4.2001   4.7539   4.7539
     5.5056   5.5056   5.7094   5.7094   6.0167   6.0167   7.0323   7.0323
     8.7297   8.7297   9.6320   9.6320  10.3594  10.3594  10.7427  10.7427
    11.0820  11.0820  11.7677  11.7677  14.4184  14.4184  14.8644  14.8644
    15.5482  15.5482  16.6801  16.6801  17.0696  17.0696  17.6532  17.6532
    18.4284  18.4284  19.3085  19.3085  20.2280  20.2280

     occupation numbers 
     1.0000   1.0000   1.0000   1.0000   1.0000   1.0000   1.0000   1.0000
     1.0000   1.0000   1.0000   1.0000   1.0000   1.0000   1.0000   1.0000
     1.0000   1.0000   1.0000   1.0000   1.0000   1.0000   1.0000   1.0000
     1.0000   1.0000   1.0000   1.0000   1.0000   1.0000   1.0000   1.0000
     1.0000   1.0000   1.0000   1.0000   1.0000   1.0000   1.0000   1.0000
     0.0000   0.0000   0.0000   0.0000   0.0000   0.0000   0.0000   0.0000
     0.0000   0.0000   0.0000   0.0000   0.0000   0.0000   0.0000   0.0000
     0.0000   0.0000   0.0000   0.0000   0.0000   0.0000   0.0000   0.0000
     0.0000   0.0000   0.0000   0.0000   0.0000   0.0000

          k = 0.0000-0.5460 0.0000 (  4146 PWs)   bands (ev):

   -13.7504 -13.7504 -13.7473 -13.7473 -13.7338 -13.7338 -13.7303 -13.7303
   -13.7249 -13.7249 -13.7201 -13.7201 -13.7037 -13.7037 -13.6997 -13.6997
   -13.6762 -13.6762 -13.6744 -13.6744  -5.0198  -5.0198  -4.9669  -4.9669
     0.0320   0.0320   0.6317   0.6317   4.1665   4.1665   5.3047   5.3047
     5.3603   5.3603   5.8783   5.8783   6.6130   6.6130   6.6424   6.6424
     8.6814   8.6814   8.8264   8.8264   9.4124   9.4124  10.1760  10.1760
    10.8746  10.8746  12.4181  12.4181  14.8712  14.8712  14.9038  14.9038
    16.7053  16.7053  17.1307  17.1307  17.6258  17.6258  18.4568  18.4568
    18.7621  18.7621  19.1319  19.1319  19.3168  19.3168

     occupation numbers 
     1.0000   1.0000   1.0000   1.0000   1.0000   1.0000   1.0000   1.0000
     1.0000   1.0000   1.0000   1.0000   1.0000   1.0000   1.0000   1.0000
     1.0000   1.0000   1.0000   1.0000   1.0000   1.0000   1.0000   1.0000
     1.0000   1.0000   1.0000   1.0000   1.0000   1.0000   1.0000   1.0000
     1.0000   1.0000   1.0000   1.0000   1.0000   1.0000   1.0000   1.0000
     0.0000   0.0000   0.0000   0.0000   0.0000   0.0000   0.0000   0.0000
     0.0000   0.0000   0.0000   0.0000   0.0000   0.0000   0.0000   0.0000
     0.0000   0.0000   0.0000   0.0000   0.0000   0.0000   0.0000   0.0000
     0.0000   0.0000   0.0000   0.0000   0.0000   0.0000

          k = 0.0000-0.5460-0.1972 (  4116 PWs)   bands (ev):

   -13.7490 -13.7490 -13.7490 -13.7490 -13.7323 -13.7323 -13.7323 -13.7323
   -13.7221 -13.7221 -13.7221 -13.7221 -13.7016 -13.7016 -13.7016 -13.7016
   -13.6753 -13.6753 -13.6753 -13.6753  -4.9938  -4.9938  -4.9938  -4.9938
     0.3008   0.3008   0.3008   0.3008   4.8668   4.8668   4.8668   4.8668
     5.5038   5.5038   5.5038   5.5038   6.4664   6.4664   6.4664   6.4664
     9.0222   9.0222   9.0222   9.0222   9.8280   9.8280   9.8280   9.8280
    11.3180  11.3180  11.3180  11.3180  15.6378  15.6378  15.6378  15.6378
    16.3168  16.3168  16.3168  16.3168  17.5643  17.5643  17.5643  17.5643
    19.0236  19.0236  19.0236  19.0236  20.3966  20.3966

     occupation numbers 
     1.0000   1.0000   1.0000   1.0000   1.0000   1.0000   1.0000   1.0000
     1.0000   1.0000   1.0000   1.0000   1.0000   1.0000   1.0000   1.0000
     1.0000   1.0000   1.0000   1.0000   1.0000   1.0000   1.0000   1.0000
     1.0000   1.0000   1.0000   1.0000   1.0000   1.0000   1.0000   1.0000
     1.0000   1.0000   1.0000   1.0000   1.0000   1.0000   1.0000   1.0000
     0.0000   0.0000   0.0000   0.0000   0.0000   0.0000   0.0000   0.0000
     0.0000   0.0000   0.0000   0.0000   0.0000   0.0000   0.0000   0.0000
     0.0000   0.0000   0.0000   0.0000   0.0000   0.0000   0.0000   0.0000
     0.0000   0.0000   0.0000   0.0000   0.0000   0.0000

          k = 0.1667 0.0000 0.0000 (  4103 PWs)   bands (ev):

   -13.7577 -13.7470 -13.7462 -13.7414 -13.7413 -13.7390 -13.7345 -13.7332
   -13.7262 -13.7219 -13.7215 -13.7192 -13.7110 -13.7082 -13.6919 -13.6872
   -13.6853 -13.6820 -13.6743 -13.6685  -5.9283  -5.6039  -5.0654  -4.6464
     0.0762   1.2820   1.4010   2.2223   2.9380   4.4483   4.5791   4.9807
     5.0502   5.3344   5.5377   6.0415   6.1420   6.5601   6.9704   7.1487
     8.4668   9.4698  10.3275  10.3491  10.5018  10.7898  11.3765  11.6320
    11.7446  12.2029  12.7047  12.8081  13.1437  13.9499  13.9789  14.5991
    14.9247  15.4923  15.7477  16.4360  16.5385  17.0234  17.2570  17.6604
    17.6623  17.9434  17.9745  18.2160  18.4571  18.7378

     occupation numbers 
     1.0000   1.0000   1.0000   1.0000   1.0000   1.0000   1.0000   1.0000
     1.0000   1.0000   1.0000   1.0000   1.0000   1.0000   1.0000   1.0000
     1.0000   1.0000   1.0000   1.0000   1.0000   1.0000   1.0000   1.0000
     1.0000   1.0000   1.0000   1.0000   1.0000   1.0000   1.0000   1.0000
     1.0000   1.0000   1.0000   1.0000   1.0000   1.0000   1.0000   1.0000
     0.0000   0.0000   0.0000   0.0000   0.0000   0.0000   0.0000   0.0000
     0.0000   0.0000   0.0000   0.0000   0.0000   0.0000   0.0000   0.0000
     0.0000   0.0000   0.0000   0.0000   0.0000   0.0000   0.0000   0.0000
     0.0000   0.0000   0.0000   0.0000   0.0000   0.0000

          k = 0.1667 0.0000-0.1972 (  4092 PWs)   bands (ev):

   -13.7535 -13.7535 -13.7429 -13.7429 -13.7403 -13.7403 -13.7336 -13.7336
   -13.7243 -13.7243 -13.7198 -13.7198 -13.7099 -13.7099 -13.6897 -13.6897
   -13.6833 -13.6833 -13.6712 -13.6712  -5.8016  -5.8016  -4.8204  -4.8204
     0.4338   0.4338   1.9914   1.9914   3.8202   3.8202   4.7510   4.7510
     5.1133   5.1133   5.9029   5.9029   6.0729   6.0729   6.9375   6.9375
     9.7483   9.7483  10.3917  10.3917  10.6498  10.6498  10.9754  10.9754
    12.3202  12.3202  12.4072  12.4072  13.2533  13.2533  14.3714  14.3714
    15.3538  15.3538  15.5686  15.5686  16.9308  16.9308  17.4120  17.4120
    18.1605  18.1605  18.5632  18.5632  18.8673  18.8673

     occupation numbers 
     1.0000   1.0000   1.0000   1.0000   1.0000   1.0000   1.0000   1.0000
     1.0000   1.0000   1.0000   1.0000   1.0000   1.0000   1.0000   1.0000
     1.0000   1.0000   1.0000   1.0000   1.0000   1.0000   1.0000   1.0000
     1.0000   1.0000   1.0000   1.0000   1.0000   1.0000   1.0000   1.0000
     1.0000   1.0000   1.0000   1.0000   1.0000   1.0000   1.0000   1.0000
     0.0000   0.0000   0.0000   0.0000   0.0000   0.0000   0.0000   0.0000
     0.0000   0.0000   0.0000   0.0000   0.0000   0.0000   0.0000   0.0000
     0.0000   0.0000   0.0000   0.0000   0.0000   0.0000   0.0000   0.0000
     0.0000   0.0000   0.0000   0.0000   0.0000   0.0000

          k = 0.1667 0.1820 0.0000 (  4109 PWs)   bands (ev):

   -13.7530 -13.7460 -13.7441 -13.7412 -13.7393 -13.7391 -13.7377 -13.7358
   -13.7287 -13.7247 -13.7200 -13.7164 -13.7099 -13.7076 -13.6900 -13.6884
   -13.6852 -13.6834 -13.6739 -13.6696  -5.7879  -5.4867  -4.9957  -4.6335
     0.0591   1.1179   1.3352   1.8540   3.0713   3.7912   4.0520   4.9191
     5.1565   5.4579   5.6118   5.8908   6.5006   6.6614   7.1144   7.1404
     8.6566   9.1876   9.6733   9.7330  10.5909  10.7247  11.3785  11.4804
    12.0129  12.2671  12.2934  13.1549  13.4362  14.1783  14.4791  14.5434
    14.9491  15.8002  15.8074  16.1718  16.2494  16.6365  17.2167  17.2234
    17.6859  18.4247  18.7687  18.9710  19.2961  19.6507

     occupation numbers 
     1.0000   1.0000   1.0000   1.0000   1.0000   1.0000   1.0000   1.0000
     1.0000   1.0000   1.0000   1.0000   1.0000   1.0000   1.0000   1.0000
     1.0000   1.0000   1.0000   1.0000   1.0000   1.0000   1.0000   1.0000
     1.0000   1.0000   1.0000   1.0000   1.0000   1.0000   1.0000   1.0000
     1.0000   1.0000   1.0000   1.0000   1.0000   1.0000   1.0000   1.0000
     0.0000   0.0000   0.0000   0.0000   0.0000   0.0000   0.0000   0.0000
     0.0000   0.0000   0.0000   0.0000   0.0000   0.0000   0.0000   0.0000
     0.0000   0.0000   0.0000   0.0000   0.0000   0.0000   0.0000   0.0000
     0.0000   0.0000   0.0000   0.0000   0.0000   0.0000

          k = 0.1667 0.1820-0.1972 (  4110 PWs)   bands (ev):

   -13.7497 -13.7497 -13.7429 -13.7429 -13.7395 -13.7395 -13.7363 -13.7363
   -13.7265 -13.7265 -13.7181 -13.7181 -13.7089 -13.7089 -13.6888 -13.6888
   -13.6847 -13.6847 -13.6716 -13.6716  -5.6695  -5.6695  -4.7820  -4.7820
     0.4017   0.4017   1.7173   1.7173   3.7622   3.7622   4.2921   4.2921
     5.0580   5.0580   5.8160   5.8160   6.5238   6.5238   7.0599   7.0599
     9.2263   9.2263  10.1880  10.1880  10.5996  10.5996  11.0922  11.0922
    11.9436  11.9436  12.4668  12.4668  13.8839  13.8839  14.4566  14.4566
    15.2009  15.2009  16.2112  16.2112  16.8796  16.8796  17.1601  17.1601
    17.9456  17.9456  18.8667  18.8667  19.2225  19.2225

     occupation numbers 
     1.0000   1.0000   1.0000   1.0000   1.0000   1.0000   1.0000   1.0000
     1.0000   1.0000   1.0000   1.0000   1.0000   1.0000   1.0000   1.0000
     1.0000   1.0000   1.0000   1.0000   1.0000   1.0000   1.0000   1.0000
     1.0000   1.0000   1.0000   1.0000   1.0000   1.0000   1.0000   1.0000
     1.0000   1.0000   1.0000   1.0000   1.0000   1.0000   1.0000   1.0000
     0.0000   0.0000   0.0000   0.0000   0.0000   0.0000   0.0000   0.0000
     0.0000   0.0000   0.0000   0.0000   0.0000   0.0000   0.0000   0.0000
     0.0000   0.0000   0.0000   0.0000   0.0000   0.0000   0.0000   0.0000
     0.0000   0.0000   0.0000   0.0000   0.0000   0.0000

          k = 0.1667 0.3640 0.0000 (  4113 PWs)   bands (ev):

   -13.7519 -13.7487 -13.7465 -13.7452 -13.7388 -13.7339 -13.7333 -13.7316
   -13.7276 -13.7275 -13.7206 -13.7127 -13.7103 -13.7040 -13.6940 -13.6935
   -13.6830 -13.6791 -13.6731 -13.6716  -5.4151  -5.1965  -4.8772  -4.6887
     0.0016   0.7470   0.8386   1.1425   3.5404   3.5828   3.9924   4.6282
     5.0900   5.4208   5.6771   5.9686   6.1256   6.6168   6.7869   6.8285
     8.5569   9.0710   9.0908   9.4951  10.3296  10.8444  10.9999  11.3929
    11.8087  11.9867  12.6391  12.6662  13.5375  14.3578  15.0545  15.0880
    15.5268  15.5829  16.1187  16.5118  16.9346  17.4999  18.0422  18.1586
    18.7181  18.8471  19.1221  19.3926  20.1291  20.3008

     occupation numbers 
     1.0000   1.0000   1.0000   1.0000   1.0000   1.0000   1.0000   1.0000
     1.0000   1.0000   1.0000   1.0000   1.0000   1.0000   1.0000   1.0000
     1.0000   1.0000   1.0000   1.0000   1.0000   1.0000   1.0000   1.0000
     1.0000   1.0000   1.0000   1.0000   1.0000   1.0000   1.0000   1.0000
     1.0000   1.0000   1.0000   1.0000   1.0000   1.0000   1.0000   1.0000
     0.0000   0.0000   0.0000   0.0000   0.0000   0.0000   0.0000   0.0000
     0.0000   0.0000   0.0000   0.0000   0.0000   0.0000   0.0000   0.0000
     0.0000   0.0000   0.0000   0.0000   0.0000   0.0000   0.0000   0.0000
     0.0000   0.0000   0.0000   0.0000   0.0000   0.0000

          k = 0.1667 0.3640-0.1972 (  4132 PWs)   bands (ev):

   -13.7504 -13.7504 -13.7460 -13.7460 -13.7359 -13.7359 -13.7334 -13.7334
   -13.7268 -13.7268 -13.7178 -13.7178 -13.7059 -13.7059 -13.6941 -13.6941
   -13.6808 -13.6808 -13.6723 -13.6723  -5.3268  -5.3268  -4.7615  -4.7615
     0.2934   0.2934   1.0151   1.0151   3.7247   3.7247   4.4780   4.4780
     4.9558   4.9558   5.8509   5.8509   6.1008   6.1008   6.8282   6.8282
     9.2002   9.2002   9.5515   9.5515  10.5787  10.5787  10.9483  10.9483
    11.5288  11.5288  12.4539  12.4539  14.4678  14.4678  15.2744  15.2744
    15.6768  15.6768  15.9531  15.9531  17.0516  17.0516  18.2808  18.2808
    18.5761  18.5761  19.5119  19.5119  20.0339  20.0339

     occupation numbers 
     1.0000   1.0000   1.0000   1.0000   1.0000   1.0000   1.0000   1.0000
     1.0000   1.0000   1.0000   1.0000   1.0000   1.0000   1.0000   1.0000
     1.0000   1.0000   1.0000   1.0000   1.0000   1.0000   1.0000   1.0000
     1.0000   1.0000   1.0000   1.0000   1.0000   1.0000   1.0000   1.0000
     1.0000   1.0000   1.0000   1.0000   1.0000   1.0000   1.0000   1.0000
     0.0000   0.0000   0.0000   0.0000   0.0000   0.0000   0.0000   0.0000
     0.0000   0.0000   0.0000   0.0000   0.0000   0.0000   0.0000   0.0000
     0.0000   0.0000   0.0000   0.0000   0.0000   0.0000   0.0000   0.0000
     0.0000   0.0000   0.0000   0.0000   0.0000   0.0000

          k = 0.1667-0.5460 0.0000 (  4124 PWs)   bands (ev):

   -13.7528 -13.7528 -13.7490 -13.7490 -13.7341 -13.7341 -13.7292 -13.7292
   -13.7247 -13.7247 -13.7191 -13.7191 -13.7037 -13.7037 -13.6981 -13.6981
   -13.6768 -13.6768 -13.6739 -13.6739  -4.9709  -4.9709  -4.9243  -4.9243
     0.1750   0.1750   0.7153   0.7153   3.9939   3.9939   4.3461   4.3461
     4.9274   4.9274   5.7072   5.7072   6.0347   6.0347   6.8868   6.8868
     8.4241   8.4241   9.6534   9.6534  10.4934  10.4934  11.0987  11.0987
    11.6628  11.6628  12.1389  12.1389  13.6758  13.6758  15.6608  15.6608
    16.8377  16.8377  17.2024  17.2024  17.5621  17.5621  18.7617  18.7617
    18.9772  18.9772  19.2974  19.2974  19.8002  19.8002

     occupation numbers 
     1.0000   1.0000   1.0000   1.0000   1.0000   1.0000   1.0000   1.0000
     1.0000   1.0000   1.0000   1.0000   1.0000   1.0000   1.0000   1.0000
     1.0000   1.0000   1.0000   1.0000   1.0000   1.0000   1.0000   1.0000
     1.0000   1.0000   1.0000   1.0000   1.0000   1.0000   1.0000   1.0000
     1.0000   1.0000   1.0000   1.0000   1.0000   1.0000   1.0000   1.0000
     0.0000   0.0000   0.0000   0.0000   0.0000   0.0000   0.0000   0.0000
     0.0000   0.0000   0.0000   0.0000   0.0000   0.0000   0.0000   0.0000
     0.0000   0.0000   0.0000   0.0000   0.0000   0.0000   0.0000   0.0000
     0.0000   0.0000   0.0000   0.0000   0.0000   0.0000

          k = 0.1667-0.5460-0.1972 (  4132 PWs)   bands (ev):

   -13.7510 -13.7510 -13.7510 -13.7510 -13.7321 -13.7321 -13.7321 -13.7321
   -13.7216 -13.7216 -13.7216 -13.7216 -13.7008 -13.7008 -13.7008 -13.7008
   -13.6753 -13.6753 -13.6753 -13.6753  -4.9479  -4.9479  -4.9479  -4.9479
     0.4193   0.4193   0.4193   0.4193   4.2796   4.2796   4.2796   4.2796
     5.2247   5.2247   5.2247   5.2247   6.2872   6.2872   6.2872   6.2872
     9.3594   9.3594   9.3594   9.3594  10.7586  10.7586  10.7586  10.7586
    11.5683  11.5683  11.5683  11.5683  14.9135  14.9135  14.9135  14.9135
    17.0465  17.0465  17.0465  17.0465  18.0915  18.0915  18.0915  18.0915
    18.9539  18.9539  18.9539  18.9539  20.0882  20.0882

     occupation numbers 
     1.0000   1.0000   1.0000   1.0000   1.0000   1.0000   1.0000   1.0000
     1.0000   1.0000   1.0000   1.0000   1.0000   1.0000   1.0000   1.0000
     1.0000   1.0000   1.0000   1.0000   1.0000   1.0000   1.0000   1.0000
     1.0000   1.0000   1.0000   1.0000   1.0000   1.0000   1.0000   1.0000
     1.0000   1.0000   1.0000   1.0000   1.0000   1.0000   1.0000   1.0000
     0.0000   0.0000   0.0000   0.0000   0.0000   0.0000   0.0000   0.0000
     0.0000   0.0000   0.0000   0.0000   0.0000   0.0000   0.0000   0.0000
     0.0000   0.0000   0.0000   0.0000   0.0000   0.0000   0.0000   0.0000
     0.0000   0.0000   0.0000   0.0000   0.0000   0.0000

          k = 0.3333 0.0000 0.0000 (  4101 PWs)   bands (ev):

   -13.7543 -13.7476 -13.7451 -13.7431 -13.7418 -13.7416 -13.7349 -13.7337
   -13.7258 -13.7230 -13.7169 -13.7142 -13.7104 -13.7086 -13.6916 -13.6875
   -13.6857 -13.6830 -13.6731 -13.6698  -5.6517  -5.3497  -5.1109  -4.7729
    -0.3527   0.3889   0.9932   1.5650   3.3199   4.6518   5.0134   5.4255
     5.6887   5.7068   5.9123   6.1290   6.3761   6.9992   7.0212   7.5626
     8.5038   9.0377   9.1579   9.4687   9.8754  10.1946  10.5056  10.9297
    11.3678  11.7079  12.5289  13.0956  13.7488  14.3808  14.9269  15.1756
    15.1813  15.4813  16.0052  16.3153  16.7417  17.2729  18.0104  18.1034
    18.5214  18.7905  19.1235  19.2541  20.0168  20.1747

     occupation numbers 
     1.0000   1.0000   1.0000   1.0000   1.0000   1.0000   1.0000   1.0000
     1.0000   1.0000   1.0000   1.0000   1.0000   1.0000   1.0000   1.0000
     1.0000   1.0000   1.0000   1.0000   1.0000   1.0000   1.0000   1.0000
     1.0000   1.0000   1.0000   1.0000   1.0000   1.0000   1.0000   1.0000
     1.0000   1.0000   1.0000   1.0000   1.0000   1.0000   1.0000   1.0000
     0.0000   0.0000   0.0000   0.0000   0.0000   0.0000   0.0000   0.0000
     0.0000   0.0000   0.0000   0.0000   0.0000   0.0000   0.0000   0.0000
     0.0000   0.0000   0.0000   0.0000   0.0000   0.0000   0.0000   0.0000
     0.0000   0.0000   0.0000   0.0000   0.0000   0.0000

          k = 0.3333 0.0000-0.1972 (  4106 PWs)   bands (ev):

   -13.7515 -13.7515 -13.7429 -13.7429 -13.7421 -13.7421 -13.7349 -13.7349
   -13.7241 -13.7241 -13.7153 -13.7153 -13.7097 -13.7097 -13.6897 -13.6897
   -13.6841 -13.6841 -13.6714 -13.6714  -5.5430  -5.5430  -4.9001  -4.9001
    -0.0352  -0.0352   1.2402   1.2402   4.2768   4.2768   5.1590   5.1590
     5.5057   5.5057   5.9683   5.9683   6.4916   6.4916   7.2493   7.2493
     9.0815   9.0815   9.7664   9.7664   9.8748   9.8748  10.8353  10.8353
    11.3469  11.3469  12.4169  12.4169  13.9183  13.9183  15.1535  15.1535
    15.8082  15.8082  16.0303  16.0303  17.4036  17.4036  17.5731  17.5731
    18.0244  18.0244  19.4825  19.4825  19.5712  19.5712

     occupation numbers 
     1.0000   1.0000   1.0000   1.0000   1.0000   1.0000   1.0000   1.0000
     1.0000   1.0000   1.0000   1.0000   1.0000   1.0000   1.0000   1.0000
     1.0000   1.0000   1.0000   1.0000   1.0000   1.0000   1.0000   1.0000
     1.0000   1.0000   1.0000   1.0000   1.0000   1.0000   1.0000   1.0000
     1.0000   1.0000   1.0000   1.0000   1.0000   1.0000   1.0000   1.0000
     0.0000   0.0000   0.0000   0.0000   0.0000   0.0000   0.0000   0.0000
     0.0000   0.0000   0.0000   0.0000   0.0000   0.0000   0.0000   0.0000
     0.0000   0.0000   0.0000   0.0000   0.0000   0.0000   0.0000   0.0000
     0.0000   0.0000   0.0000   0.0000   0.0000   0.0000

          k = 0.3333 0.1820 0.0000 (  4101 PWs)   bands (ev):

   -13.7517 -13.7472 -13.7454 -13.7422 -13.7401 -13.7391 -13.7381 -13.7375
   -13.7278 -13.7254 -13.7157 -13.7118 -13.7103 -13.7067 -13.6895 -13.6872
   -13.6861 -13.6850 -13.6730 -13.6705  -5.5259  -5.2490  -5.0324  -4.7357
    -0.2122   0.4992   1.0525   1.5049   3.4709   3.7820   4.0110   4.8671
     4.9916   5.3579   5.8229   6.1937   6.5829   6.7556   6.9712   7.1314
     8.6928   9.1271   9.4202   9.7451  10.3202  10.6236  10.8149  11.6785
    12.0123  12.3059  12.4989  13.1040  13.5682  14.5413  14.5717  15.0243
    15.5302  15.9133  15.9834  16.7812  17.1897  17.4492  17.8398  17.9742
    18.4740  18.6092  18.8315  18.9803  19.6000  19.8134

     occupation numbers 
     1.0000   1.0000   1.0000   1.0000   1.0000   1.0000   1.0000   1.0000
     1.0000   1.0000   1.0000   1.0000   1.0000   1.0000   1.0000   1.0000
     1.0000   1.0000   1.0000   1.0000   1.0000   1.0000   1.0000   1.0000
     1.0000   1.0000   1.0000   1.0000   1.0000   1.0000   1.0000   1.0000
     1.0000   1.0000   1.0000   1.0000   1.0000   1.0000   1.0000   1.0000
     0.0000   0.0000   0.0000   0.0000   0.0000   0.0000   0.0000   0.0000
     0.0000   0.0000   0.0000   0.0000   0.0000   0.0000   0.0000   0.0000
     0.0000   0.0000   0.0000   0.0000   0.0000   0.0000   0.0000   0.0000
     0.0000   0.0000   0.0000   0.0000   0.0000   0.0000

          k = 0.3333 0.1820-0.1972 (  4096 PWs)   bands (ev):

   -13.7491 -13.7491 -13.7454 -13.7454 -13.7389 -13.7389 -13.7373 -13.7373
   -13.7262 -13.7262 -13.7145 -13.7145 -13.7081 -13.7081 -13.6882 -13.6882
   -13.6860 -13.6860 -13.6714 -13.6714  -5.4255  -5.4255  -4.8463  -4.8463
     0.0941   0.0941   1.2537   1.2537   3.8544   3.8544   4.5591   4.5591
     4.8761   4.8761   5.9794   5.9794   6.5049   6.5049   7.0033   7.0033
     9.3221   9.3221   9.8983   9.8983  10.3325  10.3325  11.0005  11.0005
    11.9256  11.9256  12.5256  12.5256  14.4558  14.4558  15.2205  15.2205
    15.8064  15.8064  15.9602  15.9602  16.7290  16.7290  18.1351  18.1351
    18.5928  18.5928  19.2468  19.2468  20.0039  20.0039

     occupation numbers 
     1.0000   1.0000   1.0000   1.0000   1.0000   1.0000   1.0000   1.0000
     1.0000   1.0000   1.0000   1.0000   1.0000   1.0000   1.0000   1.0000
     1.0000   1.0000   1.0000   1.0000   1.0000   1.0000   1.0000   1.0000
     1.0000   1.0000   1.0000   1.0000   1.0000   1.0000   1.0000   1.0000
     1.0000   1.0000   1.0000   1.0000   1.0000   1.0000   1.0000   1.0000
     0.0000   0.0000   0.0000   0.0000   0.0000   0.0000   0.0000   0.0000
     0.0000   0.0000   0.0000   0.0000   0.0000   0.0000   0.0000   0.0000
     0.0000   0.0000   0.0000   0.0000   0.0000   0.0000   0.0000   0.0000
     0.0000   0.0000   0.0000   0.0000   0.0000   0.0000

          k = 0.3333 0.3640 0.0000 (  4104 PWs)   bands (ev):

   -13.7555 -13.7533 -13.7487 -13.7477 -13.7382 -13.7345 -13.7321 -13.7316
   -13.7268 -13.7266 -13.7171 -13.7128 -13.7068 -13.7036 -13.6926 -13.6922
   -13.6828 -13.6805 -13.6726 -13.6717  -5.2059  -5.0150  -4.8762  -4.7095
     0.1335   0.6917   1.0281   1.1609   2.9723   3.4091   3.7352   3.9418
     4.4023   4.8537   5.0750   5.5299   5.8081   6.0244   6.5393   6.7756
     8.4990  10.2238  10.3481  10.5809  11.0143  11.1462  11.9511  11.9970
    12.2771  12.4839  13.0100  13.4025  13.4262  13.5458  14.7634  15.3681
    16.2677  16.5730  16.7767  16.9402  17.6583  17.8565  18.2430  18.3223
    18.5436  18.8232  19.4967  19.5410  20.2593  20.2636

     occupation numbers 
     1.0000   1.0000   1.0000   1.0000   1.0000   1.0000   1.0000   1.0000
     1.0000   1.0000   1.0000   1.0000   1.0000   1.0000   1.0000   1.0000
     1.0000   1.0000   1.0000   1.0000   1.0000   1.0000   1.0000   1.0000
     1.0000   1.0000   1.0000   1.0000   1.0000   1.0000   1.0000   1.0000
     1.0000   1.0000   1.0000   1.0000   1.0000   1.0000   1.0000   1.0000
     0.0000   0.0000   0.0000   0.0000   0.0000   0.0000   0.0000   0.0000
     0.0000   0.0000   0.0000   0.0000   0.0000   0.0000   0.0000   0.0000
     0.0000   0.0000   0.0000   0.0000   0.0000   0.0000   0.0000   0.0000
     0.0000   0.0000   0.0000   0.0000   0.0000   0.0000

          k = 0.3333 0.3640-0.1972 (  4122 PWs)   bands (ev):

   -13.7537 -13.7537 -13.7493 -13.7493 -13.7358 -13.7358 -13.7325 -13.7325
   -13.7257 -13.7257 -13.7163 -13.7163 -13.7039 -13.7039 -13.6933 -13.6933
   -13.6812 -13.6812 -13.6721 -13.6721  -5.1345  -5.1345  -4.7688  -4.7688
     0.3869   0.3869   1.0798   1.0798   3.2071   3.2071   3.9678   3.9678
     4.5909   4.5909   5.1944   5.1944   5.8816   5.8816   6.6027   6.6027
     9.7983   9.7983  10.3950  10.3950  10.6214  10.6214  11.9445  11.9445
    12.0404  12.0404  13.3942  13.3942  14.4285  14.4285  14.8941  14.8941
    16.5474  16.5474  16.7066  16.7066  17.4202  17.4202  17.7541  17.7541
    19.0775  19.0775  19.3082  19.3082  19.9067  19.9067

     occupation numbers 
     1.0000   1.0000   1.0000   1.0000   1.0000   1.0000   1.0000   1.0000
     1.0000   1.0000   1.0000   1.0000   1.0000   1.0000   1.0000   1.0000
     1.0000   1.0000   1.0000   1.0000   1.0000   1.0000   1.0000   1.0000
     1.0000   1.0000   1.0000   1.0000   1.0000   1.0000   1.0000   1.0000
     1.0000   1.0000   1.0000   1.0000   1.0000   1.0000   1.0000   1.0000
     0.0000   0.0000   0.0000   0.0000   0.0000   0.0000   0.0000   0.0000
     0.0000   0.0000   0.0000   0.0000   0.0000   0.0000   0.0000   0.0000
     0.0000   0.0000   0.0000   0.0000   0.0000   0.0000   0.0000   0.0000
     0.0000   0.0000   0.0000   0.0000   0.0000   0.0000

          k = 0.3333-0.5460 0.0000 (  4112 PWs)   bands (ev):

   -13.7574 -13.7574 -13.7523 -13.7523 -13.7344 -13.7344 -13.7278 -13.7278
   -13.7241 -13.7241 -13.7178 -13.7178 -13.7028 -13.7028 -13.6954 -13.6954
   -13.6776 -13.6776 -13.6734 -13.6734  -4.8664  -4.8664  -4.8378  -4.8378
     0.5396   0.5396   0.8870   0.8870   3.1641   3.1641   3.7599   3.7599
     4.2574   4.2574   5.0888   5.0888   5.3485   5.3485   6.4877   6.4877
     9.3903   9.3903  10.8721  10.8721  11.7530  11.7530  11.9362  11.9362
    12.2968  12.2968  13.3481  13.3481  13.3827  13.3827  14.7454  14.7454
    16.9840  16.9840  18.1316  18.1316  18.7950  18.7950  19.0054  19.0054
    19.1097  19.1097  19.6045  19.6045  20.0258  20.0258

     occupation numbers 
     1.0000   1.0000   1.0000   1.0000   1.0000   1.0000   1.0000   1.0000
     1.0000   1.0000   1.0000   1.0000   1.0000   1.0000   1.0000   1.0000
     1.0000   1.0000   1.0000   1.0000   1.0000   1.0000   1.0000   1.0000
     1.0000   1.0000   1.0000   1.0000   1.0000   1.0000   1.0000   1.0000
     1.0000   1.0000   1.0000   1.0000   1.0000   1.0000   1.0000   1.0000
     0.0000   0.0000   0.0000   0.0000   0.0000   0.0000   0.0000   0.0000
     0.0000   0.0000   0.0000   0.0000   0.0000   0.0000   0.0000   0.0000
     0.0000   0.0000   0.0000   0.0000   0.0000   0.0000   0.0000   0.0000
     0.0000   0.0000   0.0000   0.0000   0.0000   0.0000

          k = 0.3333-0.5460-0.1972 (  4100 PWs)   bands (ev):

   -13.7549 -13.7549 -13.7549 -13.7549 -13.7320 -13.7320 -13.7320 -13.7320
   -13.7204 -13.7204 -13.7204 -13.7204 -13.6989 -13.6989 -13.6989 -13.6989
   -13.6753 -13.6753 -13.6753 -13.6753  -4.8522  -4.8522  -4.8522  -4.8522
     0.6993   0.6993   0.6993   0.6993   3.4781   3.4781   3.4781   3.4781
     4.4801   4.4801   4.4801   4.4801   6.1083   6.1083   6.1083   6.1083
    10.0946  10.0946  10.0946  10.0946  11.3843  11.3843  11.3843  11.3843
    13.0951  13.0951  13.0951  13.0951  14.6376  14.6376  14.6376  14.6376
    16.9734  16.9734  16.9734  16.9734  18.8962  18.8962  18.8962  18.8962
    19.1779  19.1779  19.1779  19.1779  20.0900  20.0900

     occupation numbers 
     1.0000   1.0000   1.0000   1.0000   1.0000   1.0000   1.0000   1.0000
     1.0000   1.0000   1.0000   1.0000   1.0000   1.0000   1.0000   1.0000
     1.0000   1.0000   1.0000   1.0000   1.0000   1.0000   1.0000   1.0000
     1.0000   1.0000   1.0000   1.0000   1.0000   1.0000   1.0000   1.0000
     1.0000   1.0000   1.0000   1.0000   1.0000   1.0000   1.0000   1.0000
     0.0000   0.0000   0.0000   0.0000   0.0000   0.0000   0.0000   0.0000
     0.0000   0.0000   0.0000   0.0000   0.0000   0.0000   0.0000   0.0000
     0.0000   0.0000   0.0000   0.0000   0.0000   0.0000   0.0000   0.0000
     0.0000   0.0000   0.0000   0.0000   0.0000   0.0000

          k =-0.5000 0.0000 0.0000 (  4068 PWs)   bands (ev):

   -13.7504 -13.7504 -13.7435 -13.7435 -13.7430 -13.7430 -13.7347 -13.7347
   -13.7245 -13.7245 -13.7124 -13.7124 -13.7101 -13.7101 -13.6899 -13.6899
   -13.6843 -13.6843 -13.6714 -13.6714  -5.3225  -5.3225  -5.0300  -5.0300
    -0.2799  -0.2799   1.0615   1.0615   4.0231   4.0231   5.5187   5.5187
     5.8638   5.8638   6.2738   6.2738   6.7289   6.7289   7.3625   7.3625
     8.8183   8.8183   9.2691   9.2691   9.3865   9.3865  10.2201  10.2201
    10.9299  10.9299  13.2828  13.2828  14.9625  14.9625  15.4203  15.4203
    15.7115  15.7115  16.5159  16.5159  17.1431  17.1431  17.4501  17.4501
    18.1299  18.1299  18.8992  18.8992  19.2929  19.2929

     occupation numbers 
     1.0000   1.0000   1.0000   1.0000   1.0000   1.0000   1.0000   1.0000
     1.0000   1.0000   1.0000   1.0000   1.0000   1.0000   1.0000   1.0000
     1.0000   1.0000   1.0000   1.0000   1.0000   1.0000   1.0000   1.0000
     1.0000   1.0000   1.0000   1.0000   1.0000   1.0000   1.0000   1.0000
     1.0000   1.0000   1.0000   1.0000   1.0000   1.0000   1.0000   1.0000
     0.0000   0.0000   0.0000   0.0000   0.0000   0.0000   0.0000   0.0000
     0.0000   0.0000   0.0000   0.0000   0.0000   0.0000   0.0000   0.0000
     0.0000   0.0000   0.0000   0.0000   0.0000   0.0000   0.0000   0.0000
     0.0000   0.0000   0.0000   0.0000   0.0000   0.0000

          k =-0.5000 0.0000-0.1972 (  4112 PWs)   bands (ev):

   -13.7503 -13.7503 -13.7433 -13.7433 -13.7430 -13.7430 -13.7356 -13.7356
   -13.7240 -13.7240 -13.7122 -13.7122 -13.7104 -13.7104 -13.6896 -13.6896
   -13.6846 -13.6846 -13.6714 -13.6714  -5.3200  -5.3200  -5.0335  -5.0335
    -0.2140  -0.2140   0.9029   0.9029   4.7914   4.7914   5.1198   5.1198
     5.5280   5.5280   5.8505   5.8505   7.0852   7.0852   7.3299   7.3299
     8.8048   8.8048   9.3382   9.3382   9.4346   9.4346  10.7731  10.7731
    10.8431  10.8431  12.4946  12.4946  15.3956  15.3956  15.7954  15.7954
    15.8630  15.8630  16.3424  16.3424  17.0961  17.0961  17.1846  17.1846
    17.3020  17.3020  18.9270  18.9270  19.0866  19.0866

     occupation numbers 
     1.0000   1.0000   1.0000   1.0000   1.0000   1.0000   1.0000   1.0000
     1.0000   1.0000   1.0000   1.0000   1.0000   1.0000   1.0000   1.0000
     1.0000   1.0000   1.0000   1.0000   1.0000   1.0000   1.0000   1.0000
     1.0000   1.0000   1.0000   1.0000   1.0000   1.0000   1.0000   1.0000
     1.0000   1.0000   1.0000   1.0000   1.0000   1.0000   1.0000   1.0000
     0.0000   0.0000   0.0000   0.0000   0.0000   0.0000   0.0000   0.0000
     0.0000   0.0000   0.0000   0.0000   0.0000   0.0000   0.0000   0.0000
     0.0000   0.0000   0.0000   0.0000   0.0000   0.0000   0.0000   0.0000
     0.0000   0.0000   0.0000   0.0000   0.0000   0.0000

          k =-0.5000 0.1820 0.0000 (  4072 PWs)   bands (ev):

   -13.7500 -13.7500 -13.7438 -13.7438 -13.7401 -13.7401 -13.7381 -13.7381
   -13.7265 -13.7265 -13.7120 -13.7120 -13.7079 -13.7079 -13.6880 -13.6880
   -13.6861 -13.6861 -13.6717 -13.6717  -5.2213  -5.2213  -4.9585  -4.9585
    -0.1057  -0.1057   1.1482   1.1482   3.9611   3.9611   4.4132   4.4132
     4.8918   4.8918   5.9395   5.9395   6.6926   6.6926   7.0736   7.0736
     8.7676   8.7676   9.7272   9.7272  10.6982  10.6982  11.2175  11.2175
    11.7271  11.7271  12.9854  12.9854  13.7819  13.7819  15.2832  15.2832
    16.4945  16.4945  16.9103  16.9103  17.4738  17.4738  18.2270  18.2270
    18.3944  18.3944  18.8232  18.8232  19.2695  19.2695

     occupation numbers 
     1.0000   1.0000   1.0000   1.0000   1.0000   1.0000   1.0000   1.0000
     1.0000   1.0000   1.0000   1.0000   1.0000   1.0000   1.0000   1.0000
     1.0000   1.0000   1.0000   1.0000   1.0000   1.0000   1.0000   1.0000
     1.0000   1.0000   1.0000   1.0000   1.0000   1.0000   1.0000   1.0000
     1.0000   1.0000   1.0000   1.0000   1.0000   1.0000   1.0000   1.0000
     0.0000   0.0000   0.0000   0.0000   0.0000   0.0000   0.0000   0.0000
     0.0000   0.0000   0.0000   0.0000   0.0000   0.0000   0.0000   0.0000
     0.0000   0.0000   0.0000   0.0000   0.0000   0.0000   0.0000   0.0000
     0.0000   0.0000   0.0000   0.0000   0.0000   0.0000

          k =-0.5000 0.1820-0.1972 (  4084 PWs)   bands (ev):

   -13.7487 -13.7487 -13.7468 -13.7468 -13.7385 -13.7385 -13.7379 -13.7379
   -13.7261 -13.7261 -13.7126 -13.7126 -13.7076 -13.7076 -13.6874 -13.6874
   -13.6871 -13.6871 -13.6714 -13.6714  -5.2191  -5.2191  -4.9615  -4.9615
    -0.0480  -0.0480   1.0156   1.0156   4.2182   4.2182   4.3953   4.3953
     5.2136   5.2136   5.4913   5.4913   6.4568   6.4568   6.8679   6.8679
     9.7361   9.7361   9.8172   9.8172  10.2717  10.2717  10.9749  10.9749
    11.8427  11.8427  12.3663  12.3663  15.0181  15.0181  15.0638  15.0638
    15.8716  15.8716  17.1377  17.1377  17.2798  17.2798  17.8475  17.8475
    17.8922  17.8922  19.4354  19.4354  19.9210  19.9210

     occupation numbers 
     1.0000   1.0000   1.0000   1.0000   1.0000   1.0000   1.0000   1.0000
     1.0000   1.0000   1.0000   1.0000   1.0000   1.0000   1.0000   1.0000
     1.0000   1.0000   1.0000   1.0000   1.0000   1.0000   1.0000   1.0000
     1.0000   1.0000   1.0000   1.0000   1.0000   1.0000   1.0000   1.0000
     1.0000   1.0000   1.0000   1.0000   1.0000   1.0000   1.0000   1.0000
     0.0000   0.0000   0.0000   0.0000   0.0000   0.0000   0.0000   0.0000
     0.0000   0.0000   0.0000   0.0000   0.0000   0.0000   0.0000   0.0000
     0.0000   0.0000   0.0000   0.0000   0.0000   0.0000   0.0000   0.0000
     0.0000   0.0000   0.0000   0.0000   0.0000   0.0000

          k =-0.5000 0.3640 0.0000 (  4102 PWs)   bands (ev):

   -13.7563 -13.7563 -13.7495 -13.7495 -13.7364 -13.7364 -13.7317 -13.7317
   -13.7262 -13.7262 -13.7142 -13.7142 -13.7042 -13.7042 -13.6916 -13.6916
   -13.6819 -13.6819 -13.6720 -13.6720  -4.9861  -4.9861  -4.8210  -4.8210
     0.3520   0.3520   1.2058   1.2058   3.1221   3.1221   3.6185   3.6185
     4.3568   4.3568   5.0626   5.0626   5.6239   5.6239   6.5250   6.5250
     9.4050   9.4050  11.0860  11.0860  12.0751  12.0751  12.2168  12.2168
    12.3371  12.3371  13.2197  13.2197  13.4834  13.4834  14.6825  14.6825
    17.2926  17.2926  17.8353  17.8353  18.0820  18.0820  18.3430  18.3430
    18.8160  18.8160  19.4156  19.4156  19.9337  19.9337

     occupation numbers 
     1.0000   1.0000   1.0000   1.0000   1.0000   1.0000   1.0000   1.0000
     1.0000   1.0000   1.0000   1.0000   1.0000   1.0000   1.0000   1.0000
     1.0000   1.0000   1.0000   1.0000   1.0000   1.0000   1.0000   1.0000
     1.0000   1.0000   1.0000   1.0000   1.0000   1.0000   1.0000   1.0000
     1.0000   1.0000   1.0000   1.0000   1.0000   1.0000   1.0000   1.0000
     0.0000   0.0000   0.0000   0.0000   0.0000   0.0000   0.0000   0.0000
     0.0000   0.0000   0.0000   0.0000   0.0000   0.0000   0.0000   0.0000
     0.0000   0.0000   0.0000   0.0000   0.0000   0.0000   0.0000   0.0000
     0.0000   0.0000   0.0000   0.0000   0.0000   0.0000

          k =-0.5000 0.3640-0.1972 (  4088 PWs)   bands (ev):

   -13.7552 -13.7552 -13.7509 -13.7509 -13.7357 -13.7357 -13.7323 -13.7323
   -13.7252 -13.7252 -13.7156 -13.7156 -13.7027 -13.7027 -13.6928 -13.6928
   -13.6813 -13.6813 -13.6720 -13.6720  -4.9847  -4.9847  -4.8227  -4.8227
     0.3824   0.3824   1.1488   1.1488   3.3491   3.3491   3.3531   3.3531
     4.6088   4.6088   4.7686   4.7686   5.9281   5.9281   6.2789   6.2789
     9.8661   9.8661  10.6401  10.6401  11.6014  11.6014  11.6601  11.6601
    12.9543  12.9543  13.2840  13.2840  14.5692  14.5692  14.6484  14.6484
    16.6640  16.6640  17.7036  17.7036  17.7418  17.7418  18.6306  18.6306
    18.8885  18.8885  18.9668  18.9668  19.7800  19.7800

     occupation numbers 
     1.0000   1.0000   1.0000   1.0000   1.0000   1.0000   1.0000   1.0000
     1.0000   1.0000   1.0000   1.0000   1.0000   1.0000   1.0000   1.0000
     1.0000   1.0000   1.0000   1.0000   1.0000   1.0000   1.0000   1.0000
     1.0000   1.0000   1.0000   1.0000   1.0000   1.0000   1.0000   1.0000
     1.0000   1.0000   1.0000   1.0000   1.0000   1.0000   1.0000   1.0000
     0.0000   0.0000   0.0000   0.0000   0.0000   0.0000   0.0000   0.0000
     0.0000   0.0000   0.0000   0.0000   0.0000   0.0000   0.0000   0.0000
     0.0000   0.0000   0.0000   0.0000   0.0000   0.0000   0.0000   0.0000
     0.0000   0.0000   0.0000   0.0000   0.0000   0.0000

          k =-0.5000-0.5460 0.0000 (  4060 PWs)   bands (ev):

   -13.7596 -13.7596 -13.7539 -13.7539 -13.7345 -13.7345 -13.7273 -13.7273
   -13.7237 -13.7237 -13.7174 -13.7174 -13.7020 -13.7020 -13.6942 -13.6942
   -13.6778 -13.6778 -13.6731 -13.6731  -4.8069  -4.8069  -4.7974  -4.7974
     0.8097   0.8097   0.9542   0.9542   2.8054   2.8054   3.3737   3.3737
     4.0581   4.0581   4.5956   4.5956   5.3847   5.3847   6.2430   6.2430
    10.1764  10.1764  10.5216  10.5216  12.1542  12.1542  12.2796  12.2796
    13.0684  13.0684  13.9098  13.9098  14.0945  14.0945  14.6685  14.6685
    17.2216  17.2216  17.5975  17.5975  17.8927  17.8927  19.6053  19.6053
    19.6880  19.6880  20.0011  20.0011  20.1325  20.1325

     occupation numbers 
     1.0000   1.0000   1.0000   1.0000   1.0000   1.0000   1.0000   1.0000
     1.0000   1.0000   1.0000   1.0000   1.0000   1.0000   1.0000   1.0000
     1.0000   1.0000   1.0000   1.0000   1.0000   1.0000   1.0000   1.0000
     1.0000   1.0000   1.0000   1.0000   1.0000   1.0000   1.0000   1.0000
     1.0000   1.0000   1.0000   1.0000   1.0000   1.0000   1.0000   1.0000
     0.0000   0.0000   0.0000   0.0000   0.0000   0.0000   0.0000   0.0000
     0.0000   0.0000   0.0000   0.0000   0.0000   0.0000   0.0000   0.0000
     0.0000   0.0000   0.0000   0.0000   0.0000   0.0000   0.0000   0.0000
     0.0000   0.0000   0.0000   0.0000   0.0000   0.0000

          k =-0.5000-0.5460-0.1972 (  4088 PWs)   bands (ev):

   -13.7568 -13.7568 -13.7568 -13.7568 -13.7321 -13.7321 -13.7321 -13.7321
   -13.7198 -13.7198 -13.7198 -13.7198 -13.6978 -13.6978 -13.6978 -13.6978
   -13.6753 -13.6753 -13.6753 -13.6753  -4.8022  -4.8022  -4.8022  -4.8022
     0.8701   0.8701   0.8701   0.8701   3.2055   3.2055   3.2055   3.2055
     3.9965   3.9965   3.9965   3.9965   6.1441   6.1441   6.1441   6.1441
    10.0100  10.0100  10.0100  10.0100  12.1594  12.1594  12.1594  12.1594
    13.9720  13.9720  13.9720  13.9720  14.5629  14.5629  14.5629  14.5629
    17.1127  17.1127  17.1127  17.1127  18.1042  18.1042  18.1042  18.1042
    19.6051  19.6051  19.6051  19.6051  20.1315  20.1315

     occupation numbers 
     1.0000   1.0000   1.0000   1.0000   1.0000   1.0000   1.0000   1.0000
     1.0000   1.0000   1.0000   1.0000   1.0000   1.0000   1.0000   1.0000
     1.0000   1.0000   1.0000   1.0000   1.0000   1.0000   1.0000   1.0000
     1.0000   1.0000   1.0000   1.0000   1.0000   1.0000   1.0000   1.0000
     1.0000   1.0000   1.0000   1.0000   1.0000   1.0000   1.0000   1.0000
     0.0000   0.0000   0.0000   0.0000   0.0000   0.0000   0.0000   0.0000
     0.0000   0.0000   0.0000   0.0000   0.0000   0.0000   0.0000   0.0000
     0.0000   0.0000   0.0000   0.0000   0.0000   0.0000   0.0000   0.0000
     0.0000   0.0000   0.0000   0.0000   0.0000   0.0000

     the Fermi energy is     8.0966 ev
     (compare with:     8.1444 eV, computed in scf)

     Writing all to output data dir ./tmp/SnSe_pnma.save/ :
     XML data file, pseudopotentials, collected wavefunctions
 
     init_run     :      0.49s CPU      0.64s WALL (       1 calls)
     electrons    :     31.79s CPU     32.31s WALL (       1 calls)

     Called by init_run:
     wfcinit      :      0.00s CPU      0.00s WALL (       1 calls)
     wfcinit:atom :      0.01s CPU      0.01s WALL (       8 calls)
     wfcinit:wfcr :      0.50s CPU      0.53s WALL (       8 calls)
     potinit      :      0.13s CPU      0.16s WALL (       1 calls)
     hinit0       :      0.20s CPU      0.21s WALL (       1 calls)

     Called by electrons:
     c_bands      :     31.78s CPU     32.30s WALL (       1 calls)
     v_of_rho     :      0.09s CPU      0.11s WALL (       1 calls)
     v_h          :      0.00s CPU      0.01s WALL (       1 calls)
     v_xc         :      0.08s CPU      0.10s WALL (       1 calls)
     newd         :      0.11s CPU      0.20s WALL (       1 calls)

     Called by c_bands:
     init_us_2    :      0.02s CPU      0.02s WALL (       8 calls)
     cegterg      :     28.08s CPU     28.28s WALL (      29 calls)

     Called by sum_band:

     Called by *egterg:
     cdiaghg      :      2.78s CPU      2.79s WALL (     518 calls)
     cegterg:over :      2.73s CPU      2.73s WALL (     510 calls)
     cegterg:upda :      1.61s CPU      1.61s WALL (     510 calls)
     cegterg:last :      4.58s CPU      4.59s WALL (     352 calls)
     h_psi        :     14.68s CPU     14.86s WALL (     547 calls)
     s_psi        :      1.63s CPU      1.64s WALL (     547 calls)
     g_psi        :      0.10s CPU      0.10s WALL (     510 calls)

     Called by h_psi:
     h_psi:calbec :      1.61s CPU      1.63s WALL (     547 calls)
     vloc_psi     :     11.26s CPU     11.41s WALL (     547 calls)
     add_vuspsi   :      1.67s CPU      1.68s WALL (     547 calls)

     General routines
     calbec       :      1.61s CPU      1.63s WALL (     547 calls)
     fft          :      0.05s CPU      0.05s WALL (      13 calls)
     ffts         :      0.00s CPU      0.00s WALL (       1 calls)
     fftw         :      7.58s CPU      7.67s WALL (   45870 calls)
     interpolate  :      0.00s CPU      0.00s WALL (       1 calls)
     davcio       :      0.01s CPU      0.02s WALL (      16 calls)
 
     Parallel routines
 
     PWSCF        :     32.93s CPU     34.15s WALL

 
   This run was terminated on:  17:46: 3  24May2026            

=------------------------------------------------------------------------------=
   JOB DONE.
=------------------------------------------------------------------------------=
