
     Program PWSCF v.7.3.1 starts on 24May2026 at 17:51:24 

     This program is part of the open-source Quantum ESPRESSO suite
     for quantum simulation of materials; please cite
         "P. Giannozzi et al., J. Phys.:Condens. Matter 21 395502 (2009);
         "P. Giannozzi et al., J. Phys.:Condens. Matter 29 465901 (2017);
         "P. Giannozzi et al., J. Chem. Phys. 152 154105 (2020);
          URL http://www.quantum-espresso.org", 
     in publications or presentations arising from this work. More details at
     http://www.quantum-espresso.org/quote

     Parallel version (MPI & OpenMP), running on      12 processor cores
     Number of MPI processes:                12
     Threads/MPI process:                     1

     MPI processes distributed on     1 nodes
     7353 MiB available memory on the printing compute node when the environment starts
 
     Waiting for input...
     Reading input from standard input

     Current dimensions of program PWSCF are:
     Max number of different atomic species (ntypx) = 10
     Max number of k-points (npk) =  40000
     Max angular momentum in pseudopotentials (lmaxx) =  4

     Atomic positions and unit cell read from directory:
     ./tmp/SnSe_pnma.save/
 
 
     K-points division:     npool     =       4
     R & G space division:  proc/nbgrp/npool/nimage =       3
     Subspace diagonalization in iterative solution of the eigenvalue problem:
     a serial algorithm will be used

 
     Parallelization info
     --------------------
     sticks:   dense  smooth     PW     G-vecs:    dense   smooth      PW
     Min         543     213     67                43337    10943    1840
     Max         543     214     68                43339    10946    1842
     Sum        1629     641    203               130013    32833    5523
 
     Using Slab Decomposition
 


     bravais-lattice index     =            8
     lattice parameter (alat)  =       8.6086  a.u.
     unit-cell volume          =    1481.0643 (a.u.)^3
     number of atoms/cell      =            8
     number of atomic types    =            2
     number of electrons       =        80.00
     number of Kohn-Sham states=           70
     kinetic-energy cutoff     =      30.0000  Ry
     charge density cutoff     =     300.0000  Ry
     Exchange-correlation= SLA  PW   PBE  PBE
                           (   1   4   3   4   0   0   0)

     celldm(1)=   8.608647  celldm(2)=   0.915684  celldm(3)=   2.535265
     celldm(4)=   0.000000  celldm(5)=   0.000000  celldm(6)=   0.000000

     crystal axes: (cart. coord. in units of alat)
               a(1) = (   1.000000   0.000000   0.000000 )  
               a(2) = (   0.000000   0.915684   0.000000 )  
               a(3) = (   0.000000   0.000000   2.535265 )  

     reciprocal axes: (cart. coord. in units 2 pi/alat)
               b(1) = (  1.000000  0.000000  0.000000 )  
               b(2) = (  0.000000  1.092079  0.000000 )  
               b(3) = (  0.000000  0.000000  0.394436 )  


     PseudoPot. # 1 for Sn read from file:
     ../pseudo/Sn_pbe_v1.uspp.F.UPF
     MD5 check sum: 4cf58ce39ec5d5d420df3dd08604eb00
     Pseudo is Ultrasoft + core correction, Zval = 14.0
     Generated by new atomic code, or converted to UPF format
     Using radial grid of  891 points,  6 beta functions with: 
                l(1) =   0
                l(2) =   0
                l(3) =   1
                l(4) =   1
                l(5) =   2
                l(6) =   2
     Q(r) pseudized with  6 coefficients,  rinner =    1.200   1.200   1.200
                                                       1.200   1.200

     PseudoPot. # 2 for Se read from file:
     ../pseudo/Se_pbe_v1.uspp.F.UPF
     MD5 check sum: 1b3568f3a8ae88f9a2a0ad0698632c85
     Pseudo is Ultrasoft + core correction, Zval =  6.0
     Generated by new atomic code, or converted to UPF format
     Using radial grid of  877 points,  6 beta functions with: 
                l(1) =   0
                l(2) =   0
                l(3) =   1
                l(4) =   1
                l(5) =   2
                l(6) =   2
     Q(r) pseudized with  8 coefficients,  rinner =    1.300   1.300   1.300
                                                       1.300   1.300

     atomic species   valence    mass     pseudopotential
     Sn               14.00   118.71000     Sn( 1.00)
     Se                6.00    78.97100     Se( 1.00)

      8 Sym. Ops., with inversion, found ( 6 have fractional translation)


                                    s                        frac. trans.

      isym =  1     identity                                     

 cryst.   s( 1) = (     1          0          0      )
                  (     0          1          0      )
                  (     0          0          1      )

 cart.    s( 1) = (  1.0000000  0.0000000  0.0000000 )
                  (  0.0000000  1.0000000  0.0000000 )
                  (  0.0000000  0.0000000  1.0000000 )


      isym =  2     180 deg rotation - cart. axis [0,0,1]        

 cryst.   s( 2) = (    -1          0          0      )    f =(  0.5000000 )
                  (     0         -1          0      )       (  0.5000000 )
                  (     0          0          1      )       (  0.5000000 )

 cart.    s( 2) = ( -1.0000000  0.0000000  0.0000000 )    f =(  0.5000000 )
                  (  0.0000000 -1.0000000  0.0000000 )       (  0.4578422 )
                  (  0.0000000  0.0000000  1.0000000 )       (  1.2676325 )


      isym =  3     180 deg rotation - cart. axis [0,1,0]        

 cryst.   s( 3) = (    -1          0          0      )    f =( -0.0000000 )
                  (     0          1          0      )       (  0.5000000 )
                  (     0          0         -1      )       ( -0.0000000 )

 cart.    s( 3) = ( -1.0000000  0.0000000  0.0000000 )    f =( -0.0000000 )
                  (  0.0000000  1.0000000  0.0000000 )       (  0.4578422 )
                  (  0.0000000  0.0000000 -1.0000000 )       ( -0.0000000 )


      isym =  4     180 deg rotation - cart. axis [1,0,0]        

 cryst.   s( 4) = (     1          0          0      )    f =( -0.5000000 )
                  (     0         -1          0      )       ( -0.0000000 )
                  (     0          0         -1      )       (  0.5000000 )

 cart.    s( 4) = (  1.0000000  0.0000000  0.0000000 )    f =( -0.5000000 )
                  (  0.0000000 -1.0000000  0.0000000 )       ( -0.0000000 )
                  (  0.0000000  0.0000000 -1.0000000 )       (  1.2676325 )


      isym =  5     inversion                                    

 cryst.   s( 5) = (    -1          0          0      )
                  (     0         -1          0      )
                  (     0          0         -1      )

 cart.    s( 5) = ( -1.0000000  0.0000000  0.0000000 )
                  (  0.0000000 -1.0000000  0.0000000 )
                  (  0.0000000  0.0000000 -1.0000000 )


      isym =  6     inv. 180 deg rotation - cart. axis [0,0,1]   

 cryst.   s( 6) = (     1          0          0      )    f =( -0.5000000 )
                  (     0          1          0      )       (  0.5000000 )
                  (     0          0         -1      )       (  0.5000000 )

 cart.    s( 6) = (  1.0000000  0.0000000  0.0000000 )    f =( -0.5000000 )
                  (  0.0000000  1.0000000  0.0000000 )       (  0.4578422 )
                  (  0.0000000  0.0000000 -1.0000000 )       (  1.2676325 )


      isym =  7     inv. 180 deg rotation - cart. axis [0,1,0]   

 cryst.   s( 7) = (     1          0          0      )    f =(  0.0000000 )
                  (     0         -1          0      )       (  0.5000000 )
                  (     0          0          1      )       (  0.0000000 )

 cart.    s( 7) = (  1.0000000  0.0000000  0.0000000 )    f =(  0.0000000 )
                  (  0.0000000 -1.0000000  0.0000000 )       (  0.4578422 )
                  (  0.0000000  0.0000000  1.0000000 )       (  0.0000000 )


      isym =  8     inv. 180 deg rotation - cart. axis [1,0,0]   

 cryst.   s( 8) = (    -1          0          0      )    f =(  0.5000000 )
                  (     0          1          0      )       (  0.0000000 )
                  (     0          0          1      )       (  0.5000000 )

 cart.    s( 8) = ( -1.0000000  0.0000000  0.0000000 )    f =(  0.5000000 )
                  (  0.0000000  1.0000000  0.0000000 )       (  0.0000000 )
                  (  0.0000000  0.0000000  1.0000000 )       (  1.2676325 )


     point group D_2h (mmm) 
     there are  8 classes
     the character table:

       E     C2    C2'   C2''  i     s_v   s_v'  s_v''
A_g    1.00  1.00  1.00  1.00  1.00  1.00  1.00  1.00
B_1g   1.00  1.00 -1.00 -1.00  1.00  1.00 -1.00 -1.00
B_2g   1.00 -1.00  1.00 -1.00  1.00 -1.00  1.00 -1.00
B_3g   1.00 -1.00 -1.00  1.00  1.00 -1.00 -1.00  1.00
A_u    1.00  1.00  1.00  1.00 -1.00 -1.00 -1.00 -1.00
B_1u   1.00  1.00 -1.00 -1.00 -1.00 -1.00  1.00  1.00
B_2u   1.00 -1.00  1.00 -1.00 -1.00  1.00 -1.00  1.00
B_3u   1.00 -1.00 -1.00  1.00 -1.00  1.00  1.00 -1.00

     the symmetry operations in each class and the name of the first element:

     E        1
          identity                                               
     C2       2
          180 deg rotation - cart. axis [0,0,1]                  
     C2'      4
          180 deg rotation - cart. axis [1,0,0]                  
     C2''     3
          180 deg rotation - cart. axis [0,1,0]                  
     i        5
          inversion                                              
     s_v      6
          inv. 180 deg rotation - cart. axis [0,0,1]             
     s_v'     8
          inv. 180 deg rotation - cart. axis [1,0,0]             
     s_v''    7
          inv. 180 deg rotation - cart. axis [0,1,0]             

   Cartesian axes

     site n.     atom                  positions (alat units)
         1        Se     tau(   1) = (   0.4832481   0.6867633   2.1675410  )
         2        Sn     tau(   2) = (   0.1122870   0.6867633   0.2954585  )
         3        Se     tau(   3) = (   0.9832481   0.2289211   1.6353566  )
         4        Sn     tau(   4) = (   0.6122870   0.2289211   0.9721740  )
         5        Se     tau(   5) = (   0.0167519   0.6867633   0.8999084  )
         6        Sn     tau(   6) = (   0.3877130   0.6867633   1.5630911  )
         7        Se     tau(   7) = (   0.5167519   0.2289211   0.3677241  )
         8        Sn     tau(   8) = (   0.8877130   0.2289211   2.2398065  )

     --------------------------------------------
     DFT-D3 Dispersion Correction (3-body terms):
     --------------------------------------------
       Reference C6 values for interpolation: 

         atom   Coordination number   C6
         Se         0.000           427.35
         Se         0.990           427.57
         Se         1.981           421.05
         Sn         0.000          1255.14
         Sn         0.951          1084.09
         Sn         1.950          1010.83
         Sn         2.926           818.29
         Sn         3.912           672.20

       Values used:

         atom   Coordination number  R0_AB[au]  C6      C8
         Se         3.412            3.332    421.05  29958.36
         Sn         4.106            3.957    672.80  84444.47
         Se         3.412            3.332    421.05  29958.36
         Sn         4.106            3.957    672.80  84444.47
         Se         3.412            3.332    421.05  29958.36
         Sn         4.106            3.957    672.80  84444.47
         Se         3.412            3.332    421.05  29958.36
         Sn         4.106            3.957    672.80  84444.47

         Molecular C6 ( Ry / a.u.^6 ) =     34513.28


   Crystallographic axes

     site n.     atom                  positions (cryst. coord.)
         1        Se     tau(   1) = (  0.4832481  0.7500000  0.8549563  )
         2        Sn     tau(   2) = (  0.1122870  0.7500000  0.1165395  )
         3        Se     tau(   3) = (  0.9832481  0.2500000  0.6450437  )
         4        Sn     tau(   4) = (  0.6122870  0.2500000  0.3834605  )
         5        Se     tau(   5) = (  0.0167519  0.7500000  0.3549563  )
         6        Sn     tau(   6) = (  0.3877130  0.7500000  0.6165395  )
         7        Se     tau(   7) = (  0.5167519  0.2500000  0.1450437  )
         8        Sn     tau(   8) = (  0.8877130  0.2500000  0.8834605  )

     number of k points=   324 (tetrahedron method)
                       cart. coord. in units 2pi/alat
        k(    1) = (   0.0000000   0.0000000   0.0000000), wk =   0.0013021
        k(    2) = (   0.0000000   0.0000000   0.0657393), wk =   0.0026042
        k(    3) = (   0.0000000   0.0000000   0.1314787), wk =   0.0026042
        k(    4) = (   0.0000000   0.0000000  -0.1972180), wk =   0.0013021
        k(    5) = (   0.0000000   0.0682550   0.0000000), wk =   0.0026042
        k(    6) = (   0.0000000   0.0682550   0.0657393), wk =   0.0052083
        k(    7) = (   0.0000000   0.0682550   0.1314787), wk =   0.0052083
        k(    8) = (   0.0000000   0.0682550  -0.1972180), wk =   0.0026042
        k(    9) = (   0.0000000   0.1365099   0.0000000), wk =   0.0026042
        k(   10) = (   0.0000000   0.1365099   0.0657393), wk =   0.0052083
        k(   11) = (   0.0000000   0.1365099   0.1314787), wk =   0.0052083
        k(   12) = (   0.0000000   0.1365099  -0.1972180), wk =   0.0026042
        k(   13) = (   0.0000000   0.2047649   0.0000000), wk =   0.0026042
        k(   14) = (   0.0000000   0.2047649   0.0657393), wk =   0.0052083
        k(   15) = (   0.0000000   0.2047649   0.1314787), wk =   0.0052083
        k(   16) = (   0.0000000   0.2047649  -0.1972180), wk =   0.0026042
        k(   17) = (   0.0000000   0.2730198   0.0000000), wk =   0.0026042
        k(   18) = (   0.0000000   0.2730198   0.0657393), wk =   0.0052083
        k(   19) = (   0.0000000   0.2730198   0.1314787), wk =   0.0052083
        k(   20) = (   0.0000000   0.2730198  -0.1972180), wk =   0.0026042
        k(   21) = (   0.0000000   0.3412748   0.0000000), wk =   0.0026042
        k(   22) = (   0.0000000   0.3412748   0.0657393), wk =   0.0052083
        k(   23) = (   0.0000000   0.3412748   0.1314787), wk =   0.0052083
        k(   24) = (   0.0000000   0.3412748  -0.1972180), wk =   0.0026042
        k(   25) = (   0.0000000   0.4095298   0.0000000), wk =   0.0026042
        k(   26) = (   0.0000000   0.4095298   0.0657393), wk =   0.0052083
        k(   27) = (   0.0000000   0.4095298   0.1314787), wk =   0.0052083
        k(   28) = (   0.0000000   0.4095298  -0.1972180), wk =   0.0026042
        k(   29) = (   0.0000000   0.4777847   0.0000000), wk =   0.0026042
        k(   30) = (   0.0000000   0.4777847   0.0657393), wk =   0.0052083
        k(   31) = (   0.0000000   0.4777847   0.1314787), wk =   0.0052083
        k(   32) = (   0.0000000   0.4777847  -0.1972180), wk =   0.0026042
        k(   33) = (   0.0000000  -0.5460397   0.0000000), wk =   0.0013021
        k(   34) = (   0.0000000  -0.5460397   0.0657393), wk =   0.0026042
        k(   35) = (   0.0000000  -0.5460397   0.1314787), wk =   0.0026042
        k(   36) = (   0.0000000  -0.5460397  -0.1972180), wk =   0.0013021
        k(   37) = (   0.0625000   0.0000000   0.0000000), wk =   0.0026042
        k(   38) = (   0.0625000   0.0000000   0.0657393), wk =   0.0052083
        k(   39) = (   0.0625000   0.0000000   0.1314787), wk =   0.0052083
        k(   40) = (   0.0625000   0.0000000  -0.1972180), wk =   0.0026042
        k(   41) = (   0.0625000   0.0682550   0.0000000), wk =   0.0052083
        k(   42) = (   0.0625000   0.0682550   0.0657393), wk =   0.0104167
        k(   43) = (   0.0625000   0.0682550   0.1314787), wk =   0.0104167
        k(   44) = (   0.0625000   0.0682550  -0.1972180), wk =   0.0052083
        k(   45) = (   0.0625000   0.1365099   0.0000000), wk =   0.0052083
        k(   46) = (   0.0625000   0.1365099   0.0657393), wk =   0.0104167
        k(   47) = (   0.0625000   0.1365099   0.1314787), wk =   0.0104167
        k(   48) = (   0.0625000   0.1365099  -0.1972180), wk =   0.0052083
        k(   49) = (   0.0625000   0.2047649   0.0000000), wk =   0.0052083
        k(   50) = (   0.0625000   0.2047649   0.0657393), wk =   0.0104167
        k(   51) = (   0.0625000   0.2047649   0.1314787), wk =   0.0104167
        k(   52) = (   0.0625000   0.2047649  -0.1972180), wk =   0.0052083
        k(   53) = (   0.0625000   0.2730198   0.0000000), wk =   0.0052083
        k(   54) = (   0.0625000   0.2730198   0.0657393), wk =   0.0104167
        k(   55) = (   0.0625000   0.2730198   0.1314787), wk =   0.0104167
        k(   56) = (   0.0625000   0.2730198  -0.1972180), wk =   0.0052083
        k(   57) = (   0.0625000   0.3412748   0.0000000), wk =   0.0052083
        k(   58) = (   0.0625000   0.3412748   0.0657393), wk =   0.0104167
        k(   59) = (   0.0625000   0.3412748   0.1314787), wk =   0.0104167
        k(   60) = (   0.0625000   0.3412748  -0.1972180), wk =   0.0052083
        k(   61) = (   0.0625000   0.4095298   0.0000000), wk =   0.0052083
        k(   62) = (   0.0625000   0.4095298   0.0657393), wk =   0.0104167
        k(   63) = (   0.0625000   0.4095298   0.1314787), wk =   0.0104167
        k(   64) = (   0.0625000   0.4095298  -0.1972180), wk =   0.0052083
        k(   65) = (   0.0625000   0.4777847   0.0000000), wk =   0.0052083
        k(   66) = (   0.0625000   0.4777847   0.0657393), wk =   0.0104167
        k(   67) = (   0.0625000   0.4777847   0.1314787), wk =   0.0104167
        k(   68) = (   0.0625000   0.4777847  -0.1972180), wk =   0.0052083
        k(   69) = (   0.0625000  -0.5460397   0.0000000), wk =   0.0026042
        k(   70) = (   0.0625000  -0.5460397   0.0657393), wk =   0.0052083
        k(   71) = (   0.0625000  -0.5460397   0.1314787), wk =   0.0052083
        k(   72) = (   0.0625000  -0.5460397  -0.1972180), wk =   0.0026042
        k(   73) = (   0.1250000   0.0000000   0.0000000), wk =   0.0026042
        k(   74) = (   0.1250000   0.0000000   0.0657393), wk =   0.0052083
        k(   75) = (   0.1250000   0.0000000   0.1314787), wk =   0.0052083
        k(   76) = (   0.1250000   0.0000000  -0.1972180), wk =   0.0026042
        k(   77) = (   0.1250000   0.0682550   0.0000000), wk =   0.0052083
        k(   78) = (   0.1250000   0.0682550   0.0657393), wk =   0.0104167
        k(   79) = (   0.1250000   0.0682550   0.1314787), wk =   0.0104167
        k(   80) = (   0.1250000   0.0682550  -0.1972180), wk =   0.0052083
        k(   81) = (   0.1250000   0.1365099   0.0000000), wk =   0.0052083
        k(   82) = (   0.1250000   0.1365099   0.0657393), wk =   0.0104167
        k(   83) = (   0.1250000   0.1365099   0.1314787), wk =   0.0104167
        k(   84) = (   0.1250000   0.1365099  -0.1972180), wk =   0.0052083
        k(   85) = (   0.1250000   0.2047649   0.0000000), wk =   0.0052083
        k(   86) = (   0.1250000   0.2047649   0.0657393), wk =   0.0104167
        k(   87) = (   0.1250000   0.2047649   0.1314787), wk =   0.0104167
        k(   88) = (   0.1250000   0.2047649  -0.1972180), wk =   0.0052083
        k(   89) = (   0.1250000   0.2730198   0.0000000), wk =   0.0052083
        k(   90) = (   0.1250000   0.2730198   0.0657393), wk =   0.0104167
        k(   91) = (   0.1250000   0.2730198   0.1314787), wk =   0.0104167
        k(   92) = (   0.1250000   0.2730198  -0.1972180), wk =   0.0052083
        k(   93) = (   0.1250000   0.3412748   0.0000000), wk =   0.0052083
        k(   94) = (   0.1250000   0.3412748   0.0657393), wk =   0.0104167
        k(   95) = (   0.1250000   0.3412748   0.1314787), wk =   0.0104167
        k(   96) = (   0.1250000   0.3412748  -0.1972180), wk =   0.0052083
        k(   97) = (   0.1250000   0.4095298   0.0000000), wk =   0.0052083
        k(   98) = (   0.1250000   0.4095298   0.0657393), wk =   0.0104167
        k(   99) = (   0.1250000   0.4095298   0.1314787), wk =   0.0104167
        k(  100) = (   0.1250000   0.4095298  -0.1972180), wk =   0.0052083
        k(  101) = (   0.1250000   0.4777847   0.0000000), wk =   0.0052083
        k(  102) = (   0.1250000   0.4777847   0.0657393), wk =   0.0104167
        k(  103) = (   0.1250000   0.4777847   0.1314787), wk =   0.0104167
        k(  104) = (   0.1250000   0.4777847  -0.1972180), wk =   0.0052083
        k(  105) = (   0.1250000  -0.5460397   0.0000000), wk =   0.0026042
        k(  106) = (   0.1250000  -0.5460397   0.0657393), wk =   0.0052083
        k(  107) = (   0.1250000  -0.5460397   0.1314787), wk =   0.0052083
        k(  108) = (   0.1250000  -0.5460397  -0.1972180), wk =   0.0026042
        k(  109) = (   0.1875000   0.0000000   0.0000000), wk =   0.0026042
        k(  110) = (   0.1875000   0.0000000   0.0657393), wk =   0.0052083
        k(  111) = (   0.1875000   0.0000000   0.1314787), wk =   0.0052083
        k(  112) = (   0.1875000   0.0000000  -0.1972180), wk =   0.0026042
        k(  113) = (   0.1875000   0.0682550   0.0000000), wk =   0.0052083
        k(  114) = (   0.1875000   0.0682550   0.0657393), wk =   0.0104167
        k(  115) = (   0.1875000   0.0682550   0.1314787), wk =   0.0104167
        k(  116) = (   0.1875000   0.0682550  -0.1972180), wk =   0.0052083
        k(  117) = (   0.1875000   0.1365099   0.0000000), wk =   0.0052083
        k(  118) = (   0.1875000   0.1365099   0.0657393), wk =   0.0104167
        k(  119) = (   0.1875000   0.1365099   0.1314787), wk =   0.0104167
        k(  120) = (   0.1875000   0.1365099  -0.1972180), wk =   0.0052083
        k(  121) = (   0.1875000   0.2047649   0.0000000), wk =   0.0052083
        k(  122) = (   0.1875000   0.2047649   0.0657393), wk =   0.0104167
        k(  123) = (   0.1875000   0.2047649   0.1314787), wk =   0.0104167
        k(  124) = (   0.1875000   0.2047649  -0.1972180), wk =   0.0052083
        k(  125) = (   0.1875000   0.2730198   0.0000000), wk =   0.0052083
        k(  126) = (   0.1875000   0.2730198   0.0657393), wk =   0.0104167
        k(  127) = (   0.1875000   0.2730198   0.1314787), wk =   0.0104167
        k(  128) = (   0.1875000   0.2730198  -0.1972180), wk =   0.0052083
        k(  129) = (   0.1875000   0.3412748   0.0000000), wk =   0.0052083
        k(  130) = (   0.1875000   0.3412748   0.0657393), wk =   0.0104167
        k(  131) = (   0.1875000   0.3412748   0.1314787), wk =   0.0104167
        k(  132) = (   0.1875000   0.3412748  -0.1972180), wk =   0.0052083
        k(  133) = (   0.1875000   0.4095298   0.0000000), wk =   0.0052083
        k(  134) = (   0.1875000   0.4095298   0.0657393), wk =   0.0104167
        k(  135) = (   0.1875000   0.4095298   0.1314787), wk =   0.0104167
        k(  136) = (   0.1875000   0.4095298  -0.1972180), wk =   0.0052083
        k(  137) = (   0.1875000   0.4777847   0.0000000), wk =   0.0052083
        k(  138) = (   0.1875000   0.4777847   0.0657393), wk =   0.0104167
        k(  139) = (   0.1875000   0.4777847   0.1314787), wk =   0.0104167
        k(  140) = (   0.1875000   0.4777847  -0.1972180), wk =   0.0052083
        k(  141) = (   0.1875000  -0.5460397   0.0000000), wk =   0.0026042
        k(  142) = (   0.1875000  -0.5460397   0.0657393), wk =   0.0052083
        k(  143) = (   0.1875000  -0.5460397   0.1314787), wk =   0.0052083
        k(  144) = (   0.1875000  -0.5460397  -0.1972180), wk =   0.0026042
        k(  145) = (   0.2500000   0.0000000   0.0000000), wk =   0.0026042
        k(  146) = (   0.2500000   0.0000000   0.0657393), wk =   0.0052083
        k(  147) = (   0.2500000   0.0000000   0.1314787), wk =   0.0052083
        k(  148) = (   0.2500000   0.0000000  -0.1972180), wk =   0.0026042
        k(  149) = (   0.2500000   0.0682550   0.0000000), wk =   0.0052083
        k(  150) = (   0.2500000   0.0682550   0.0657393), wk =   0.0104167
        k(  151) = (   0.2500000   0.0682550   0.1314787), wk =   0.0104167
        k(  152) = (   0.2500000   0.0682550  -0.1972180), wk =   0.0052083
        k(  153) = (   0.2500000   0.1365099   0.0000000), wk =   0.0052083
        k(  154) = (   0.2500000   0.1365099   0.0657393), wk =   0.0104167
        k(  155) = (   0.2500000   0.1365099   0.1314787), wk =   0.0104167
        k(  156) = (   0.2500000   0.1365099  -0.1972180), wk =   0.0052083
        k(  157) = (   0.2500000   0.2047649   0.0000000), wk =   0.0052083
        k(  158) = (   0.2500000   0.2047649   0.0657393), wk =   0.0104167
        k(  159) = (   0.2500000   0.2047649   0.1314787), wk =   0.0104167
        k(  160) = (   0.2500000   0.2047649  -0.1972180), wk =   0.0052083
        k(  161) = (   0.2500000   0.2730198   0.0000000), wk =   0.0052083
        k(  162) = (   0.2500000   0.2730198   0.0657393), wk =   0.0104167
        k(  163) = (   0.2500000   0.2730198   0.1314787), wk =   0.0104167
        k(  164) = (   0.2500000   0.2730198  -0.1972180), wk =   0.0052083
        k(  165) = (   0.2500000   0.3412748   0.0000000), wk =   0.0052083
        k(  166) = (   0.2500000   0.3412748   0.0657393), wk =   0.0104167
        k(  167) = (   0.2500000   0.3412748   0.1314787), wk =   0.0104167
        k(  168) = (   0.2500000   0.3412748  -0.1972180), wk =   0.0052083
        k(  169) = (   0.2500000   0.4095298   0.0000000), wk =   0.0052083
        k(  170) = (   0.2500000   0.4095298   0.0657393), wk =   0.0104167
        k(  171) = (   0.2500000   0.4095298   0.1314787), wk =   0.0104167
        k(  172) = (   0.2500000   0.4095298  -0.1972180), wk =   0.0052083
        k(  173) = (   0.2500000   0.4777847   0.0000000), wk =   0.0052083
        k(  174) = (   0.2500000   0.4777847   0.0657393), wk =   0.0104167
        k(  175) = (   0.2500000   0.4777847   0.1314787), wk =   0.0104167
        k(  176) = (   0.2500000   0.4777847  -0.1972180), wk =   0.0052083
        k(  177) = (   0.2500000  -0.5460397   0.0000000), wk =   0.0026042
        k(  178) = (   0.2500000  -0.5460397   0.0657393), wk =   0.0052083
        k(  179) = (   0.2500000  -0.5460397   0.1314787), wk =   0.0052083
        k(  180) = (   0.2500000  -0.5460397  -0.1972180), wk =   0.0026042
        k(  181) = (   0.3125000   0.0000000   0.0000000), wk =   0.0026042
        k(  182) = (   0.3125000   0.0000000   0.0657393), wk =   0.0052083
        k(  183) = (   0.3125000   0.0000000   0.1314787), wk =   0.0052083
        k(  184) = (   0.3125000   0.0000000  -0.1972180), wk =   0.0026042
        k(  185) = (   0.3125000   0.0682550   0.0000000), wk =   0.0052083
        k(  186) = (   0.3125000   0.0682550   0.0657393), wk =   0.0104167
        k(  187) = (   0.3125000   0.0682550   0.1314787), wk =   0.0104167
        k(  188) = (   0.3125000   0.0682550  -0.1972180), wk =   0.0052083
        k(  189) = (   0.3125000   0.1365099   0.0000000), wk =   0.0052083
        k(  190) = (   0.3125000   0.1365099   0.0657393), wk =   0.0104167
        k(  191) = (   0.3125000   0.1365099   0.1314787), wk =   0.0104167
        k(  192) = (   0.3125000   0.1365099  -0.1972180), wk =   0.0052083
        k(  193) = (   0.3125000   0.2047649   0.0000000), wk =   0.0052083
        k(  194) = (   0.3125000   0.2047649   0.0657393), wk =   0.0104167
        k(  195) = (   0.3125000   0.2047649   0.1314787), wk =   0.0104167
        k(  196) = (   0.3125000   0.2047649  -0.1972180), wk =   0.0052083
        k(  197) = (   0.3125000   0.2730198   0.0000000), wk =   0.0052083
        k(  198) = (   0.3125000   0.2730198   0.0657393), wk =   0.0104167
        k(  199) = (   0.3125000   0.2730198   0.1314787), wk =   0.0104167
        k(  200) = (   0.3125000   0.2730198  -0.1972180), wk =   0.0052083
        k(  201) = (   0.3125000   0.3412748   0.0000000), wk =   0.0052083
        k(  202) = (   0.3125000   0.3412748   0.0657393), wk =   0.0104167
        k(  203) = (   0.3125000   0.3412748   0.1314787), wk =   0.0104167
        k(  204) = (   0.3125000   0.3412748  -0.1972180), wk =   0.0052083
        k(  205) = (   0.3125000   0.4095298   0.0000000), wk =   0.0052083
        k(  206) = (   0.3125000   0.4095298   0.0657393), wk =   0.0104167
        k(  207) = (   0.3125000   0.4095298   0.1314787), wk =   0.0104167
        k(  208) = (   0.3125000   0.4095298  -0.1972180), wk =   0.0052083
        k(  209) = (   0.3125000   0.4777847   0.0000000), wk =   0.0052083
        k(  210) = (   0.3125000   0.4777847   0.0657393), wk =   0.0104167
        k(  211) = (   0.3125000   0.4777847   0.1314787), wk =   0.0104167
        k(  212) = (   0.3125000   0.4777847  -0.1972180), wk =   0.0052083
        k(  213) = (   0.3125000  -0.5460397   0.0000000), wk =   0.0026042
        k(  214) = (   0.3125000  -0.5460397   0.0657393), wk =   0.0052083
        k(  215) = (   0.3125000  -0.5460397   0.1314787), wk =   0.0052083
        k(  216) = (   0.3125000  -0.5460397  -0.1972180), wk =   0.0026042
        k(  217) = (   0.3750000   0.0000000   0.0000000), wk =   0.0026042
        k(  218) = (   0.3750000   0.0000000   0.0657393), wk =   0.0052083
        k(  219) = (   0.3750000   0.0000000   0.1314787), wk =   0.0052083
        k(  220) = (   0.3750000   0.0000000  -0.1972180), wk =   0.0026042
        k(  221) = (   0.3750000   0.0682550   0.0000000), wk =   0.0052083
        k(  222) = (   0.3750000   0.0682550   0.0657393), wk =   0.0104167
        k(  223) = (   0.3750000   0.0682550   0.1314787), wk =   0.0104167
        k(  224) = (   0.3750000   0.0682550  -0.1972180), wk =   0.0052083
        k(  225) = (   0.3750000   0.1365099   0.0000000), wk =   0.0052083
        k(  226) = (   0.3750000   0.1365099   0.0657393), wk =   0.0104167
        k(  227) = (   0.3750000   0.1365099   0.1314787), wk =   0.0104167
        k(  228) = (   0.3750000   0.1365099  -0.1972180), wk =   0.0052083
        k(  229) = (   0.3750000   0.2047649   0.0000000), wk =   0.0052083
        k(  230) = (   0.3750000   0.2047649   0.0657393), wk =   0.0104167
        k(  231) = (   0.3750000   0.2047649   0.1314787), wk =   0.0104167
        k(  232) = (   0.3750000   0.2047649  -0.1972180), wk =   0.0052083
        k(  233) = (   0.3750000   0.2730198   0.0000000), wk =   0.0052083
        k(  234) = (   0.3750000   0.2730198   0.0657393), wk =   0.0104167
        k(  235) = (   0.3750000   0.2730198   0.1314787), wk =   0.0104167
        k(  236) = (   0.3750000   0.2730198  -0.1972180), wk =   0.0052083
        k(  237) = (   0.3750000   0.3412748   0.0000000), wk =   0.0052083
        k(  238) = (   0.3750000   0.3412748   0.0657393), wk =   0.0104167
        k(  239) = (   0.3750000   0.3412748   0.1314787), wk =   0.0104167
        k(  240) = (   0.3750000   0.3412748  -0.1972180), wk =   0.0052083
        k(  241) = (   0.3750000   0.4095298   0.0000000), wk =   0.0052083
        k(  242) = (   0.3750000   0.4095298   0.0657393), wk =   0.0104167
        k(  243) = (   0.3750000   0.4095298   0.1314787), wk =   0.0104167
        k(  244) = (   0.3750000   0.4095298  -0.1972180), wk =   0.0052083
        k(  245) = (   0.3750000   0.4777847   0.0000000), wk =   0.0052083
        k(  246) = (   0.3750000   0.4777847   0.0657393), wk =   0.0104167
        k(  247) = (   0.3750000   0.4777847   0.1314787), wk =   0.0104167
        k(  248) = (   0.3750000   0.4777847  -0.1972180), wk =   0.0052083
        k(  249) = (   0.3750000  -0.5460397   0.0000000), wk =   0.0026042
        k(  250) = (   0.3750000  -0.5460397   0.0657393), wk =   0.0052083
        k(  251) = (   0.3750000  -0.5460397   0.1314787), wk =   0.0052083
        k(  252) = (   0.3750000  -0.5460397  -0.1972180), wk =   0.0026042
        k(  253) = (   0.4375000   0.0000000   0.0000000), wk =   0.0026042
        k(  254) = (   0.4375000   0.0000000   0.0657393), wk =   0.0052083
        k(  255) = (   0.4375000   0.0000000   0.1314787), wk =   0.0052083
        k(  256) = (   0.4375000   0.0000000  -0.1972180), wk =   0.0026042
        k(  257) = (   0.4375000   0.0682550   0.0000000), wk =   0.0052083
        k(  258) = (   0.4375000   0.0682550   0.0657393), wk =   0.0104167
        k(  259) = (   0.4375000   0.0682550   0.1314787), wk =   0.0104167
        k(  260) = (   0.4375000   0.0682550  -0.1972180), wk =   0.0052083
        k(  261) = (   0.4375000   0.1365099   0.0000000), wk =   0.0052083
        k(  262) = (   0.4375000   0.1365099   0.0657393), wk =   0.0104167
        k(  263) = (   0.4375000   0.1365099   0.1314787), wk =   0.0104167
        k(  264) = (   0.4375000   0.1365099  -0.1972180), wk =   0.0052083
        k(  265) = (   0.4375000   0.2047649   0.0000000), wk =   0.0052083
        k(  266) = (   0.4375000   0.2047649   0.0657393), wk =   0.0104167
        k(  267) = (   0.4375000   0.2047649   0.1314787), wk =   0.0104167
        k(  268) = (   0.4375000   0.2047649  -0.1972180), wk =   0.0052083
        k(  269) = (   0.4375000   0.2730198   0.0000000), wk =   0.0052083
        k(  270) = (   0.4375000   0.2730198   0.0657393), wk =   0.0104167
        k(  271) = (   0.4375000   0.2730198   0.1314787), wk =   0.0104167
        k(  272) = (   0.4375000   0.2730198  -0.1972180), wk =   0.0052083
        k(  273) = (   0.4375000   0.3412748   0.0000000), wk =   0.0052083
        k(  274) = (   0.4375000   0.3412748   0.0657393), wk =   0.0104167
        k(  275) = (   0.4375000   0.3412748   0.1314787), wk =   0.0104167
        k(  276) = (   0.4375000   0.3412748  -0.1972180), wk =   0.0052083
        k(  277) = (   0.4375000   0.4095298   0.0000000), wk =   0.0052083
        k(  278) = (   0.4375000   0.4095298   0.0657393), wk =   0.0104167
        k(  279) = (   0.4375000   0.4095298   0.1314787), wk =   0.0104167
        k(  280) = (   0.4375000   0.4095298  -0.1972180), wk =   0.0052083
        k(  281) = (   0.4375000   0.4777847   0.0000000), wk =   0.0052083
        k(  282) = (   0.4375000   0.4777847   0.0657393), wk =   0.0104167
        k(  283) = (   0.4375000   0.4777847   0.1314787), wk =   0.0104167
        k(  284) = (   0.4375000   0.4777847  -0.1972180), wk =   0.0052083
        k(  285) = (   0.4375000  -0.5460397   0.0000000), wk =   0.0026042
        k(  286) = (   0.4375000  -0.5460397   0.0657393), wk =   0.0052083
        k(  287) = (   0.4375000  -0.5460397   0.1314787), wk =   0.0052083
        k(  288) = (   0.4375000  -0.5460397  -0.1972180), wk =   0.0026042
        k(  289) = (  -0.5000000   0.0000000   0.0000000), wk =   0.0013021
        k(  290) = (  -0.5000000   0.0000000   0.0657393), wk =   0.0026042
        k(  291) = (  -0.5000000   0.0000000   0.1314787), wk =   0.0026042
        k(  292) = (  -0.5000000   0.0000000  -0.1972180), wk =   0.0013021
        k(  293) = (  -0.5000000   0.0682550   0.0000000), wk =   0.0026042
        k(  294) = (  -0.5000000   0.0682550   0.0657393), wk =   0.0052083
        k(  295) = (  -0.5000000   0.0682550   0.1314787), wk =   0.0052083
        k(  296) = (  -0.5000000   0.0682550  -0.1972180), wk =   0.0026042
        k(  297) = (  -0.5000000   0.1365099   0.0000000), wk =   0.0026042
        k(  298) = (  -0.5000000   0.1365099   0.0657393), wk =   0.0052083
        k(  299) = (  -0.5000000   0.1365099   0.1314787), wk =   0.0052083
        k(  300) = (  -0.5000000   0.1365099  -0.1972180), wk =   0.0026042
        k(  301) = (  -0.5000000   0.2047649   0.0000000), wk =   0.0026042
        k(  302) = (  -0.5000000   0.2047649   0.0657393), wk =   0.0052083
        k(  303) = (  -0.5000000   0.2047649   0.1314787), wk =   0.0052083
        k(  304) = (  -0.5000000   0.2047649  -0.1972180), wk =   0.0026042
        k(  305) = (  -0.5000000   0.2730198   0.0000000), wk =   0.0026042
        k(  306) = (  -0.5000000   0.2730198   0.0657393), wk =   0.0052083
        k(  307) = (  -0.5000000   0.2730198   0.1314787), wk =   0.0052083
        k(  308) = (  -0.5000000   0.2730198  -0.1972180), wk =   0.0026042
        k(  309) = (  -0.5000000   0.3412748   0.0000000), wk =   0.0026042
        k(  310) = (  -0.5000000   0.3412748   0.0657393), wk =   0.0052083
        k(  311) = (  -0.5000000   0.3412748   0.1314787), wk =   0.0052083
        k(  312) = (  -0.5000000   0.3412748  -0.1972180), wk =   0.0026042
        k(  313) = (  -0.5000000   0.4095298   0.0000000), wk =   0.0026042
        k(  314) = (  -0.5000000   0.4095298   0.0657393), wk =   0.0052083
        k(  315) = (  -0.5000000   0.4095298   0.1314787), wk =   0.0052083
        k(  316) = (  -0.5000000   0.4095298  -0.1972180), wk =   0.0026042
        k(  317) = (  -0.5000000   0.4777847   0.0000000), wk =   0.0026042
        k(  318) = (  -0.5000000   0.4777847   0.0657393), wk =   0.0052083
        k(  319) = (  -0.5000000   0.4777847   0.1314787), wk =   0.0052083
        k(  320) = (  -0.5000000   0.4777847  -0.1972180), wk =   0.0026042
        k(  321) = (  -0.5000000  -0.5460397   0.0000000), wk =   0.0013021
        k(  322) = (  -0.5000000  -0.5460397   0.0657393), wk =   0.0026042
        k(  323) = (  -0.5000000  -0.5460397   0.1314787), wk =   0.0026042
        k(  324) = (  -0.5000000  -0.5460397  -0.1972180), wk =   0.0013021

                       cryst. coord.
        k(    1) = (   0.0000000   0.0000000   0.0000000), wk =   0.0013021
        k(    2) = (   0.0000000   0.0000000   0.1666667), wk =   0.0026042
        k(    3) = (   0.0000000   0.0000000   0.3333333), wk =   0.0026042
        k(    4) = (   0.0000000   0.0000000  -0.5000000), wk =   0.0013021
        k(    5) = (   0.0000000   0.0625000   0.0000000), wk =   0.0026042
        k(    6) = (   0.0000000   0.0625000   0.1666667), wk =   0.0052083
        k(    7) = (   0.0000000   0.0625000   0.3333333), wk =   0.0052083
        k(    8) = (   0.0000000   0.0625000  -0.5000000), wk =   0.0026042
        k(    9) = (   0.0000000   0.1250000   0.0000000), wk =   0.0026042
        k(   10) = (   0.0000000   0.1250000   0.1666667), wk =   0.0052083
        k(   11) = (   0.0000000   0.1250000   0.3333333), wk =   0.0052083
        k(   12) = (   0.0000000   0.1250000  -0.5000000), wk =   0.0026042
        k(   13) = (   0.0000000   0.1875000   0.0000000), wk =   0.0026042
        k(   14) = (   0.0000000   0.1875000   0.1666667), wk =   0.0052083
        k(   15) = (   0.0000000   0.1875000   0.3333333), wk =   0.0052083
        k(   16) = (   0.0000000   0.1875000  -0.5000000), wk =   0.0026042
        k(   17) = (   0.0000000   0.2500000   0.0000000), wk =   0.0026042
        k(   18) = (   0.0000000   0.2500000   0.1666667), wk =   0.0052083
        k(   19) = (   0.0000000   0.2500000   0.3333333), wk =   0.0052083
        k(   20) = (   0.0000000   0.2500000  -0.5000000), wk =   0.0026042
        k(   21) = (   0.0000000   0.3125000   0.0000000), wk =   0.0026042
        k(   22) = (   0.0000000   0.3125000   0.1666667), wk =   0.0052083
        k(   23) = (   0.0000000   0.3125000   0.3333333), wk =   0.0052083
        k(   24) = (   0.0000000   0.3125000  -0.5000000), wk =   0.0026042
        k(   25) = (   0.0000000   0.3750000   0.0000000), wk =   0.0026042
        k(   26) = (   0.0000000   0.3750000   0.1666667), wk =   0.0052083
        k(   27) = (   0.0000000   0.3750000   0.3333333), wk =   0.0052083
        k(   28) = (   0.0000000   0.3750000  -0.5000000), wk =   0.0026042
        k(   29) = (   0.0000000   0.4375000   0.0000000), wk =   0.0026042
        k(   30) = (   0.0000000   0.4375000   0.1666667), wk =   0.0052083
        k(   31) = (   0.0000000   0.4375000   0.3333333), wk =   0.0052083
        k(   32) = (   0.0000000   0.4375000  -0.5000000), wk =   0.0026042
        k(   33) = (   0.0000000  -0.5000000   0.0000000), wk =   0.0013021
        k(   34) = (   0.0000000  -0.5000000   0.1666667), wk =   0.0026042
        k(   35) = (   0.0000000  -0.5000000   0.3333333), wk =   0.0026042
        k(   36) = (   0.0000000  -0.5000000  -0.5000000), wk =   0.0013021
        k(   37) = (   0.0625000   0.0000000   0.0000000), wk =   0.0026042
        k(   38) = (   0.0625000   0.0000000   0.1666667), wk =   0.0052083
        k(   39) = (   0.0625000   0.0000000   0.3333333), wk =   0.0052083
        k(   40) = (   0.0625000   0.0000000  -0.5000000), wk =   0.0026042
        k(   41) = (   0.0625000   0.0625000   0.0000000), wk =   0.0052083
        k(   42) = (   0.0625000   0.0625000   0.1666667), wk =   0.0104167
        k(   43) = (   0.0625000   0.0625000   0.3333333), wk =   0.0104167
        k(   44) = (   0.0625000   0.0625000  -0.5000000), wk =   0.0052083
        k(   45) = (   0.0625000   0.1250000   0.0000000), wk =   0.0052083
        k(   46) = (   0.0625000   0.1250000   0.1666667), wk =   0.0104167
        k(   47) = (   0.0625000   0.1250000   0.3333333), wk =   0.0104167
        k(   48) = (   0.0625000   0.1250000  -0.5000000), wk =   0.0052083
        k(   49) = (   0.0625000   0.1875000   0.0000000), wk =   0.0052083
        k(   50) = (   0.0625000   0.1875000   0.1666667), wk =   0.0104167
        k(   51) = (   0.0625000   0.1875000   0.3333333), wk =   0.0104167
        k(   52) = (   0.0625000   0.1875000  -0.5000000), wk =   0.0052083
        k(   53) = (   0.0625000   0.2500000   0.0000000), wk =   0.0052083
        k(   54) = (   0.0625000   0.2500000   0.1666667), wk =   0.0104167
        k(   55) = (   0.0625000   0.2500000   0.3333333), wk =   0.0104167
        k(   56) = (   0.0625000   0.2500000  -0.5000000), wk =   0.0052083
        k(   57) = (   0.0625000   0.3125000   0.0000000), wk =   0.0052083
        k(   58) = (   0.0625000   0.3125000   0.1666667), wk =   0.0104167
        k(   59) = (   0.0625000   0.3125000   0.3333333), wk =   0.0104167
        k(   60) = (   0.0625000   0.3125000  -0.5000000), wk =   0.0052083
        k(   61) = (   0.0625000   0.3750000   0.0000000), wk =   0.0052083
        k(   62) = (   0.0625000   0.3750000   0.1666667), wk =   0.0104167
        k(   63) = (   0.0625000   0.3750000   0.3333333), wk =   0.0104167
        k(   64) = (   0.0625000   0.3750000  -0.5000000), wk =   0.0052083
        k(   65) = (   0.0625000   0.4375000   0.0000000), wk =   0.0052083
        k(   66) = (   0.0625000   0.4375000   0.1666667), wk =   0.0104167
        k(   67) = (   0.0625000   0.4375000   0.3333333), wk =   0.0104167
        k(   68) = (   0.0625000   0.4375000  -0.5000000), wk =   0.0052083
        k(   69) = (   0.0625000  -0.5000000   0.0000000), wk =   0.0026042
        k(   70) = (   0.0625000  -0.5000000   0.1666667), wk =   0.0052083
        k(   71) = (   0.0625000  -0.5000000   0.3333333), wk =   0.0052083
        k(   72) = (   0.0625000  -0.5000000  -0.5000000), wk =   0.0026042
        k(   73) = (   0.1250000   0.0000000   0.0000000), wk =   0.0026042
        k(   74) = (   0.1250000   0.0000000   0.1666667), wk =   0.0052083
        k(   75) = (   0.1250000   0.0000000   0.3333333), wk =   0.0052083
        k(   76) = (   0.1250000   0.0000000  -0.5000000), wk =   0.0026042
        k(   77) = (   0.1250000   0.0625000   0.0000000), wk =   0.0052083
        k(   78) = (   0.1250000   0.0625000   0.1666667), wk =   0.0104167
        k(   79) = (   0.1250000   0.0625000   0.3333333), wk =   0.0104167
        k(   80) = (   0.1250000   0.0625000  -0.5000000), wk =   0.0052083
        k(   81) = (   0.1250000   0.1250000   0.0000000), wk =   0.0052083
        k(   82) = (   0.1250000   0.1250000   0.1666667), wk =   0.0104167
        k(   83) = (   0.1250000   0.1250000   0.3333333), wk =   0.0104167
        k(   84) = (   0.1250000   0.1250000  -0.5000000), wk =   0.0052083
        k(   85) = (   0.1250000   0.1875000   0.0000000), wk =   0.0052083
        k(   86) = (   0.1250000   0.1875000   0.1666667), wk =   0.0104167
        k(   87) = (   0.1250000   0.1875000   0.3333333), wk =   0.0104167
        k(   88) = (   0.1250000   0.1875000  -0.5000000), wk =   0.0052083
        k(   89) = (   0.1250000   0.2500000   0.0000000), wk =   0.0052083
        k(   90) = (   0.1250000   0.2500000   0.1666667), wk =   0.0104167
        k(   91) = (   0.1250000   0.2500000   0.3333333), wk =   0.0104167
        k(   92) = (   0.1250000   0.2500000  -0.5000000), wk =   0.0052083
        k(   93) = (   0.1250000   0.3125000   0.0000000), wk =   0.0052083
        k(   94) = (   0.1250000   0.3125000   0.1666667), wk =   0.0104167
        k(   95) = (   0.1250000   0.3125000   0.3333333), wk =   0.0104167
        k(   96) = (   0.1250000   0.3125000  -0.5000000), wk =   0.0052083
        k(   97) = (   0.1250000   0.3750000   0.0000000), wk =   0.0052083
        k(   98) = (   0.1250000   0.3750000   0.1666667), wk =   0.0104167
        k(   99) = (   0.1250000   0.3750000   0.3333333), wk =   0.0104167
        k(  100) = (   0.1250000   0.3750000  -0.5000000), wk =   0.0052083
        k(  101) = (   0.1250000   0.4375000   0.0000000), wk =   0.0052083
        k(  102) = (   0.1250000   0.4375000   0.1666667), wk =   0.0104167
        k(  103) = (   0.1250000   0.4375000   0.3333333), wk =   0.0104167
        k(  104) = (   0.1250000   0.4375000  -0.5000000), wk =   0.0052083
        k(  105) = (   0.1250000  -0.5000000   0.0000000), wk =   0.0026042
        k(  106) = (   0.1250000  -0.5000000   0.1666667), wk =   0.0052083
        k(  107) = (   0.1250000  -0.5000000   0.3333333), wk =   0.0052083
        k(  108) = (   0.1250000  -0.5000000  -0.5000000), wk =   0.0026042
        k(  109) = (   0.1875000   0.0000000   0.0000000), wk =   0.0026042
        k(  110) = (   0.1875000   0.0000000   0.1666667), wk =   0.0052083
        k(  111) = (   0.1875000   0.0000000   0.3333333), wk =   0.0052083
        k(  112) = (   0.1875000   0.0000000  -0.5000000), wk =   0.0026042
        k(  113) = (   0.1875000   0.0625000   0.0000000), wk =   0.0052083
        k(  114) = (   0.1875000   0.0625000   0.1666667), wk =   0.0104167
        k(  115) = (   0.1875000   0.0625000   0.3333333), wk =   0.0104167
        k(  116) = (   0.1875000   0.0625000  -0.5000000), wk =   0.0052083
        k(  117) = (   0.1875000   0.1250000   0.0000000), wk =   0.0052083
        k(  118) = (   0.1875000   0.1250000   0.1666667), wk =   0.0104167
        k(  119) = (   0.1875000   0.1250000   0.3333333), wk =   0.0104167
        k(  120) = (   0.1875000   0.1250000  -0.5000000), wk =   0.0052083
        k(  121) = (   0.1875000   0.1875000   0.0000000), wk =   0.0052083
        k(  122) = (   0.1875000   0.1875000   0.1666667), wk =   0.0104167
        k(  123) = (   0.1875000   0.1875000   0.3333333), wk =   0.0104167
        k(  124) = (   0.1875000   0.1875000  -0.5000000), wk =   0.0052083
        k(  125) = (   0.1875000   0.2500000   0.0000000), wk =   0.0052083
        k(  126) = (   0.1875000   0.2500000   0.1666667), wk =   0.0104167
        k(  127) = (   0.1875000   0.2500000   0.3333333), wk =   0.0104167
        k(  128) = (   0.1875000   0.2500000  -0.5000000), wk =   0.0052083
        k(  129) = (   0.1875000   0.3125000   0.0000000), wk =   0.0052083
        k(  130) = (   0.1875000   0.3125000   0.1666667), wk =   0.0104167
        k(  131) = (   0.1875000   0.3125000   0.3333333), wk =   0.0104167
        k(  132) = (   0.1875000   0.3125000  -0.5000000), wk =   0.0052083
        k(  133) = (   0.1875000   0.3750000   0.0000000), wk =   0.0052083
        k(  134) = (   0.1875000   0.3750000   0.1666667), wk =   0.0104167
        k(  135) = (   0.1875000   0.3750000   0.3333333), wk =   0.0104167
        k(  136) = (   0.1875000   0.3750000  -0.5000000), wk =   0.0052083
        k(  137) = (   0.1875000   0.4375000   0.0000000), wk =   0.0052083
        k(  138) = (   0.1875000   0.4375000   0.1666667), wk =   0.0104167
        k(  139) = (   0.1875000   0.4375000   0.3333333), wk =   0.0104167
        k(  140) = (   0.1875000   0.4375000  -0.5000000), wk =   0.0052083
        k(  141) = (   0.1875000  -0.5000000   0.0000000), wk =   0.0026042
        k(  142) = (   0.1875000  -0.5000000   0.1666667), wk =   0.0052083
        k(  143) = (   0.1875000  -0.5000000   0.3333333), wk =   0.0052083
        k(  144) = (   0.1875000  -0.5000000  -0.5000000), wk =   0.0026042
        k(  145) = (   0.2500000   0.0000000   0.0000000), wk =   0.0026042
        k(  146) = (   0.2500000   0.0000000   0.1666667), wk =   0.0052083
        k(  147) = (   0.2500000   0.0000000   0.3333333), wk =   0.0052083
        k(  148) = (   0.2500000   0.0000000  -0.5000000), wk =   0.0026042
        k(  149) = (   0.2500000   0.0625000   0.0000000), wk =   0.0052083
        k(  150) = (   0.2500000   0.0625000   0.1666667), wk =   0.0104167
        k(  151) = (   0.2500000   0.0625000   0.3333333), wk =   0.0104167
        k(  152) = (   0.2500000   0.0625000  -0.5000000), wk =   0.0052083
        k(  153) = (   0.2500000   0.1250000   0.0000000), wk =   0.0052083
        k(  154) = (   0.2500000   0.1250000   0.1666667), wk =   0.0104167
        k(  155) = (   0.2500000   0.1250000   0.3333333), wk =   0.0104167
        k(  156) = (   0.2500000   0.1250000  -0.5000000), wk =   0.0052083
        k(  157) = (   0.2500000   0.1875000   0.0000000), wk =   0.0052083
        k(  158) = (   0.2500000   0.1875000   0.1666667), wk =   0.0104167
        k(  159) = (   0.2500000   0.1875000   0.3333333), wk =   0.0104167
        k(  160) = (   0.2500000   0.1875000  -0.5000000), wk =   0.0052083
        k(  161) = (   0.2500000   0.2500000   0.0000000), wk =   0.0052083
        k(  162) = (   0.2500000   0.2500000   0.1666667), wk =   0.0104167
        k(  163) = (   0.2500000   0.2500000   0.3333333), wk =   0.0104167
        k(  164) = (   0.2500000   0.2500000  -0.5000000), wk =   0.0052083
        k(  165) = (   0.2500000   0.3125000   0.0000000), wk =   0.0052083
        k(  166) = (   0.2500000   0.3125000   0.1666667), wk =   0.0104167
        k(  167) = (   0.2500000   0.3125000   0.3333333), wk =   0.0104167
        k(  168) = (   0.2500000   0.3125000  -0.5000000), wk =   0.0052083
        k(  169) = (   0.2500000   0.3750000   0.0000000), wk =   0.0052083
        k(  170) = (   0.2500000   0.3750000   0.1666667), wk =   0.0104167
        k(  171) = (   0.2500000   0.3750000   0.3333333), wk =   0.0104167
        k(  172) = (   0.2500000   0.3750000  -0.5000000), wk =   0.0052083
        k(  173) = (   0.2500000   0.4375000   0.0000000), wk =   0.0052083
        k(  174) = (   0.2500000   0.4375000   0.1666667), wk =   0.0104167
        k(  175) = (   0.2500000   0.4375000   0.3333333), wk =   0.0104167
        k(  176) = (   0.2500000   0.4375000  -0.5000000), wk =   0.0052083
        k(  177) = (   0.2500000  -0.5000000   0.0000000), wk =   0.0026042
        k(  178) = (   0.2500000  -0.5000000   0.1666667), wk =   0.0052083
        k(  179) = (   0.2500000  -0.5000000   0.3333333), wk =   0.0052083
        k(  180) = (   0.2500000  -0.5000000  -0.5000000), wk =   0.0026042
        k(  181) = (   0.3125000   0.0000000   0.0000000), wk =   0.0026042
        k(  182) = (   0.3125000   0.0000000   0.1666667), wk =   0.0052083
        k(  183) = (   0.3125000   0.0000000   0.3333333), wk =   0.0052083
        k(  184) = (   0.3125000   0.0000000  -0.5000000), wk =   0.0026042
        k(  185) = (   0.3125000   0.0625000   0.0000000), wk =   0.0052083
        k(  186) = (   0.3125000   0.0625000   0.1666667), wk =   0.0104167
        k(  187) = (   0.3125000   0.0625000   0.3333333), wk =   0.0104167
        k(  188) = (   0.3125000   0.0625000  -0.5000000), wk =   0.0052083
        k(  189) = (   0.3125000   0.1250000   0.0000000), wk =   0.0052083
        k(  190) = (   0.3125000   0.1250000   0.1666667), wk =   0.0104167
        k(  191) = (   0.3125000   0.1250000   0.3333333), wk =   0.0104167
        k(  192) = (   0.3125000   0.1250000  -0.5000000), wk =   0.0052083
        k(  193) = (   0.3125000   0.1875000   0.0000000), wk =   0.0052083
        k(  194) = (   0.3125000   0.1875000   0.1666667), wk =   0.0104167
        k(  195) = (   0.3125000   0.1875000   0.3333333), wk =   0.0104167
        k(  196) = (   0.3125000   0.1875000  -0.5000000), wk =   0.0052083
        k(  197) = (   0.3125000   0.2500000   0.0000000), wk =   0.0052083
        k(  198) = (   0.3125000   0.2500000   0.1666667), wk =   0.0104167
        k(  199) = (   0.3125000   0.2500000   0.3333333), wk =   0.0104167
        k(  200) = (   0.3125000   0.2500000  -0.5000000), wk =   0.0052083
        k(  201) = (   0.3125000   0.3125000   0.0000000), wk =   0.0052083
        k(  202) = (   0.3125000   0.3125000   0.1666667), wk =   0.0104167
        k(  203) = (   0.3125000   0.3125000   0.3333333), wk =   0.0104167
        k(  204) = (   0.3125000   0.3125000  -0.5000000), wk =   0.0052083
        k(  205) = (   0.3125000   0.3750000   0.0000000), wk =   0.0052083
        k(  206) = (   0.3125000   0.3750000   0.1666667), wk =   0.0104167
        k(  207) = (   0.3125000   0.3750000   0.3333333), wk =   0.0104167
        k(  208) = (   0.3125000   0.3750000  -0.5000000), wk =   0.0052083
        k(  209) = (   0.3125000   0.4375000   0.0000000), wk =   0.0052083
        k(  210) = (   0.3125000   0.4375000   0.1666667), wk =   0.0104167
        k(  211) = (   0.3125000   0.4375000   0.3333333), wk =   0.0104167
        k(  212) = (   0.3125000   0.4375000  -0.5000000), wk =   0.0052083
        k(  213) = (   0.3125000  -0.5000000   0.0000000), wk =   0.0026042
        k(  214) = (   0.3125000  -0.5000000   0.1666667), wk =   0.0052083
        k(  215) = (   0.3125000  -0.5000000   0.3333333), wk =   0.0052083
        k(  216) = (   0.3125000  -0.5000000  -0.5000000), wk =   0.0026042
        k(  217) = (   0.3750000   0.0000000   0.0000000), wk =   0.0026042
        k(  218) = (   0.3750000   0.0000000   0.1666667), wk =   0.0052083
        k(  219) = (   0.3750000   0.0000000   0.3333333), wk =   0.0052083
        k(  220) = (   0.3750000   0.0000000  -0.5000000), wk =   0.0026042
        k(  221) = (   0.3750000   0.0625000   0.0000000), wk =   0.0052083
        k(  222) = (   0.3750000   0.0625000   0.1666667), wk =   0.0104167
        k(  223) = (   0.3750000   0.0625000   0.3333333), wk =   0.0104167
        k(  224) = (   0.3750000   0.0625000  -0.5000000), wk =   0.0052083
        k(  225) = (   0.3750000   0.1250000   0.0000000), wk =   0.0052083
        k(  226) = (   0.3750000   0.1250000   0.1666667), wk =   0.0104167
        k(  227) = (   0.3750000   0.1250000   0.3333333), wk =   0.0104167
        k(  228) = (   0.3750000   0.1250000  -0.5000000), wk =   0.0052083
        k(  229) = (   0.3750000   0.1875000   0.0000000), wk =   0.0052083
        k(  230) = (   0.3750000   0.1875000   0.1666667), wk =   0.0104167
        k(  231) = (   0.3750000   0.1875000   0.3333333), wk =   0.0104167
        k(  232) = (   0.3750000   0.1875000  -0.5000000), wk =   0.0052083
        k(  233) = (   0.3750000   0.2500000   0.0000000), wk =   0.0052083
        k(  234) = (   0.3750000   0.2500000   0.1666667), wk =   0.0104167
        k(  235) = (   0.3750000   0.2500000   0.3333333), wk =   0.0104167
        k(  236) = (   0.3750000   0.2500000  -0.5000000), wk =   0.0052083
        k(  237) = (   0.3750000   0.3125000   0.0000000), wk =   0.0052083
        k(  238) = (   0.3750000   0.3125000   0.1666667), wk =   0.0104167
        k(  239) = (   0.3750000   0.3125000   0.3333333), wk =   0.0104167
        k(  240) = (   0.3750000   0.3125000  -0.5000000), wk =   0.0052083
        k(  241) = (   0.3750000   0.3750000   0.0000000), wk =   0.0052083
        k(  242) = (   0.3750000   0.3750000   0.1666667), wk =   0.0104167
        k(  243) = (   0.3750000   0.3750000   0.3333333), wk =   0.0104167
        k(  244) = (   0.3750000   0.3750000  -0.5000000), wk =   0.0052083
        k(  245) = (   0.3750000   0.4375000   0.0000000), wk =   0.0052083
        k(  246) = (   0.3750000   0.4375000   0.1666667), wk =   0.0104167
        k(  247) = (   0.3750000   0.4375000   0.3333333), wk =   0.0104167
        k(  248) = (   0.3750000   0.4375000  -0.5000000), wk =   0.0052083
        k(  249) = (   0.3750000  -0.5000000   0.0000000), wk =   0.0026042
        k(  250) = (   0.3750000  -0.5000000   0.1666667), wk =   0.0052083
        k(  251) = (   0.3750000  -0.5000000   0.3333333), wk =   0.0052083
        k(  252) = (   0.3750000  -0.5000000  -0.5000000), wk =   0.0026042
        k(  253) = (   0.4375000   0.0000000   0.0000000), wk =   0.0026042
        k(  254) = (   0.4375000   0.0000000   0.1666667), wk =   0.0052083
        k(  255) = (   0.4375000   0.0000000   0.3333333), wk =   0.0052083
        k(  256) = (   0.4375000   0.0000000  -0.5000000), wk =   0.0026042
        k(  257) = (   0.4375000   0.0625000   0.0000000), wk =   0.0052083
        k(  258) = (   0.4375000   0.0625000   0.1666667), wk =   0.0104167
        k(  259) = (   0.4375000   0.0625000   0.3333333), wk =   0.0104167
        k(  260) = (   0.4375000   0.0625000  -0.5000000), wk =   0.0052083
        k(  261) = (   0.4375000   0.1250000   0.0000000), wk =   0.0052083
        k(  262) = (   0.4375000   0.1250000   0.1666667), wk =   0.0104167
        k(  263) = (   0.4375000   0.1250000   0.3333333), wk =   0.0104167
        k(  264) = (   0.4375000   0.1250000  -0.5000000), wk =   0.0052083
        k(  265) = (   0.4375000   0.1875000   0.0000000), wk =   0.0052083
        k(  266) = (   0.4375000   0.1875000   0.1666667), wk =   0.0104167
        k(  267) = (   0.4375000   0.1875000   0.3333333), wk =   0.0104167
        k(  268) = (   0.4375000   0.1875000  -0.5000000), wk =   0.0052083
        k(  269) = (   0.4375000   0.2500000   0.0000000), wk =   0.0052083
        k(  270) = (   0.4375000   0.2500000   0.1666667), wk =   0.0104167
        k(  271) = (   0.4375000   0.2500000   0.3333333), wk =   0.0104167
        k(  272) = (   0.4375000   0.2500000  -0.5000000), wk =   0.0052083
        k(  273) = (   0.4375000   0.3125000   0.0000000), wk =   0.0052083
        k(  274) = (   0.4375000   0.3125000   0.1666667), wk =   0.0104167
        k(  275) = (   0.4375000   0.3125000   0.3333333), wk =   0.0104167
        k(  276) = (   0.4375000   0.3125000  -0.5000000), wk =   0.0052083
        k(  277) = (   0.4375000   0.3750000   0.0000000), wk =   0.0052083
        k(  278) = (   0.4375000   0.3750000   0.1666667), wk =   0.0104167
        k(  279) = (   0.4375000   0.3750000   0.3333333), wk =   0.0104167
        k(  280) = (   0.4375000   0.3750000  -0.5000000), wk =   0.0052083
        k(  281) = (   0.4375000   0.4375000   0.0000000), wk =   0.0052083
        k(  282) = (   0.4375000   0.4375000   0.1666667), wk =   0.0104167
        k(  283) = (   0.4375000   0.4375000   0.3333333), wk =   0.0104167
        k(  284) = (   0.4375000   0.4375000  -0.5000000), wk =   0.0052083
        k(  285) = (   0.4375000  -0.5000000   0.0000000), wk =   0.0026042
        k(  286) = (   0.4375000  -0.5000000   0.1666667), wk =   0.0052083
        k(  287) = (   0.4375000  -0.5000000   0.3333333), wk =   0.0052083
        k(  288) = (   0.4375000  -0.5000000  -0.5000000), wk =   0.0026042
        k(  289) = (  -0.5000000   0.0000000   0.0000000), wk =   0.0013021
        k(  290) = (  -0.5000000   0.0000000   0.1666667), wk =   0.0026042
        k(  291) = (  -0.5000000   0.0000000   0.3333333), wk =   0.0026042
        k(  292) = (  -0.5000000   0.0000000  -0.5000000), wk =   0.0013021
        k(  293) = (  -0.5000000   0.0625000   0.0000000), wk =   0.0026042
        k(  294) = (  -0.5000000   0.0625000   0.1666667), wk =   0.0052083
        k(  295) = (  -0.5000000   0.0625000   0.3333333), wk =   0.0052083
        k(  296) = (  -0.5000000   0.0625000  -0.5000000), wk =   0.0026042
        k(  297) = (  -0.5000000   0.1250000   0.0000000), wk =   0.0026042
        k(  298) = (  -0.5000000   0.1250000   0.1666667), wk =   0.0052083
        k(  299) = (  -0.5000000   0.1250000   0.3333333), wk =   0.0052083
        k(  300) = (  -0.5000000   0.1250000  -0.5000000), wk =   0.0026042
        k(  301) = (  -0.5000000   0.1875000   0.0000000), wk =   0.0026042
        k(  302) = (  -0.5000000   0.1875000   0.1666667), wk =   0.0052083
        k(  303) = (  -0.5000000   0.1875000   0.3333333), wk =   0.0052083
        k(  304) = (  -0.5000000   0.1875000  -0.5000000), wk =   0.0026042
        k(  305) = (  -0.5000000   0.2500000   0.0000000), wk =   0.0026042
        k(  306) = (  -0.5000000   0.2500000   0.1666667), wk =   0.0052083
        k(  307) = (  -0.5000000   0.2500000   0.3333333), wk =   0.0052083
        k(  308) = (  -0.5000000   0.2500000  -0.5000000), wk =   0.0026042
        k(  309) = (  -0.5000000   0.3125000   0.0000000), wk =   0.0026042
        k(  310) = (  -0.5000000   0.3125000   0.1666667), wk =   0.0052083
        k(  311) = (  -0.5000000   0.3125000   0.3333333), wk =   0.0052083
        k(  312) = (  -0.5000000   0.3125000  -0.5000000), wk =   0.0026042
        k(  313) = (  -0.5000000   0.3750000   0.0000000), wk =   0.0026042
        k(  314) = (  -0.5000000   0.3750000   0.1666667), wk =   0.0052083
        k(  315) = (  -0.5000000   0.3750000   0.3333333), wk =   0.0052083
        k(  316) = (  -0.5000000   0.3750000  -0.5000000), wk =   0.0026042
        k(  317) = (  -0.5000000   0.4375000   0.0000000), wk =   0.0026042
        k(  318) = (  -0.5000000   0.4375000   0.1666667), wk =   0.0052083
        k(  319) = (  -0.5000000   0.4375000   0.3333333), wk =   0.0052083
        k(  320) = (  -0.5000000   0.4375000  -0.5000000), wk =   0.0026042
        k(  321) = (  -0.5000000  -0.5000000   0.0000000), wk =   0.0013021
        k(  322) = (  -0.5000000  -0.5000000   0.1666667), wk =   0.0026042
        k(  323) = (  -0.5000000  -0.5000000   0.3333333), wk =   0.0026042
        k(  324) = (  -0.5000000  -0.5000000  -0.5000000), wk =   0.0013021

     Dense  grid:   130013 G-vectors     FFT dimensions: (  48,  48, 128)

     Smooth grid:    32833 G-vectors     FFT dimensions: (  32,  30,  80)

     Dynamical RAM for                 wfc:       1.46 MB

     Dynamical RAM for     wfc (w. buffer):       1.46 MB

     Dynamical RAM for           str. fact:       1.32 MB

     Dynamical RAM for           local pot:       0.00 MB

     Dynamical RAM for          nlocal pot:       3.01 MB

     Dynamical RAM for                qrad:       2.78 MB

     Dynamical RAM for          rho,v,vnew:       4.25 MB

     Dynamical RAM for           G-vectors:       2.56 MB

     Dynamical RAM for          h,s,v(r/c):       0.90 MB

     Dynamical RAM for          <psi|beta>:       0.15 MB

     Dynamical RAM for                 psi:       2.93 MB

     Dynamical RAM for                hpsi:       2.93 MB

     Dynamical RAM for                spsi:       2.93 MB

     Dynamical RAM for      wfcinit/wfcrot:       3.04 MB

     Dynamical RAM for           addusdens:      31.91 MB

     Estimated static dynamical RAM per process >      21.16 MB

     Estimated max dynamical RAM per process >      53.06 MB

     Estimated total dynamical RAM >     636.73 MB

     The potential is recalculated from file :
     ./tmp/SnSe_pnma.save/charge-density

     Starting wfcs are   52 randomized atomic wfcs +   18 random wfcs

     Band Structure Calculation
     Davidson diagonalization with overlap

     Computing kpt #:     1  of    81 on this pool
     total cpu time spent up to now is        4.2 secs

     Computing kpt #:     2  of    81 on this pool
     total cpu time spent up to now is        7.0 secs

     Computing kpt #:     3  of    81 on this pool
     total cpu time spent up to now is        9.8 secs

     Computing kpt #:     4  of    81 on this pool
     total cpu time spent up to now is       13.2 secs

     Computing kpt #:     5  of    81 on this pool
     total cpu time spent up to now is       16.2 secs

     Computing kpt #:     6  of    81 on this pool
     total cpu time spent up to now is       19.2 secs

     Computing kpt #:     7  of    81 on this pool
     total cpu time spent up to now is       22.5 secs

     Computing kpt #:     8  of    81 on this pool
     total cpu time spent up to now is       25.4 secs

     Computing kpt #:     9  of    81 on this pool
     total cpu time spent up to now is       28.3 secs

     Computing kpt #:    10  of    81 on this pool
     total cpu time spent up to now is       31.3 secs

     Computing kpt #:    11  of    81 on this pool
     total cpu time spent up to now is       34.2 secs

     Computing kpt #:    12  of    81 on this pool
     total cpu time spent up to now is       37.3 secs

     Computing kpt #:    13  of    81 on this pool
     total cpu time spent up to now is       40.6 secs

     Computing kpt #:    14  of    81 on this pool
     total cpu time spent up to now is       43.9 secs

     Computing kpt #:    15  of    81 on this pool
     total cpu time spent up to now is       47.0 secs

     Computing kpt #:    16  of    81 on this pool
     total cpu time spent up to now is       49.9 secs

     Computing kpt #:    17  of    81 on this pool
     total cpu time spent up to now is       52.8 secs

     Computing kpt #:    18  of    81 on this pool
     total cpu time spent up to now is       55.7 secs

     Computing kpt #:    19  of    81 on this pool
     total cpu time spent up to now is       58.9 secs

     Computing kpt #:    20  of    81 on this pool
     total cpu time spent up to now is       62.2 secs

     Computing kpt #:    21  of    81 on this pool
     total cpu time spent up to now is       65.2 secs

     Computing kpt #:    22  of    81 on this pool
     total cpu time spent up to now is       68.6 secs

     Computing kpt #:    23  of    81 on this pool
     total cpu time spent up to now is       71.8 secs

     Computing kpt #:    24  of    81 on this pool
     total cpu time spent up to now is       74.7 secs

     Computing kpt #:    25  of    81 on this pool
     total cpu time spent up to now is       78.0 secs

     Computing kpt #:    26  of    81 on this pool
     total cpu time spent up to now is       81.0 secs

     Computing kpt #:    27  of    81 on this pool
     total cpu time spent up to now is       84.1 secs

     Computing kpt #:    28  of    81 on this pool
     total cpu time spent up to now is       87.2 secs

     Computing kpt #:    29  of    81 on this pool
     total cpu time spent up to now is       90.2 secs

     Computing kpt #:    30  of    81 on this pool
     total cpu time spent up to now is       93.5 secs

     Computing kpt #:    31  of    81 on this pool
     total cpu time spent up to now is       97.0 secs

     Computing kpt #:    32  of    81 on this pool
     total cpu time spent up to now is      100.0 secs

     Computing kpt #:    33  of    81 on this pool
     total cpu time spent up to now is      103.0 secs

     Computing kpt #:    34  of    81 on this pool
     total cpu time spent up to now is      106.0 secs

     Computing kpt #:    35  of    81 on this pool
     total cpu time spent up to now is      109.1 secs

     Computing kpt #:    36  of    81 on this pool
     total cpu time spent up to now is      112.0 secs

     Computing kpt #:    37  of    81 on this pool
     total cpu time spent up to now is      114.9 secs

     Computing kpt #:    38  of    81 on this pool
     total cpu time spent up to now is      117.7 secs

     Computing kpt #:    39  of    81 on this pool
     total cpu time spent up to now is      120.8 secs

     Computing kpt #:    40  of    81 on this pool
     total cpu time spent up to now is      124.1 secs

     Computing kpt #:    41  of    81 on this pool
     total cpu time spent up to now is      127.1 secs

     Computing kpt #:    42  of    81 on this pool
     total cpu time spent up to now is      129.9 secs

     Computing kpt #:    43  of    81 on this pool
     total cpu time spent up to now is      133.2 secs

     Computing kpt #:    44  of    81 on this pool
     total cpu time spent up to now is      136.1 secs

     Computing kpt #:    45  of    81 on this pool
     total cpu time spent up to now is      138.9 secs

     Computing kpt #:    46  of    81 on this pool
     total cpu time spent up to now is      141.9 secs

     Computing kpt #:    47  of    81 on this pool
     total cpu time spent up to now is      145.1 secs

     Computing kpt #:    48  of    81 on this pool
     total cpu time spent up to now is      147.9 secs

     Computing kpt #:    49  of    81 on this pool
     total cpu time spent up to now is      151.0 secs

     Computing kpt #:    50  of    81 on this pool
     total cpu time spent up to now is      154.0 secs

     Computing kpt #:    51  of    81 on this pool
     total cpu time spent up to now is      157.0 secs

     Computing kpt #:    52  of    81 on this pool
     total cpu time spent up to now is      159.9 secs

     Computing kpt #:    53  of    81 on this pool
     total cpu time spent up to now is      162.9 secs

     Computing kpt #:    54  of    81 on this pool
     total cpu time spent up to now is      166.0 secs

     Computing kpt #:    55  of    81 on this pool
     total cpu time spent up to now is      169.0 secs

     Computing kpt #:    56  of    81 on this pool
     total cpu time spent up to now is      172.2 secs

     Computing kpt #:    57  of    81 on this pool
     total cpu time spent up to now is      175.2 secs

     Computing kpt #:    58  of    81 on this pool
     total cpu time spent up to now is      178.5 secs

     Computing kpt #:    59  of    81 on this pool
     total cpu time spent up to now is      181.9 secs

     Computing kpt #:    60  of    81 on this pool
     total cpu time spent up to now is      184.9 secs

     Computing kpt #:    61  of    81 on this pool
     total cpu time spent up to now is      187.8 secs

     Computing kpt #:    62  of    81 on this pool
     total cpu time spent up to now is      190.8 secs

     Computing kpt #:    63  of    81 on this pool
     total cpu time spent up to now is      194.1 secs

     Computing kpt #:    64  of    81 on this pool
     total cpu time spent up to now is      197.1 secs

     Computing kpt #:    65  of    81 on this pool
     total cpu time spent up to now is      200.2 secs

     Computing kpt #:    66  of    81 on this pool
     total cpu time spent up to now is      210.5 secs

     Computing kpt #:    67  of    81 on this pool
     total cpu time spent up to now is      232.5 secs

     Computing kpt #:    68  of    81 on this pool
     total cpu time spent up to now is      253.5 secs

     Computing kpt #:    69  of    81 on this pool
     total cpu time spent up to now is      273.9 secs

     Computing kpt #:    70  of    81 on this pool
     total cpu time spent up to now is      292.8 secs

     Computing kpt #:    71  of    81 on this pool
     total cpu time spent up to now is      309.2 secs

     Computing kpt #:    72  of    81 on this pool
     total cpu time spent up to now is      326.2 secs

     Computing kpt #:    73  of    81 on this pool
     total cpu time spent up to now is      345.0 secs

     Computing kpt #:    74  of    81 on this pool
     total cpu time spent up to now is      364.1 secs

     Computing kpt #:    75  of    81 on this pool
     total cpu time spent up to now is      380.9 secs

     Computing kpt #:    76  of    81 on this pool
     total cpu time spent up to now is      397.2 secs

     Computing kpt #:    77  of    81 on this pool
     total cpu time spent up to now is      414.7 secs

     Computing kpt #:    78  of    81 on this pool
     total cpu time spent up to now is      430.8 secs

     Computing kpt #:    79  of    81 on this pool
     total cpu time spent up to now is      446.3 secs

     Computing kpt #:    80  of    81 on this pool
     total cpu time spent up to now is      459.9 secs

     Computing kpt #:    81  of    81 on this pool
     total cpu time spent up to now is      477.7 secs

     ethr =  1.25E-11,  avg # of iterations = 72.4

     total cpu time spent up to now is      478.6 secs

     End of band structure calculation

          k = 0.0000 0.0000 0.0000 (  4129 PWs)   bands (ev):

   -13.7590 -13.7478 -13.7458 -13.7415 -13.7404 -13.7377 -13.7343 -13.7332
   -13.7262 -13.7233 -13.7218 -13.7216 -13.7118 -13.7080 -13.6918 -13.6878
   -13.6844 -13.6815 -13.6747 -13.6681  -6.0326  -5.6990  -5.0731  -4.6158
     0.4122   1.4682   1.9732   2.5890   2.9238   4.3421   4.4184   4.4252
     4.6972   4.9083   5.4427   5.7917   6.1054   6.5556   6.8493   7.1459
     8.3724  10.2511  10.5145  10.5214  10.6921  10.9585  11.4753  12.0273
    12.1233  12.3152  12.9290  13.4278  13.6098  13.6963  13.9793  14.5855
    14.6265  15.5713  16.0153  16.1341  16.1366  16.1981  16.4602  16.6693
    17.1258  17.3369  17.8981  18.0006  18.1853  18.2964

     occupation numbers 
     1.0000   1.0000   1.0000   1.0000   1.0000   1.0000   1.0000   1.0000
     1.0000   1.0000   1.0000   1.0000   1.0000   1.0000   1.0000   1.0000
     1.0000   1.0000   1.0000   1.0000   1.0000   1.0000   1.0000   1.0000
     1.0000   1.0000   1.0000   1.0000   1.0000   1.0000   1.0000   1.0000
     1.0000   1.0000   1.0000   1.0000   1.0000   1.0000   1.0000   1.0000
     0.0000   0.0000   0.0000   0.0000   0.0000   0.0000   0.0000   0.0000
     0.0000   0.0000   0.0000   0.0000   0.0000   0.0000   0.0000   0.0000
     0.0000   0.0000   0.0000   0.0000   0.0000   0.0000   0.0000   0.0000
     0.0000   0.0000   0.0000   0.0000   0.0000   0.0000

          k = 0.0000 0.0000 0.0657 (  4122 PWs)   bands (ev):

   -13.7584 -13.7491 -13.7452 -13.7417 -13.7402 -13.7379 -13.7340 -13.7331
   -13.7260 -13.7230 -13.7220 -13.7218 -13.7116 -13.7083 -13.6915 -13.6881
   -13.6842 -13.6817 -13.6742 -13.6685  -6.0171  -5.7347  -5.0291  -4.6397
     0.4483   1.2744   2.1527   2.5773   2.9969   4.2092   4.4392   4.4814
     4.7897   4.8453   5.5169   5.7415   6.0726   6.2593   6.8822   7.1409
     8.7452  10.1834  10.3808  10.5654  10.8470  10.9915  11.5039  11.7543
    12.3700  12.4120  12.7440  13.3772  13.5175  13.5722  14.0261  14.5455
    14.7046  15.3869  15.8979  15.9848  16.2360  16.3237  16.3759  16.7192
    17.1420  17.4626  17.8131  17.8696  18.2485  18.2677

     occupation numbers 
     1.0000   1.0000   1.0000   1.0000   1.0000   1.0000   1.0000   1.0000
     1.0000   1.0000   1.0000   1.0000   1.0000   1.0000   1.0000   1.0000
     1.0000   1.0000   1.0000   1.0000   1.0000   1.0000   1.0000   1.0000
     1.0000   1.0000   1.0000   1.0000   1.0000   1.0000   1.0000   1.0000
     1.0000   1.0000   1.0000   1.0000   1.0000   1.0000   1.0000   1.0000
     0.0000   0.0000   0.0000   0.0000   0.0000   0.0000   0.0000   0.0000
     0.0000   0.0000   0.0000   0.0000   0.0000   0.0000   0.0000   0.0000
     0.0000   0.0000   0.0000   0.0000   0.0000   0.0000   0.0000   0.0000
     0.0000   0.0000   0.0000   0.0000   0.0000   0.0000

          k = 0.0000 0.0000 0.1315 (  4118 PWs)   bands (ev):

   -13.7568 -13.7516 -13.7442 -13.7424 -13.7399 -13.7386 -13.7335 -13.7330
   -13.7254 -13.7231 -13.7224 -13.7218 -13.7111 -13.7091 -13.6907 -13.6887
   -13.6836 -13.6822 -13.6729 -13.6696  -5.9717  -5.8149  -4.9264  -4.7078
     0.5567   0.9838   2.3658   2.5427   3.2360   3.9343   4.5002   4.6455
     4.7202   4.9138   5.6224   5.6729   5.7754   5.9792   6.9621   7.1139
     9.4678  10.1128  10.2220  10.5082  11.0761  11.0901  11.4776  11.5691
    12.3495  12.4542  12.7307  13.2132  13.2329  13.4236  14.1390  14.4721
    14.9301  15.2662  15.6533  15.8947  16.0774  16.2011  16.3483  16.6976
    17.3942  17.5710  17.6412  18.0113  18.2721  18.4495

     occupation numbers 
     1.0000   1.0000   1.0000   1.0000   1.0000   1.0000   1.0000   1.0000
     1.0000   1.0000   1.0000   1.0000   1.0000   1.0000   1.0000   1.0000
     1.0000   1.0000   1.0000   1.0000   1.0000   1.0000   1.0000   1.0000
     1.0000   1.0000   1.0000   1.0000   1.0000   1.0000   1.0000   1.0000
     1.0000   1.0000   1.0000   1.0000   1.0000   1.0000   1.0000   1.0000
     0.0000   0.0000   0.0000   0.0000   0.0000   0.0000   0.0000   0.0000
     0.0000   0.0000   0.0000   0.0000   0.0000   0.0000   0.0000   0.0000
     0.0000   0.0000   0.0000   0.0000   0.0000   0.0000   0.0000   0.0000
     0.0000   0.0000   0.0000   0.0000   0.0000   0.0000

          k = 0.0000 0.0000-0.1972 (  4114 PWs)   bands (ev):

   -13.7543 -13.7543 -13.7432 -13.7432 -13.7393 -13.7393 -13.7331 -13.7331
   -13.7243 -13.7243 -13.7219 -13.7219 -13.7101 -13.7101 -13.6897 -13.6897
   -13.6829 -13.6829 -13.6712 -13.6712  -5.9010  -5.9010  -4.8094  -4.8094
     0.7368   0.7368   2.4810   2.4810   3.5883   3.5883   4.5972   4.5972
     4.8644   4.8644   5.5466   5.5466   5.8387   5.8387   7.0508   7.0508
    10.0890  10.0890  10.1754  10.1754  11.2533  11.2533  11.3679  11.3679
    12.3284  12.3284  13.0114  13.0114  13.2118  13.2118  14.3056  14.3056
    15.2692  15.2692  15.5572  15.5572  16.0319  16.0319  16.5239  16.5239
    17.6916  17.6916  17.7578  17.7578  18.3115  18.3115

     occupation numbers 
     1.0000   1.0000   1.0000   1.0000   1.0000   1.0000   1.0000   1.0000
     1.0000   1.0000   1.0000   1.0000   1.0000   1.0000   1.0000   1.0000
     1.0000   1.0000   1.0000   1.0000   1.0000   1.0000   1.0000   1.0000
     1.0000   1.0000   1.0000   1.0000   1.0000   1.0000   1.0000   1.0000
     1.0000   1.0000   1.0000   1.0000   1.0000   1.0000   1.0000   1.0000
     0.0000   0.0000   0.0000   0.0000   0.0000   0.0000   0.0000   0.0000
     0.0000   0.0000   0.0000   0.0000   0.0000   0.0000   0.0000   0.0000
     0.0000   0.0000   0.0000   0.0000   0.0000   0.0000   0.0000   0.0000
     0.0000   0.0000   0.0000   0.0000   0.0000   0.0000

          k = 0.0000 0.0683 0.0000 (  4125 PWs)   bands (ev):

   -13.7582 -13.7474 -13.7451 -13.7412 -13.7406 -13.7381 -13.7349 -13.7334
   -13.7267 -13.7231 -13.7221 -13.7212 -13.7113 -13.7081 -13.6914 -13.6881
   -13.6841 -13.6820 -13.6747 -13.6683  -6.0119  -5.6812  -5.0625  -4.6140
     0.3875   1.4149   1.9559   2.4770   2.9241   4.3195   4.3685   4.5554
     4.7184   4.8826   5.4899   5.8042   6.0784   6.6122   6.8553   7.1322
     8.4047  10.2988  10.4288  10.5803  10.6084  10.9282  11.4686  11.8668
    11.9210  12.3854  12.9284  13.2837  13.6126  13.7637  13.7920  14.4231
    14.4947  15.6641  15.9661  15.9717  16.4600  16.4872  16.6955  16.8700
    17.2624  17.4280  17.6677  18.0287  18.1387  18.6117

     occupation numbers 
     1.0000   1.0000   1.0000   1.0000   1.0000   1.0000   1.0000   1.0000
     1.0000   1.0000   1.0000   1.0000   1.0000   1.0000   1.0000   1.0000
     1.0000   1.0000   1.0000   1.0000   1.0000   1.0000   1.0000   1.0000
     1.0000   1.0000   1.0000   1.0000   1.0000   1.0000   1.0000   1.0000
     1.0000   1.0000   1.0000   1.0000   1.0000   1.0000   1.0000   1.0000
     0.0000   0.0000   0.0000   0.0000   0.0000   0.0000   0.0000   0.0000
     0.0000   0.0000   0.0000   0.0000   0.0000   0.0000   0.0000   0.0000
     0.0000   0.0000   0.0000   0.0000   0.0000   0.0000   0.0000   0.0000
     0.0000   0.0000   0.0000   0.0000   0.0000   0.0000

          k = 0.0000 0.0683 0.0657 (  4121 PWs)   bands (ev):

   -13.7576 -13.7485 -13.7445 -13.7414 -13.7405 -13.7384 -13.7345 -13.7334
   -13.7265 -13.7228 -13.7225 -13.7212 -13.7111 -13.7084 -13.6911 -13.6882
   -13.6840 -13.6822 -13.6742 -13.6687  -5.9964  -5.7166  -5.0192  -4.6373
     0.4233   1.2346   2.1136   2.4691   3.0024   4.2335   4.3494   4.6040
     4.8092   4.8310   5.5407   5.7543   6.0462   6.3223   6.8919   7.1334
     8.7756  10.2526  10.3632  10.5960  10.6722  10.9714  11.4369  11.6468
    12.1984  12.4496  12.7851  13.2383  13.5452  13.5786  13.8598  14.3689
    14.5454  15.5125  15.7368  16.2558  16.3844  16.4708  16.6377  16.7045
    17.3477  17.6181  17.8528  18.0660  18.3782  18.4419

     occupation numbers 
     1.0000   1.0000   1.0000   1.0000   1.0000   1.0000   1.0000   1.0000
[...]
     1.0000   1.0000   1.0000   1.0000   1.0000   1.0000   1.0000   1.0000
     0.0000   0.0000   0.0000   0.0000   0.0000   0.0000   0.0000   0.0000
     0.0000   0.0000   0.0000   0.0000   0.0000   0.0000   0.0000   0.0000
     0.0000   0.0000   0.0000   0.0000   0.0000   0.0000   0.0000   0.0000
     0.0000   0.0000   0.0000   0.0000   0.0000   0.0000

          k =-0.5000 0.4095 0.0000 (  4094 PWs)   bands (ev):

   -13.7577 -13.7577 -13.7514 -13.7514 -13.7356 -13.7356 -13.7298 -13.7298
   -13.7256 -13.7256 -13.7152 -13.7152 -13.7033 -13.7033 -13.6927 -13.6927
   -13.6804 -13.6804 -13.6723 -13.6723  -4.9268  -4.9268  -4.7978  -4.7978
     0.4868   0.4868   1.1637   1.1637   2.9643   2.9643   3.5389   3.5389
     4.1811   4.1811   4.9789   4.9789   5.4271   5.4271   6.4211   6.4211
     9.6152   9.6152  11.0240  11.0240  12.0861  12.0861  12.2931  12.2931
    12.6365  12.6365  13.5069  13.5069  13.6525  13.6525  14.6260  14.6260
    17.2627  17.2627  17.9943  17.9943  18.1108  18.1108  18.5318  18.5318
    18.7907  18.7907  19.5332  19.5332  20.2283  20.2283

     occupation numbers 
     1.0000   1.0000   1.0000   1.0000   1.0000   1.0000   1.0000   1.0000
     1.0000   1.0000   1.0000   1.0000   1.0000   1.0000   1.0000   1.0000
     1.0000   1.0000   1.0000   1.0000   1.0000   1.0000   1.0000   1.0000
     1.0000   1.0000   1.0000   1.0000   1.0000   1.0000   1.0000   1.0000
     1.0000   1.0000   1.0000   1.0000   1.0000   1.0000   1.0000   1.0000
     0.0000   0.0000   0.0000   0.0000   0.0000   0.0000   0.0000   0.0000
     0.0000   0.0000   0.0000   0.0000   0.0000   0.0000   0.0000   0.0000
     0.0000   0.0000   0.0000   0.0000   0.0000   0.0000   0.0000   0.0000
     0.0000   0.0000   0.0000   0.0000   0.0000   0.0000

          k =-0.5000 0.4095 0.0657 (  4106 PWs)   bands (ev):

   -13.7574 -13.7574 -13.7517 -13.7517 -13.7354 -13.7354 -13.7303 -13.7303
   -13.7251 -13.7251 -13.7156 -13.7156 -13.7029 -13.7029 -13.6930 -13.6930
   -13.6803 -13.6803 -13.6723 -13.6723  -4.9265  -4.9265  -4.7981  -4.7981
     0.4921   0.4921   1.1532   1.1532   2.9968   2.9968   3.5255   3.5255
     4.1451   4.1451   4.9389   4.9389   5.5023   5.5023   6.4247   6.4247
     9.6412   9.6412  10.9224  10.9224  11.9783  11.9783  12.1324  12.1324
    12.9306  12.9306  13.5406  13.5406  13.6984  13.6984  14.7743  14.7743
    17.0540  17.0540  17.9346  17.9346  18.1172  18.1172  18.5024  18.5024
    18.8400  18.8400  19.3568  19.3568  20.2595  20.2595

     occupation numbers 
     1.0000   1.0000   1.0000   1.0000   1.0000   1.0000   1.0000   1.0000
     1.0000   1.0000   1.0000   1.0000   1.0000   1.0000   1.0000   1.0000
     1.0000   1.0000   1.0000   1.0000   1.0000   1.0000   1.0000   1.0000
     1.0000   1.0000   1.0000   1.0000   1.0000   1.0000   1.0000   1.0000
     1.0000   1.0000   1.0000   1.0000   1.0000   1.0000   1.0000   1.0000
     0.0000   0.0000   0.0000   0.0000   0.0000   0.0000   0.0000   0.0000
     0.0000   0.0000   0.0000   0.0000   0.0000   0.0000   0.0000   0.0000
     0.0000   0.0000   0.0000   0.0000   0.0000   0.0000   0.0000   0.0000
     0.0000   0.0000   0.0000   0.0000   0.0000   0.0000

          k =-0.5000 0.4095 0.1315 (  4102 PWs)   bands (ev):

   -13.7568 -13.7568 -13.7524 -13.7524 -13.7350 -13.7350 -13.7311 -13.7311
   -13.7243 -13.7243 -13.7163 -13.7163 -13.7019 -13.7019 -13.6937 -13.6937
   -13.6799 -13.6799 -13.6725 -13.6725  -4.9259  -4.9259  -4.7988  -4.7988
     0.5030   0.5030   1.1320   1.1320   3.0944   3.0944   3.4247   3.4247
     4.1928   4.1928   4.7357   4.7357   5.7626   5.7626   6.3598   6.3598
     9.7477   9.7477  10.6586  10.6586  11.8583  11.8583  11.9676  11.9676
    13.2372  13.2372  13.5734  13.5734  14.0078  14.0078  14.9201  14.9201
    16.7672  16.7672  17.7381  17.7381  18.0818  18.0818  18.4988  18.4988
    18.9171  18.9171  19.0748  19.0748  20.0956  20.0956

     occupation numbers 
     1.0000   1.0000   1.0000   1.0000   1.0000   1.0000   1.0000   1.0000
     1.0000   1.0000   1.0000   1.0000   1.0000   1.0000   1.0000   1.0000
     1.0000   1.0000   1.0000   1.0000   1.0000   1.0000   1.0000   1.0000
     1.0000   1.0000   1.0000   1.0000   1.0000   1.0000   1.0000   1.0000
     1.0000   1.0000   1.0000   1.0000   1.0000   1.0000   1.0000   1.0000
     0.0000   0.0000   0.0000   0.0000   0.0000   0.0000   0.0000   0.0000
     0.0000   0.0000   0.0000   0.0000   0.0000   0.0000   0.0000   0.0000
     0.0000   0.0000   0.0000   0.0000   0.0000   0.0000   0.0000   0.0000
     0.0000   0.0000   0.0000   0.0000   0.0000   0.0000

          k =-0.5000 0.4095-0.1972 (  4100 PWs)   bands (ev):

   -13.7563 -13.7563 -13.7529 -13.7529 -13.7347 -13.7347 -13.7316 -13.7316
   -13.7239 -13.7239 -13.7167 -13.7167 -13.7014 -13.7014 -13.6942 -13.6942
   -13.6797 -13.6797 -13.6725 -13.6725  -4.9256  -4.9256  -4.7992  -4.7992
     0.5086   0.5086   1.1212   1.1212   3.2293   3.2293   3.2724   3.2724
     4.3195   4.3195   4.5481   4.5481   5.9810   5.9810   6.2343   6.2343
     9.8576   9.8576  10.4698  10.4698  11.8240  11.8240  11.9062  11.9062
    13.3143  13.3143  13.5734  13.5734  14.5141  14.5141  14.6399  14.6399
    16.7836  16.7836  17.5214  17.5214  18.0577  18.0577  18.5663  18.5663
    18.8220  18.8220  19.0207  19.0207  20.0873  20.0873

     occupation numbers 
     1.0000   1.0000   1.0000   1.0000   1.0000   1.0000   1.0000   1.0000
     1.0000   1.0000   1.0000   1.0000   1.0000   1.0000   1.0000   1.0000
     1.0000   1.0000   1.0000   1.0000   1.0000   1.0000   1.0000   1.0000
     1.0000   1.0000   1.0000   1.0000   1.0000   1.0000   1.0000   1.0000
     1.0000   1.0000   1.0000   1.0000   1.0000   1.0000   1.0000   1.0000
     0.0000   0.0000   0.0000   0.0000   0.0000   0.0000   0.0000   0.0000
     0.0000   0.0000   0.0000   0.0000   0.0000   0.0000   0.0000   0.0000
     0.0000   0.0000   0.0000   0.0000   0.0000   0.0000   0.0000   0.0000
     0.0000   0.0000   0.0000   0.0000   0.0000   0.0000

          k =-0.5000 0.4778 0.0000 (  4088 PWs)   bands (ev):

   -13.7591 -13.7591 -13.7533 -13.7533 -13.7348 -13.7348 -13.7279 -13.7279
   -13.7244 -13.7244 -13.7167 -13.7167 -13.7024 -13.7024 -13.6938 -13.6938
   -13.6786 -13.6786 -13.6728 -13.6728  -4.8519  -4.8519  -4.7842  -4.7842
     0.6817   0.6817   1.0550   1.0550   2.8361   2.8361   3.4355   3.4355
     4.0487   4.0487   4.7441   4.7441   5.3657   5.3657   6.2953   6.2953
     9.9439   9.9439  10.7502  10.7502  12.1191  12.1191  12.3088  12.3088
    12.9609  12.9609  13.7917  13.7917  13.9730  13.9730  14.6361  14.6361
    17.2278  17.2278  17.7267  17.7267  17.9795  17.9795  19.2245  19.2245
    19.2506  19.2506  19.7197  19.7197  20.1601  20.1601

     occupation numbers 
     1.0000   1.0000   1.0000   1.0000   1.0000   1.0000   1.0000   1.0000
     1.0000   1.0000   1.0000   1.0000   1.0000   1.0000   1.0000   1.0000
     1.0000   1.0000   1.0000   1.0000   1.0000   1.0000   1.0000   1.0000
     1.0000   1.0000   1.0000   1.0000   1.0000   1.0000   1.0000   1.0000
     1.0000   1.0000   1.0000   1.0000   1.0000   1.0000   1.0000   1.0000
     0.0000   0.0000   0.0000   0.0000   0.0000   0.0000   0.0000   0.0000
     0.0000   0.0000   0.0000   0.0000   0.0000   0.0000   0.0000   0.0000
     0.0000   0.0000   0.0000   0.0000   0.0000   0.0000   0.0000   0.0000
     0.0000   0.0000   0.0000   0.0000   0.0000   0.0000

          k =-0.5000 0.4778 0.0657 (  4090 PWs)   bands (ev):

   -13.7588 -13.7588 -13.7536 -13.7536 -13.7346 -13.7346 -13.7288 -13.7288
   -13.7236 -13.7236 -13.7170 -13.7170 -13.7018 -13.7018 -13.6942 -13.6942
   -13.6783 -13.6783 -13.6730 -13.6730  -4.8516  -4.8516  -4.7844  -4.7844
     0.6849   0.6849   1.0464   1.0464   2.8800   2.8800   3.4553   3.4553
     3.9614   3.9614   4.6455   4.6455   5.5111   5.5111   6.3204   6.3204
     9.9019   9.9019  10.6346  10.6346  12.0971  12.0971  12.2420  12.2420
    13.1979  13.1979  13.8304  13.8304  13.9708  13.9708  14.7649  14.7649
    17.0399  17.0399  17.6952  17.6952  18.0305  18.0305  19.0511  19.0511
    19.2329  19.2329  19.5463  19.5463  20.0391  20.0391

     occupation numbers 
     1.0000   1.0000   1.0000   1.0000   1.0000   1.0000   1.0000   1.0000
     1.0000   1.0000   1.0000   1.0000   1.0000   1.0000   1.0000   1.0000
     1.0000   1.0000   1.0000   1.0000   1.0000   1.0000   1.0000   1.0000
     1.0000   1.0000   1.0000   1.0000   1.0000   1.0000   1.0000   1.0000
     1.0000   1.0000   1.0000   1.0000   1.0000   1.0000   1.0000   1.0000
     0.0000   0.0000   0.0000   0.0000   0.0000   0.0000   0.0000   0.0000
     0.0000   0.0000   0.0000   0.0000   0.0000   0.0000   0.0000   0.0000
     0.0000   0.0000   0.0000   0.0000   0.0000   0.0000   0.0000   0.0000
     0.0000   0.0000   0.0000   0.0000   0.0000   0.0000

          k =-0.5000 0.4778 0.1315 (  4088 PWs)   bands (ev):

   -13.7579 -13.7579 -13.7546 -13.7546 -13.7339 -13.7339 -13.7304 -13.7304
   -13.7224 -13.7224 -13.7178 -13.7178 -13.7005 -13.7005 -13.6953 -13.6953
   -13.6777 -13.6777 -13.6734 -13.6734  -4.8512  -4.8512  -4.7849  -4.7849
     0.6918   0.6918   1.0288   1.0288   3.0066   3.0066   3.4038   3.4038
     3.9159   3.9159   4.4111   4.4111   5.8224   5.8224   6.3079   6.3079
     9.8645   9.8645  10.3779  10.3779  12.0622  12.0622  12.1571  12.1571
    13.6217  13.6217  13.9208  13.9208  14.0502  14.0502  14.8931  14.8931
    16.8207  16.8207  17.5506  17.5506  18.0982  18.0982  18.5512  18.5512
    19.1493  19.1493  19.4489  19.4489  20.0121  20.0121

     occupation numbers 
     1.0000   1.0000   1.0000   1.0000   1.0000   1.0000   1.0000   1.0000
     1.0000   1.0000   1.0000   1.0000   1.0000   1.0000   1.0000   1.0000
     1.0000   1.0000   1.0000   1.0000   1.0000   1.0000   1.0000   1.0000
     1.0000   1.0000   1.0000   1.0000   1.0000   1.0000   1.0000   1.0000
     1.0000   1.0000   1.0000   1.0000   1.0000   1.0000   1.0000   1.0000
     0.0000   0.0000   0.0000   0.0000   0.0000   0.0000   0.0000   0.0000
     0.0000   0.0000   0.0000   0.0000   0.0000   0.0000   0.0000   0.0000
     0.0000   0.0000   0.0000   0.0000   0.0000   0.0000   0.0000   0.0000
     0.0000   0.0000   0.0000   0.0000   0.0000   0.0000

          k =-0.5000 0.4778-0.1972 (  4084 PWs)   bands (ev):

   -13.7571 -13.7571 -13.7553 -13.7553 -13.7333 -13.7333 -13.7314 -13.7314
   -13.7217 -13.7217 -13.7182 -13.7182 -13.6996 -13.6996 -13.6960 -13.6960
   -13.6774 -13.6774 -13.6737 -13.6737  -4.8510  -4.8510  -4.7851  -4.7851
     0.6955   0.6955   1.0199   1.0199   3.1641   3.1641   3.2442   3.2442
     4.0198   4.0198   4.2213   4.2213   6.0699   6.0699   6.1937   6.1937
     9.8939   9.8939  10.2103  10.2103  12.0462  12.0462  12.1288  12.1288
    13.7661  13.7661  13.8894  13.8894  14.5027  14.5027  14.6202  14.6202
    16.9527  16.9527  17.2799  17.2799  18.1774  18.1774  18.2503  18.2503
    19.1133  19.1133  19.4407  19.4407  20.1161  20.1161

     occupation numbers 
     1.0000   1.0000   1.0000   1.0000   1.0000   1.0000   1.0000   1.0000
     1.0000   1.0000   1.0000   1.0000   1.0000   1.0000   1.0000   1.0000
     1.0000   1.0000   1.0000   1.0000   1.0000   1.0000   1.0000   1.0000
     1.0000   1.0000   1.0000   1.0000   1.0000   1.0000   1.0000   1.0000
     1.0000   1.0000   1.0000   1.0000   1.0000   1.0000   1.0000   1.0000
     0.0000   0.0000   0.0000   0.0000   0.0000   0.0000   0.0000   0.0000
     0.0000   0.0000   0.0000   0.0000   0.0000   0.0000   0.0000   0.0000
     0.0000   0.0000   0.0000   0.0000   0.0000   0.0000   0.0000   0.0000
     0.0000   0.0000   0.0000   0.0000   0.0000   0.0000

          k =-0.5000-0.5460 0.0000 (  4060 PWs)   bands (ev):

   -13.7596 -13.7596 -13.7539 -13.7539 -13.7345 -13.7345 -13.7273 -13.7273
   -13.7237 -13.7237 -13.7174 -13.7174 -13.7020 -13.7020 -13.6942 -13.6942
   -13.6778 -13.6778 -13.6731 -13.6731  -4.8069  -4.8069  -4.7974  -4.7974
     0.8097   0.8097   0.9542   0.9542   2.8054   2.8054   3.3737   3.3737
     4.0581   4.0581   4.5956   4.5956   5.3847   5.3847   6.2430   6.2430
    10.1764  10.1764  10.5216  10.5216  12.1542  12.1542  12.2796  12.2796
    13.0684  13.0684  13.9098  13.9098  14.0945  14.0945  14.6685  14.6685
    17.2216  17.2216  17.5975  17.5975  17.8927  17.8927  19.6053  19.6053
    19.6880  19.6880  20.0011  20.0011  20.1325  20.1325

     occupation numbers 
     1.0000   1.0000   1.0000   1.0000   1.0000   1.0000   1.0000   1.0000
     1.0000   1.0000   1.0000   1.0000   1.0000   1.0000   1.0000   1.0000
     1.0000   1.0000   1.0000   1.0000   1.0000   1.0000   1.0000   1.0000
     1.0000   1.0000   1.0000   1.0000   1.0000   1.0000   1.0000   1.0000
     1.0000   1.0000   1.0000   1.0000   1.0000   1.0000   1.0000   1.0000
     0.0000   0.0000   0.0000   0.0000   0.0000   0.0000   0.0000   0.0000
     0.0000   0.0000   0.0000   0.0000   0.0000   0.0000   0.0000   0.0000
     0.0000   0.0000   0.0000   0.0000   0.0000   0.0000   0.0000   0.0000
     0.0000   0.0000   0.0000   0.0000   0.0000   0.0000

          k =-0.5000-0.5460 0.0657 (  4076 PWs)   bands (ev):

   -13.7593 -13.7593 -13.7543 -13.7543 -13.7343 -13.7343 -13.7284 -13.7284
   -13.7228 -13.7228 -13.7177 -13.7177 -13.7014 -13.7014 -13.6946 -13.6946
   -13.6774 -13.6774 -13.6734 -13.6734  -4.8063  -4.8063  -4.7981  -4.7981
     0.8166   0.8166   0.9413   0.9413   2.8548   2.8548   3.4058   3.4058
     3.9493   3.9493   4.4937   4.4937   5.5392   5.5392   6.2756   6.2756
    10.0895  10.0895  10.4273  10.4273  12.1591  12.1591  12.2417  12.2417
    13.2821  13.2821  13.9419  13.9419  14.0958  14.0958  14.7832  14.7832
    17.0360  17.0360  17.5822  17.5822  17.9469  17.9469  19.2442  19.2442
    19.6000  19.6000  19.8601  19.8601  20.1122  20.1122

     occupation numbers 
     1.0000   1.0000   1.0000   1.0000   1.0000   1.0000   1.0000   1.0000
     1.0000   1.0000   1.0000   1.0000   1.0000   1.0000   1.0000   1.0000
     1.0000   1.0000   1.0000   1.0000   1.0000   1.0000   1.0000   1.0000
     1.0000   1.0000   1.0000   1.0000   1.0000   1.0000   1.0000   1.0000
     1.0000   1.0000   1.0000   1.0000   1.0000   1.0000   1.0000   1.0000
     0.0000   0.0000   0.0000   0.0000   0.0000   0.0000   0.0000   0.0000
     0.0000   0.0000   0.0000   0.0000   0.0000   0.0000   0.0000   0.0000
     0.0000   0.0000   0.0000   0.0000   0.0000   0.0000   0.0000   0.0000
     0.0000   0.0000   0.0000   0.0000   0.0000   0.0000

          k =-0.5000-0.5460 0.1315 (  4072 PWs)   bands (ev):

   -13.7582 -13.7582 -13.7553 -13.7553 -13.7335 -13.7335 -13.7303 -13.7303
   -13.7213 -13.7213 -13.7186 -13.7186 -13.6998 -13.6998 -13.6960 -13.6960
   -13.6765 -13.6765 -13.6742 -13.6742  -4.8046  -4.8046  -4.7998  -4.7998
     0.8373   0.8373   0.9087   0.9087   2.9965   2.9965   3.3974   3.3974
     3.8438   3.8438   4.2557   4.2557   5.8569   5.8569   6.2842   6.2842
     9.9721   9.9721  10.2069  10.2069  12.1586  12.1586  12.1847  12.1847
    13.7440  13.7440  14.0596  14.0596  14.0895  14.0895  14.8934  14.8934
    16.8405  16.8405  17.4767  17.4767  18.0089  18.0089  18.5052  18.5052
    19.5404  19.5404  19.7282  19.7282  20.1076  20.1076

     occupation numbers 
     1.0000   1.0000   1.0000   1.0000   1.0000   1.0000   1.0000   1.0000
     1.0000   1.0000   1.0000   1.0000   1.0000   1.0000   1.0000   1.0000
     1.0000   1.0000   1.0000   1.0000   1.0000   1.0000   1.0000   1.0000
     1.0000   1.0000   1.0000   1.0000   1.0000   1.0000   1.0000   1.0000
     1.0000   1.0000   1.0000   1.0000   1.0000   1.0000   1.0000   1.0000
     0.0000   0.0000   0.0000   0.0000   0.0000   0.0000   0.0000   0.0000
     0.0000   0.0000   0.0000   0.0000   0.0000   0.0000   0.0000   0.0000
     0.0000   0.0000   0.0000   0.0000   0.0000   0.0000   0.0000   0.0000
     0.0000   0.0000   0.0000   0.0000   0.0000   0.0000

          k =-0.5000-0.5460-0.1972 (  4088 PWs)   bands (ev):

   -13.7568 -13.7568 -13.7568 -13.7568 -13.7321 -13.7321 -13.7321 -13.7321
   -13.7198 -13.7198 -13.7198 -13.7198 -13.6978 -13.6978 -13.6978 -13.6978
   -13.6753 -13.6753 -13.6753 -13.6753  -4.8022  -4.8022  -4.8022  -4.8022
     0.8701   0.8701   0.8701   0.8701   3.2055   3.2055   3.2055   3.2055
     3.9965   3.9965   3.9965   3.9965   6.1441   6.1441   6.1441   6.1441
    10.0100  10.0100  10.0100  10.0100  12.1594  12.1594  12.1594  12.1594
    13.9720  13.9720  13.9720  13.9720  14.5629  14.5629  14.5629  14.5629
    17.1127  17.1127  17.1127  17.1127  18.1042  18.1042  18.1042  18.1042
    19.6051  19.6051  19.6051  19.6051  20.1315  20.1315

     occupation numbers 
     1.0000   1.0000   1.0000   1.0000   1.0000   1.0000   1.0000   1.0000
     1.0000   1.0000   1.0000   1.0000   1.0000   1.0000   1.0000   1.0000
     1.0000   1.0000   1.0000   1.0000   1.0000   1.0000   1.0000   1.0000
     1.0000   1.0000   1.0000   1.0000   1.0000   1.0000   1.0000   1.0000
     1.0000   1.0000   1.0000   1.0000   1.0000   1.0000   1.0000   1.0000
     0.0000   0.0000   0.0000   0.0000   0.0000   0.0000   0.0000   0.0000
     0.0000   0.0000   0.0000   0.0000   0.0000   0.0000   0.0000   0.0000
     0.0000   0.0000   0.0000   0.0000   0.0000   0.0000   0.0000   0.0000
     0.0000   0.0000   0.0000   0.0000   0.0000   0.0000

     the Fermi energy is     8.1444 ev
     (compare with:     7.6143 eV, computed in scf)

     Writing all to output data dir ./tmp/SnSe_pnma.save/ :
     XML data file, pseudopotentials, collected wavefunctions
 
     init_run     :      0.35s CPU      0.40s WALL (       1 calls)
     electrons    :    316.04s CPU    477.67s WALL (       1 calls)

     Called by init_run:
     wfcinit      :      0.00s CPU      0.00s WALL (       1 calls)
     wfcinit:atom :      0.04s CPU      0.05s WALL (      81 calls)
     wfcinit:wfcr :      4.93s CPU      8.16s WALL (      81 calls)
     potinit      :      0.06s CPU      0.07s WALL (       1 calls)
     hinit0       :      0.14s CPU      0.14s WALL (       1 calls)

     Called by electrons:
     c_bands      :    315.61s CPU    476.71s WALL (       1 calls)
     v_of_rho     :      0.05s CPU      0.06s WALL (       1 calls)
     v_h          :      0.00s CPU      0.00s WALL (       1 calls)
     v_xc         :      0.05s CPU      0.06s WALL (       1 calls)
     newd         :      0.09s CPU      0.12s WALL (       1 calls)

     Called by c_bands:
     init_us_2    :      0.13s CPU      0.14s WALL (      81 calls)
     cegterg      :    272.53s CPU    407.31s WALL (     311 calls)

     Called by sum_band:

     Called by *egterg:
     cdiaghg      :     34.30s CPU     45.99s WALL (    5581 calls)
     cegterg:over :     25.45s CPU     37.94s WALL (    5500 calls)
     cegterg:upda :     11.29s CPU     12.56s WALL (    5500 calls)
     cegterg:last :     32.55s CPU     37.67s WALL (    3614 calls)
     h_psi        :    152.64s CPU    247.77s WALL (    5892 calls)
     s_psi        :     11.69s CPU     14.00s WALL (    5892 calls)
     g_psi        :      0.68s CPU      0.83s WALL (    5500 calls)

     Called by h_psi:
     h_psi:calbec :     14.96s CPU     22.47s WALL (    5892 calls)
     vloc_psi     :    124.69s CPU    210.25s WALL (    5892 calls)
     add_vuspsi   :     11.91s CPU     13.95s WALL (    5892 calls)

     General routines
     calbec       :     14.94s CPU     22.45s WALL (    5892 calls)
     fft          :      0.02s CPU      0.02s WALL (      13 calls)
     ffts         :      0.00s CPU      0.00s WALL (       1 calls)
     fftw         :     97.23s CPU    177.18s WALL (  475026 calls)
     interpolate  :      0.00s CPU      0.00s WALL (       1 calls)
     davcio       :      0.11s CPU      0.52s WALL (     162 calls)
 
     Parallel routines
 
     PWSCF        :   5m20.94s CPU   8m10.38s WALL

 
   This run was terminated on:  17:59:34  24May2026            

=------------------------------------------------------------------------------=
   JOB DONE.
=------------------------------------------------------------------------------=
