
     Program PWSCF v.7.3.1 starts on 24May2026 at 17:49:19 

     This program is part of the open-source Quantum ESPRESSO suite
     for quantum simulation of materials; please cite
         "P. Giannozzi et al., J. Phys.:Condens. Matter 21 395502 (2009);
         "P. Giannozzi et al., J. Phys.:Condens. Matter 29 465901 (2017);
         "P. Giannozzi et al., J. Chem. Phys. 152 154105 (2020);
          URL http://www.quantum-espresso.org", 
     in publications or presentations arising from this work. More details at
     http://www.quantum-espresso.org/quote

     Parallel version (MPI & OpenMP), running on      12 processor cores
     Number of MPI processes:                12
     Threads/MPI process:                     1

     MPI processes distributed on     1 nodes
     7303 MiB available memory on the printing compute node when the environment starts
 
     Waiting for input...
     Reading input from standard input

     Current dimensions of program PWSCF are:
     Max number of different atomic species (ntypx) = 10
     Max number of k-points (npk) =  40000
     Max angular momentum in pseudopotentials (lmaxx) =  4

     Atomic positions and unit cell read from directory:
     ./tmp/SnSe_pnma.save/
 
 
     K-points division:     npool     =       4
     R & G space division:  proc/nbgrp/npool/nimage =       3
     Subspace diagonalization in iterative solution of the eigenvalue problem:
     a serial algorithm will be used

 
     Parallelization info
     --------------------
     sticks:   dense  smooth     PW     G-vecs:    dense   smooth      PW
     Min         543     213     67                43337    10943    1840
     Max         543     214     68                43339    10946    1842
     Sum        1629     641    203               130013    32833    5523
 
     Using Slab Decomposition
 


     bravais-lattice index     =            8
     lattice parameter (alat)  =       8.6086  a.u.
     unit-cell volume          =    1481.0643 (a.u.)^3
     number of atoms/cell      =            8
     number of atomic types    =            2
     number of electrons       =        80.00
     number of Kohn-Sham states=           70
     kinetic-energy cutoff     =      30.0000  Ry
     charge density cutoff     =     300.0000  Ry
     Exchange-correlation= SLA  PW   PBE  PBE
                           (   1   4   3   4   0   0   0)

     celldm(1)=   8.608647  celldm(2)=   0.915684  celldm(3)=   2.535265
     celldm(4)=   0.000000  celldm(5)=   0.000000  celldm(6)=   0.000000

     crystal axes: (cart. coord. in units of alat)
               a(1) = (   1.000000   0.000000   0.000000 )  
               a(2) = (   0.000000   0.915684   0.000000 )  
               a(3) = (   0.000000   0.000000   2.535265 )  

     reciprocal axes: (cart. coord. in units 2 pi/alat)
               b(1) = (  1.000000  0.000000  0.000000 )  
               b(2) = (  0.000000  1.092079  0.000000 )  
               b(3) = (  0.000000  0.000000  0.394436 )  


     PseudoPot. # 1 for Sn read from file:
     ../pseudo/Sn_pbe_v1.uspp.F.UPF
     MD5 check sum: 4cf58ce39ec5d5d420df3dd08604eb00
     Pseudo is Ultrasoft + core correction, Zval = 14.0
     Generated by new atomic code, or converted to UPF format
     Using radial grid of  891 points,  6 beta functions with: 
                l(1) =   0
                l(2) =   0
                l(3) =   1
                l(4) =   1
                l(5) =   2
                l(6) =   2
     Q(r) pseudized with  6 coefficients,  rinner =    1.200   1.200   1.200
                                                       1.200   1.200

     PseudoPot. # 2 for Se read from file:
     ../pseudo/Se_pbe_v1.uspp.F.UPF
     MD5 check sum: 1b3568f3a8ae88f9a2a0ad0698632c85
     Pseudo is Ultrasoft + core correction, Zval =  6.0
     Generated by new atomic code, or converted to UPF format
     Using radial grid of  877 points,  6 beta functions with: 
                l(1) =   0
                l(2) =   0
                l(3) =   1
                l(4) =   1
                l(5) =   2
                l(6) =   2
     Q(r) pseudized with  8 coefficients,  rinner =    1.300   1.300   1.300
                                                       1.300   1.300

     atomic species   valence    mass     pseudopotential
     Sn               14.00   118.71000     Sn( 1.00)
     Se                6.00    78.97100     Se( 1.00)

      8 Sym. Ops., with inversion, found ( 6 have fractional translation)


                                    s                        frac. trans.

      isym =  1     identity                                     

 cryst.   s( 1) = (     1          0          0      )
                  (     0          1          0      )
                  (     0          0          1      )

 cart.    s( 1) = (  1.0000000  0.0000000  0.0000000 )
                  (  0.0000000  1.0000000  0.0000000 )
                  (  0.0000000  0.0000000  1.0000000 )


      isym =  2     180 deg rotation - cart. axis [0,0,1]        

 cryst.   s( 2) = (    -1          0          0      )    f =(  0.5000000 )
                  (     0         -1          0      )       (  0.5000000 )
                  (     0          0          1      )       (  0.5000000 )

 cart.    s( 2) = ( -1.0000000  0.0000000  0.0000000 )    f =(  0.5000000 )
                  (  0.0000000 -1.0000000  0.0000000 )       (  0.4578422 )
                  (  0.0000000  0.0000000  1.0000000 )       (  1.2676325 )


      isym =  3     180 deg rotation - cart. axis [0,1,0]        

 cryst.   s( 3) = (    -1          0          0      )    f =( -0.0000000 )
                  (     0          1          0      )       (  0.5000000 )
                  (     0          0         -1      )       ( -0.0000000 )

 cart.    s( 3) = ( -1.0000000  0.0000000  0.0000000 )    f =( -0.0000000 )
                  (  0.0000000  1.0000000  0.0000000 )       (  0.4578422 )
                  (  0.0000000  0.0000000 -1.0000000 )       ( -0.0000000 )


      isym =  4     180 deg rotation - cart. axis [1,0,0]        

 cryst.   s( 4) = (     1          0          0      )    f =( -0.5000000 )
                  (     0         -1          0      )       ( -0.0000000 )
                  (     0          0         -1      )       (  0.5000000 )

 cart.    s( 4) = (  1.0000000  0.0000000  0.0000000 )    f =( -0.5000000 )
                  (  0.0000000 -1.0000000  0.0000000 )       ( -0.0000000 )
                  (  0.0000000  0.0000000 -1.0000000 )       (  1.2676325 )


      isym =  5     inversion                                    

 cryst.   s( 5) = (    -1          0          0      )
                  (     0         -1          0      )
                  (     0          0         -1      )

 cart.    s( 5) = ( -1.0000000  0.0000000  0.0000000 )
                  (  0.0000000 -1.0000000  0.0000000 )
                  (  0.0000000  0.0000000 -1.0000000 )


      isym =  6     inv. 180 deg rotation - cart. axis [0,0,1]   

 cryst.   s( 6) = (     1          0          0      )    f =( -0.5000000 )
                  (     0          1          0      )       (  0.5000000 )
                  (     0          0         -1      )       (  0.5000000 )

 cart.    s( 6) = (  1.0000000  0.0000000  0.0000000 )    f =( -0.5000000 )
                  (  0.0000000  1.0000000  0.0000000 )       (  0.4578422 )
                  (  0.0000000  0.0000000 -1.0000000 )       (  1.2676325 )


      isym =  7     inv. 180 deg rotation - cart. axis [0,1,0]   

 cryst.   s( 7) = (     1          0          0      )    f =(  0.0000000 )
                  (     0         -1          0      )       (  0.5000000 )
                  (     0          0          1      )       (  0.0000000 )

 cart.    s( 7) = (  1.0000000  0.0000000  0.0000000 )    f =(  0.0000000 )
                  (  0.0000000 -1.0000000  0.0000000 )       (  0.4578422 )
                  (  0.0000000  0.0000000  1.0000000 )       (  0.0000000 )


      isym =  8     inv. 180 deg rotation - cart. axis [1,0,0]   

 cryst.   s( 8) = (    -1          0          0      )    f =(  0.5000000 )
                  (     0          1          0      )       (  0.0000000 )
                  (     0          0          1      )       (  0.5000000 )

 cart.    s( 8) = ( -1.0000000  0.0000000  0.0000000 )    f =(  0.5000000 )
                  (  0.0000000  1.0000000  0.0000000 )       (  0.0000000 )
                  (  0.0000000  0.0000000  1.0000000 )       (  1.2676325 )


     point group D_2h (mmm) 
     there are  8 classes
     the character table:

       E     C2    C2'   C2''  i     s_v   s_v'  s_v''
A_g    1.00  1.00  1.00  1.00  1.00  1.00  1.00  1.00
B_1g   1.00  1.00 -1.00 -1.00  1.00  1.00 -1.00 -1.00
B_2g   1.00 -1.00  1.00 -1.00  1.00 -1.00  1.00 -1.00
B_3g   1.00 -1.00 -1.00  1.00  1.00 -1.00 -1.00  1.00
A_u    1.00  1.00  1.00  1.00 -1.00 -1.00 -1.00 -1.00
B_1u   1.00  1.00 -1.00 -1.00 -1.00 -1.00  1.00  1.00
B_2u   1.00 -1.00  1.00 -1.00 -1.00  1.00 -1.00  1.00
B_3u   1.00 -1.00 -1.00  1.00 -1.00  1.00  1.00 -1.00

     the symmetry operations in each class and the name of the first element:

     E        1
          identity                                               
     C2       2
          180 deg rotation - cart. axis [0,0,1]                  
     C2'      4
          180 deg rotation - cart. axis [1,0,0]                  
     C2''     3
          180 deg rotation - cart. axis [0,1,0]                  
     i        5
          inversion                                              
     s_v      6
          inv. 180 deg rotation - cart. axis [0,0,1]             
     s_v'     8
          inv. 180 deg rotation - cart. axis [1,0,0]             
     s_v''    7
          inv. 180 deg rotation - cart. axis [0,1,0]             

   Cartesian axes

     site n.     atom                  positions (alat units)
         1        Se     tau(   1) = (   0.4832481   0.6867633   2.1675410  )
         2        Sn     tau(   2) = (   0.1122870   0.6867633   0.2954585  )
         3        Se     tau(   3) = (   0.9832481   0.2289211   1.6353566  )
         4        Sn     tau(   4) = (   0.6122870   0.2289211   0.9721740  )
         5        Se     tau(   5) = (   0.0167519   0.6867633   0.8999084  )
         6        Sn     tau(   6) = (   0.3877130   0.6867633   1.5630911  )
         7        Se     tau(   7) = (   0.5167519   0.2289211   0.3677241  )
         8        Sn     tau(   8) = (   0.8877130   0.2289211   2.2398065  )

     --------------------------------------------
     DFT-D3 Dispersion Correction (3-body terms):
     --------------------------------------------
       Reference C6 values for interpolation: 

         atom   Coordination number   C6
         Se         0.000           427.35
         Se         0.990           427.57
         Se         1.981           421.05
         Sn         0.000          1255.14
         Sn         0.951          1084.09
         Sn         1.950          1010.83
         Sn         2.926           818.29
         Sn         3.912           672.20

       Values used:

         atom   Coordination number  R0_AB[au]  C6      C8
         Se         3.412            3.332    421.05  29958.36
         Sn         4.106            3.957    672.80  84444.47
         Se         3.412            3.332    421.05  29958.36
         Sn         4.106            3.957    672.80  84444.47
         Se         3.412            3.332    421.05  29958.36
         Sn         4.106            3.957    672.80  84444.47
         Se         3.412            3.332    421.05  29958.36
         Sn         4.106            3.957    672.80  84444.47

         Molecular C6 ( Ry / a.u.^6 ) =     34513.28


   Crystallographic axes

     site n.     atom                  positions (cryst. coord.)
         1        Se     tau(   1) = (  0.4832481  0.7500000  0.8549563  )
         2        Sn     tau(   2) = (  0.1122870  0.7500000  0.1165395  )
         3        Se     tau(   3) = (  0.9832481  0.2500000  0.6450437  )
         4        Sn     tau(   4) = (  0.6122870  0.2500000  0.3834605  )
         5        Se     tau(   5) = (  0.0167519  0.7500000  0.3549563  )
         6        Sn     tau(   6) = (  0.3877130  0.7500000  0.6165395  )
         7        Se     tau(   7) = (  0.5167519  0.2500000  0.1450437  )
         8        Sn     tau(   8) = (  0.8877130  0.2500000  0.8834605  )

     number of k points=   147 (tetrahedron method)
                       cart. coord. in units 2pi/alat
        k(    1) = (   0.0000000   0.0000000   0.0000000), wk =   0.0034722
        k(    2) = (   0.0000000   0.0000000   0.0986090), wk =   0.0069444
        k(    3) = (   0.0000000   0.0000000  -0.1972180), wk =   0.0034722
        k(    4) = (   0.0000000   0.0910066   0.0000000), wk =   0.0069444
        k(    5) = (   0.0000000   0.0910066   0.0986090), wk =   0.0138889
        k(    6) = (   0.0000000   0.0910066  -0.1972180), wk =   0.0069444
        k(    7) = (   0.0000000   0.1820132   0.0000000), wk =   0.0069444
        k(    8) = (   0.0000000   0.1820132   0.0986090), wk =   0.0138889
        k(    9) = (   0.0000000   0.1820132  -0.1972180), wk =   0.0069444
        k(   10) = (   0.0000000   0.2730198   0.0000000), wk =   0.0069444
        k(   11) = (   0.0000000   0.2730198   0.0986090), wk =   0.0138889
        k(   12) = (   0.0000000   0.2730198  -0.1972180), wk =   0.0069444
        k(   13) = (   0.0000000   0.3640265   0.0000000), wk =   0.0069444
        k(   14) = (   0.0000000   0.3640265   0.0986090), wk =   0.0138889
        k(   15) = (   0.0000000   0.3640265  -0.1972180), wk =   0.0069444
        k(   16) = (   0.0000000   0.4550331   0.0000000), wk =   0.0069444
        k(   17) = (   0.0000000   0.4550331   0.0986090), wk =   0.0138889
        k(   18) = (   0.0000000   0.4550331  -0.1972180), wk =   0.0069444
        k(   19) = (   0.0000000  -0.5460397   0.0000000), wk =   0.0034722
        k(   20) = (   0.0000000  -0.5460397   0.0986090), wk =   0.0069444
        k(   21) = (   0.0000000  -0.5460397  -0.1972180), wk =   0.0034722
        k(   22) = (   0.0833333   0.0000000   0.0000000), wk =   0.0069444
        k(   23) = (   0.0833333   0.0000000   0.0986090), wk =   0.0138889
        k(   24) = (   0.0833333   0.0000000  -0.1972180), wk =   0.0069444
        k(   25) = (   0.0833333   0.0910066   0.0000000), wk =   0.0138889
        k(   26) = (   0.0833333   0.0910066   0.0986090), wk =   0.0277778
        k(   27) = (   0.0833333   0.0910066  -0.1972180), wk =   0.0138889
        k(   28) = (   0.0833333   0.1820132   0.0000000), wk =   0.0138889
        k(   29) = (   0.0833333   0.1820132   0.0986090), wk =   0.0277778
        k(   30) = (   0.0833333   0.1820132  -0.1972180), wk =   0.0138889
        k(   31) = (   0.0833333   0.2730198   0.0000000), wk =   0.0138889
        k(   32) = (   0.0833333   0.2730198   0.0986090), wk =   0.0277778
        k(   33) = (   0.0833333   0.2730198  -0.1972180), wk =   0.0138889
        k(   34) = (   0.0833333   0.3640265   0.0000000), wk =   0.0138889
        k(   35) = (   0.0833333   0.3640265   0.0986090), wk =   0.0277778
        k(   36) = (   0.0833333   0.3640265  -0.1972180), wk =   0.0138889
        k(   37) = (   0.0833333   0.4550331   0.0000000), wk =   0.0138889
        k(   38) = (   0.0833333   0.4550331   0.0986090), wk =   0.0277778
        k(   39) = (   0.0833333   0.4550331  -0.1972180), wk =   0.0138889
        k(   40) = (   0.0833333  -0.5460397   0.0000000), wk =   0.0069444
        k(   41) = (   0.0833333  -0.5460397   0.0986090), wk =   0.0138889
        k(   42) = (   0.0833333  -0.5460397  -0.1972180), wk =   0.0069444
        k(   43) = (   0.1666667   0.0000000   0.0000000), wk =   0.0069444
        k(   44) = (   0.1666667   0.0000000   0.0986090), wk =   0.0138889
        k(   45) = (   0.1666667   0.0000000  -0.1972180), wk =   0.0069444
        k(   46) = (   0.1666667   0.0910066   0.0000000), wk =   0.0138889
        k(   47) = (   0.1666667   0.0910066   0.0986090), wk =   0.0277778
        k(   48) = (   0.1666667   0.0910066  -0.1972180), wk =   0.0138889
        k(   49) = (   0.1666667   0.1820132   0.0000000), wk =   0.0138889
        k(   50) = (   0.1666667   0.1820132   0.0986090), wk =   0.0277778
        k(   51) = (   0.1666667   0.1820132  -0.1972180), wk =   0.0138889
        k(   52) = (   0.1666667   0.2730198   0.0000000), wk =   0.0138889
        k(   53) = (   0.1666667   0.2730198   0.0986090), wk =   0.0277778
        k(   54) = (   0.1666667   0.2730198  -0.1972180), wk =   0.0138889
        k(   55) = (   0.1666667   0.3640265   0.0000000), wk =   0.0138889
        k(   56) = (   0.1666667   0.3640265   0.0986090), wk =   0.0277778
        k(   57) = (   0.1666667   0.3640265  -0.1972180), wk =   0.0138889
        k(   58) = (   0.1666667   0.4550331   0.0000000), wk =   0.0138889
        k(   59) = (   0.1666667   0.4550331   0.0986090), wk =   0.0277778
        k(   60) = (   0.1666667   0.4550331  -0.1972180), wk =   0.0138889
        k(   61) = (   0.1666667  -0.5460397   0.0000000), wk =   0.0069444
        k(   62) = (   0.1666667  -0.5460397   0.0986090), wk =   0.0138889
        k(   63) = (   0.1666667  -0.5460397  -0.1972180), wk =   0.0069444
        k(   64) = (   0.2500000   0.0000000   0.0000000), wk =   0.0069444
        k(   65) = (   0.2500000   0.0000000   0.0986090), wk =   0.0138889
        k(   66) = (   0.2500000   0.0000000  -0.1972180), wk =   0.0069444
        k(   67) = (   0.2500000   0.0910066   0.0000000), wk =   0.0138889
        k(   68) = (   0.2500000   0.0910066   0.0986090), wk =   0.0277778
        k(   69) = (   0.2500000   0.0910066  -0.1972180), wk =   0.0138889
        k(   70) = (   0.2500000   0.1820132   0.0000000), wk =   0.0138889
        k(   71) = (   0.2500000   0.1820132   0.0986090), wk =   0.0277778
        k(   72) = (   0.2500000   0.1820132  -0.1972180), wk =   0.0138889
        k(   73) = (   0.2500000   0.2730198   0.0000000), wk =   0.0138889
        k(   74) = (   0.2500000   0.2730198   0.0986090), wk =   0.0277778
        k(   75) = (   0.2500000   0.2730198  -0.1972180), wk =   0.0138889
        k(   76) = (   0.2500000   0.3640265   0.0000000), wk =   0.0138889
        k(   77) = (   0.2500000   0.3640265   0.0986090), wk =   0.0277778
        k(   78) = (   0.2500000   0.3640265  -0.1972180), wk =   0.0138889
        k(   79) = (   0.2500000   0.4550331   0.0000000), wk =   0.0138889
        k(   80) = (   0.2500000   0.4550331   0.0986090), wk =   0.0277778
        k(   81) = (   0.2500000   0.4550331  -0.1972180), wk =   0.0138889
        k(   82) = (   0.2500000  -0.5460397   0.0000000), wk =   0.0069444
        k(   83) = (   0.2500000  -0.5460397   0.0986090), wk =   0.0138889
        k(   84) = (   0.2500000  -0.5460397  -0.1972180), wk =   0.0069444
        k(   85) = (   0.3333333   0.0000000   0.0000000), wk =   0.0069444
        k(   86) = (   0.3333333   0.0000000   0.0986090), wk =   0.0138889
        k(   87) = (   0.3333333   0.0000000  -0.1972180), wk =   0.0069444
        k(   88) = (   0.3333333   0.0910066   0.0000000), wk =   0.0138889
        k(   89) = (   0.3333333   0.0910066   0.0986090), wk =   0.0277778
        k(   90) = (   0.3333333   0.0910066  -0.1972180), wk =   0.0138889
        k(   91) = (   0.3333333   0.1820132   0.0000000), wk =   0.0138889
        k(   92) = (   0.3333333   0.1820132   0.0986090), wk =   0.0277778
        k(   93) = (   0.3333333   0.1820132  -0.1972180), wk =   0.0138889
        k(   94) = (   0.3333333   0.2730198   0.0000000), wk =   0.0138889
        k(   95) = (   0.3333333   0.2730198   0.0986090), wk =   0.0277778
        k(   96) = (   0.3333333   0.2730198  -0.1972180), wk =   0.0138889
        k(   97) = (   0.3333333   0.3640265   0.0000000), wk =   0.0138889
        k(   98) = (   0.3333333   0.3640265   0.0986090), wk =   0.0277778
        k(   99) = (   0.3333333   0.3640265  -0.1972180), wk =   0.0138889
        k(  100) = (   0.3333333   0.4550331   0.0000000), wk =   0.0138889
        k(  101) = (   0.3333333   0.4550331   0.0986090), wk =   0.0277778
        k(  102) = (   0.3333333   0.4550331  -0.1972180), wk =   0.0138889
        k(  103) = (   0.3333333  -0.5460397   0.0000000), wk =   0.0069444
        k(  104) = (   0.3333333  -0.5460397   0.0986090), wk =   0.0138889
        k(  105) = (   0.3333333  -0.5460397  -0.1972180), wk =   0.0069444
        k(  106) = (   0.4166667   0.0000000   0.0000000), wk =   0.0069444
        k(  107) = (   0.4166667   0.0000000   0.0986090), wk =   0.0138889
        k(  108) = (   0.4166667   0.0000000  -0.1972180), wk =   0.0069444
        k(  109) = (   0.4166667   0.0910066   0.0000000), wk =   0.0138889
        k(  110) = (   0.4166667   0.0910066   0.0986090), wk =   0.0277778
        k(  111) = (   0.4166667   0.0910066  -0.1972180), wk =   0.0138889
        k(  112) = (   0.4166667   0.1820132   0.0000000), wk =   0.0138889
        k(  113) = (   0.4166667   0.1820132   0.0986090), wk =   0.0277778
        k(  114) = (   0.4166667   0.1820132  -0.1972180), wk =   0.0138889
        k(  115) = (   0.4166667   0.2730198   0.0000000), wk =   0.0138889
        k(  116) = (   0.4166667   0.2730198   0.0986090), wk =   0.0277778
        k(  117) = (   0.4166667   0.2730198  -0.1972180), wk =   0.0138889
        k(  118) = (   0.4166667   0.3640265   0.0000000), wk =   0.0138889
        k(  119) = (   0.4166667   0.3640265   0.0986090), wk =   0.0277778
        k(  120) = (   0.4166667   0.3640265  -0.1972180), wk =   0.0138889
        k(  121) = (   0.4166667   0.4550331   0.0000000), wk =   0.0138889
        k(  122) = (   0.4166667   0.4550331   0.0986090), wk =   0.0277778
        k(  123) = (   0.4166667   0.4550331  -0.1972180), wk =   0.0138889
        k(  124) = (   0.4166667  -0.5460397   0.0000000), wk =   0.0069444
        k(  125) = (   0.4166667  -0.5460397   0.0986090), wk =   0.0138889
        k(  126) = (   0.4166667  -0.5460397  -0.1972180), wk =   0.0069444
        k(  127) = (  -0.5000000   0.0000000   0.0000000), wk =   0.0034722
        k(  128) = (  -0.5000000   0.0000000   0.0986090), wk =   0.0069444
        k(  129) = (  -0.5000000   0.0000000  -0.1972180), wk =   0.0034722
        k(  130) = (  -0.5000000   0.0910066   0.0000000), wk =   0.0069444
        k(  131) = (  -0.5000000   0.0910066   0.0986090), wk =   0.0138889
        k(  132) = (  -0.5000000   0.0910066  -0.1972180), wk =   0.0069444
        k(  133) = (  -0.5000000   0.1820132   0.0000000), wk =   0.0069444
        k(  134) = (  -0.5000000   0.1820132   0.0986090), wk =   0.0138889
        k(  135) = (  -0.5000000   0.1820132  -0.1972180), wk =   0.0069444
        k(  136) = (  -0.5000000   0.2730198   0.0000000), wk =   0.0069444
        k(  137) = (  -0.5000000   0.2730198   0.0986090), wk =   0.0138889
        k(  138) = (  -0.5000000   0.2730198  -0.1972180), wk =   0.0069444
        k(  139) = (  -0.5000000   0.3640265   0.0000000), wk =   0.0069444
        k(  140) = (  -0.5000000   0.3640265   0.0986090), wk =   0.0138889
        k(  141) = (  -0.5000000   0.3640265  -0.1972180), wk =   0.0069444
        k(  142) = (  -0.5000000   0.4550331   0.0000000), wk =   0.0069444
        k(  143) = (  -0.5000000   0.4550331   0.0986090), wk =   0.0138889
        k(  144) = (  -0.5000000   0.4550331  -0.1972180), wk =   0.0069444
        k(  145) = (  -0.5000000  -0.5460397   0.0000000), wk =   0.0034722
        k(  146) = (  -0.5000000  -0.5460397   0.0986090), wk =   0.0069444
        k(  147) = (  -0.5000000  -0.5460397  -0.1972180), wk =   0.0034722

                       cryst. coord.
        k(    1) = (   0.0000000   0.0000000   0.0000000), wk =   0.0034722
        k(    2) = (   0.0000000   0.0000000   0.2500000), wk =   0.0069444
        k(    3) = (   0.0000000   0.0000000  -0.5000000), wk =   0.0034722
        k(    4) = (   0.0000000   0.0833333   0.0000000), wk =   0.0069444
        k(    5) = (   0.0000000   0.0833333   0.2500000), wk =   0.0138889
        k(    6) = (   0.0000000   0.0833333  -0.5000000), wk =   0.0069444
        k(    7) = (   0.0000000   0.1666667   0.0000000), wk =   0.0069444
        k(    8) = (   0.0000000   0.1666667   0.2500000), wk =   0.0138889
        k(    9) = (   0.0000000   0.1666667  -0.5000000), wk =   0.0069444
        k(   10) = (   0.0000000   0.2500000   0.0000000), wk =   0.0069444
        k(   11) = (   0.0000000   0.2500000   0.2500000), wk =   0.0138889
        k(   12) = (   0.0000000   0.2500000  -0.5000000), wk =   0.0069444
        k(   13) = (   0.0000000   0.3333333   0.0000000), wk =   0.0069444
        k(   14) = (   0.0000000   0.3333333   0.2500000), wk =   0.0138889
        k(   15) = (   0.0000000   0.3333333  -0.5000000), wk =   0.0069444
        k(   16) = (   0.0000000   0.4166667   0.0000000), wk =   0.0069444
        k(   17) = (   0.0000000   0.4166667   0.2500000), wk =   0.0138889
        k(   18) = (   0.0000000   0.4166667  -0.5000000), wk =   0.0069444
        k(   19) = (   0.0000000  -0.5000000   0.0000000), wk =   0.0034722
        k(   20) = (   0.0000000  -0.5000000   0.2500000), wk =   0.0069444
        k(   21) = (   0.0000000  -0.5000000  -0.5000000), wk =   0.0034722
        k(   22) = (   0.0833333   0.0000000   0.0000000), wk =   0.0069444
        k(   23) = (   0.0833333   0.0000000   0.2500000), wk =   0.0138889
        k(   24) = (   0.0833333   0.0000000  -0.5000000), wk =   0.0069444
        k(   25) = (   0.0833333   0.0833333   0.0000000), wk =   0.0138889
        k(   26) = (   0.0833333   0.0833333   0.2500000), wk =   0.0277778
        k(   27) = (   0.0833333   0.0833333  -0.5000000), wk =   0.0138889
        k(   28) = (   0.0833333   0.1666667   0.0000000), wk =   0.0138889
        k(   29) = (   0.0833333   0.1666667   0.2500000), wk =   0.0277778
        k(   30) = (   0.0833333   0.1666667  -0.5000000), wk =   0.0138889
        k(   31) = (   0.0833333   0.2500000   0.0000000), wk =   0.0138889
        k(   32) = (   0.0833333   0.2500000   0.2500000), wk =   0.0277778
        k(   33) = (   0.0833333   0.2500000  -0.5000000), wk =   0.0138889
        k(   34) = (   0.0833333   0.3333333   0.0000000), wk =   0.0138889
        k(   35) = (   0.0833333   0.3333333   0.2500000), wk =   0.0277778
        k(   36) = (   0.0833333   0.3333333  -0.5000000), wk =   0.0138889
        k(   37) = (   0.0833333   0.4166667   0.0000000), wk =   0.0138889
        k(   38) = (   0.0833333   0.4166667   0.2500000), wk =   0.0277778
        k(   39) = (   0.0833333   0.4166667  -0.5000000), wk =   0.0138889
        k(   40) = (   0.0833333  -0.5000000   0.0000000), wk =   0.0069444
        k(   41) = (   0.0833333  -0.5000000   0.2500000), wk =   0.0138889
        k(   42) = (   0.0833333  -0.5000000  -0.5000000), wk =   0.0069444
        k(   43) = (   0.1666667   0.0000000   0.0000000), wk =   0.0069444
        k(   44) = (   0.1666667   0.0000000   0.2500000), wk =   0.0138889
        k(   45) = (   0.1666667   0.0000000  -0.5000000), wk =   0.0069444
        k(   46) = (   0.1666667   0.0833333   0.0000000), wk =   0.0138889
        k(   47) = (   0.1666667   0.0833333   0.2500000), wk =   0.0277778
        k(   48) = (   0.1666667   0.0833333  -0.5000000), wk =   0.0138889
        k(   49) = (   0.1666667   0.1666667   0.0000000), wk =   0.0138889
        k(   50) = (   0.1666667   0.1666667   0.2500000), wk =   0.0277778
        k(   51) = (   0.1666667   0.1666667  -0.5000000), wk =   0.0138889
        k(   52) = (   0.1666667   0.2500000   0.0000000), wk =   0.0138889
        k(   53) = (   0.1666667   0.2500000   0.2500000), wk =   0.0277778
        k(   54) = (   0.1666667   0.2500000  -0.5000000), wk =   0.0138889
        k(   55) = (   0.1666667   0.3333333   0.0000000), wk =   0.0138889
        k(   56) = (   0.1666667   0.3333333   0.2500000), wk =   0.0277778
        k(   57) = (   0.1666667   0.3333333  -0.5000000), wk =   0.0138889
        k(   58) = (   0.1666667   0.4166667   0.0000000), wk =   0.0138889
        k(   59) = (   0.1666667   0.4166667   0.2500000), wk =   0.0277778
        k(   60) = (   0.1666667   0.4166667  -0.5000000), wk =   0.0138889
        k(   61) = (   0.1666667  -0.5000000   0.0000000), wk =   0.0069444
        k(   62) = (   0.1666667  -0.5000000   0.2500000), wk =   0.0138889
        k(   63) = (   0.1666667  -0.5000000  -0.5000000), wk =   0.0069444
        k(   64) = (   0.2500000   0.0000000   0.0000000), wk =   0.0069444
        k(   65) = (   0.2500000   0.0000000   0.2500000), wk =   0.0138889
        k(   66) = (   0.2500000   0.0000000  -0.5000000), wk =   0.0069444
        k(   67) = (   0.2500000   0.0833333   0.0000000), wk =   0.0138889
        k(   68) = (   0.2500000   0.0833333   0.2500000), wk =   0.0277778
        k(   69) = (   0.2500000   0.0833333  -0.5000000), wk =   0.0138889
        k(   70) = (   0.2500000   0.1666667   0.0000000), wk =   0.0138889
        k(   71) = (   0.2500000   0.1666667   0.2500000), wk =   0.0277778
        k(   72) = (   0.2500000   0.1666667  -0.5000000), wk =   0.0138889
        k(   73) = (   0.2500000   0.2500000   0.0000000), wk =   0.0138889
        k(   74) = (   0.2500000   0.2500000   0.2500000), wk =   0.0277778
        k(   75) = (   0.2500000   0.2500000  -0.5000000), wk =   0.0138889
        k(   76) = (   0.2500000   0.3333333   0.0000000), wk =   0.0138889
        k(   77) = (   0.2500000   0.3333333   0.2500000), wk =   0.0277778
        k(   78) = (   0.2500000   0.3333333  -0.5000000), wk =   0.0138889
        k(   79) = (   0.2500000   0.4166667   0.0000000), wk =   0.0138889
        k(   80) = (   0.2500000   0.4166667   0.2500000), wk =   0.0277778
        k(   81) = (   0.2500000   0.4166667  -0.5000000), wk =   0.0138889
        k(   82) = (   0.2500000  -0.5000000   0.0000000), wk =   0.0069444
        k(   83) = (   0.2500000  -0.5000000   0.2500000), wk =   0.0138889
        k(   84) = (   0.2500000  -0.5000000  -0.5000000), wk =   0.0069444
        k(   85) = (   0.3333333   0.0000000   0.0000000), wk =   0.0069444
        k(   86) = (   0.3333333   0.0000000   0.2500000), wk =   0.0138889
        k(   87) = (   0.3333333   0.0000000  -0.5000000), wk =   0.0069444
        k(   88) = (   0.3333333   0.0833333   0.0000000), wk =   0.0138889
        k(   89) = (   0.3333333   0.0833333   0.2500000), wk =   0.0277778
        k(   90) = (   0.3333333   0.0833333  -0.5000000), wk =   0.0138889
        k(   91) = (   0.3333333   0.1666667   0.0000000), wk =   0.0138889
        k(   92) = (   0.3333333   0.1666667   0.2500000), wk =   0.0277778
        k(   93) = (   0.3333333   0.1666667  -0.5000000), wk =   0.0138889
        k(   94) = (   0.3333333   0.2500000   0.0000000), wk =   0.0138889
        k(   95) = (   0.3333333   0.2500000   0.2500000), wk =   0.0277778
        k(   96) = (   0.3333333   0.2500000  -0.5000000), wk =   0.0138889
        k(   97) = (   0.3333333   0.3333333   0.0000000), wk =   0.0138889
        k(   98) = (   0.3333333   0.3333333   0.2500000), wk =   0.0277778
        k(   99) = (   0.3333333   0.3333333  -0.5000000), wk =   0.0138889
        k(  100) = (   0.3333333   0.4166667   0.0000000), wk =   0.0138889
        k(  101) = (   0.3333333   0.4166667   0.2500000), wk =   0.0277778
        k(  102) = (   0.3333333   0.4166667  -0.5000000), wk =   0.0138889
        k(  103) = (   0.3333333  -0.5000000   0.0000000), wk =   0.0069444
        k(  104) = (   0.3333333  -0.5000000   0.2500000), wk =   0.0138889
        k(  105) = (   0.3333333  -0.5000000  -0.5000000), wk =   0.0069444
        k(  106) = (   0.4166667   0.0000000   0.0000000), wk =   0.0069444
        k(  107) = (   0.4166667   0.0000000   0.2500000), wk =   0.0138889
        k(  108) = (   0.4166667   0.0000000  -0.5000000), wk =   0.0069444
        k(  109) = (   0.4166667   0.0833333   0.0000000), wk =   0.0138889
        k(  110) = (   0.4166667   0.0833333   0.2500000), wk =   0.0277778
        k(  111) = (   0.4166667   0.0833333  -0.5000000), wk =   0.0138889
        k(  112) = (   0.4166667   0.1666667   0.0000000), wk =   0.0138889
        k(  113) = (   0.4166667   0.1666667   0.2500000), wk =   0.0277778
        k(  114) = (   0.4166667   0.1666667  -0.5000000), wk =   0.0138889
        k(  115) = (   0.4166667   0.2500000   0.0000000), wk =   0.0138889
        k(  116) = (   0.4166667   0.2500000   0.2500000), wk =   0.0277778
        k(  117) = (   0.4166667   0.2500000  -0.5000000), wk =   0.0138889
        k(  118) = (   0.4166667   0.3333333   0.0000000), wk =   0.0138889
        k(  119) = (   0.4166667   0.3333333   0.2500000), wk =   0.0277778
        k(  120) = (   0.4166667   0.3333333  -0.5000000), wk =   0.0138889
        k(  121) = (   0.4166667   0.4166667   0.0000000), wk =   0.0138889
        k(  122) = (   0.4166667   0.4166667   0.2500000), wk =   0.0277778
        k(  123) = (   0.4166667   0.4166667  -0.5000000), wk =   0.0138889
        k(  124) = (   0.4166667  -0.5000000   0.0000000), wk =   0.0069444
        k(  125) = (   0.4166667  -0.5000000   0.2500000), wk =   0.0138889
        k(  126) = (   0.4166667  -0.5000000  -0.5000000), wk =   0.0069444
        k(  127) = (  -0.5000000   0.0000000   0.0000000), wk =   0.0034722
        k(  128) = (  -0.5000000   0.0000000   0.2500000), wk =   0.0069444
        k(  129) = (  -0.5000000   0.0000000  -0.5000000), wk =   0.0034722
        k(  130) = (  -0.5000000   0.0833333   0.0000000), wk =   0.0069444
        k(  131) = (  -0.5000000   0.0833333   0.2500000), wk =   0.0138889
        k(  132) = (  -0.5000000   0.0833333  -0.5000000), wk =   0.0069444
        k(  133) = (  -0.5000000   0.1666667   0.0000000), wk =   0.0069444
        k(  134) = (  -0.5000000   0.1666667   0.2500000), wk =   0.0138889
        k(  135) = (  -0.5000000   0.1666667  -0.5000000), wk =   0.0069444
        k(  136) = (  -0.5000000   0.2500000   0.0000000), wk =   0.0069444
        k(  137) = (  -0.5000000   0.2500000   0.2500000), wk =   0.0138889
        k(  138) = (  -0.5000000   0.2500000  -0.5000000), wk =   0.0069444
        k(  139) = (  -0.5000000   0.3333333   0.0000000), wk =   0.0069444
        k(  140) = (  -0.5000000   0.3333333   0.2500000), wk =   0.0138889
        k(  141) = (  -0.5000000   0.3333333  -0.5000000), wk =   0.0069444
        k(  142) = (  -0.5000000   0.4166667   0.0000000), wk =   0.0069444
        k(  143) = (  -0.5000000   0.4166667   0.2500000), wk =   0.0138889
        k(  144) = (  -0.5000000   0.4166667  -0.5000000), wk =   0.0069444
        k(  145) = (  -0.5000000  -0.5000000   0.0000000), wk =   0.0034722
        k(  146) = (  -0.5000000  -0.5000000   0.2500000), wk =   0.0069444
        k(  147) = (  -0.5000000  -0.5000000  -0.5000000), wk =   0.0034722

     Dense  grid:   130013 G-vectors     FFT dimensions: (  48,  48, 128)

     Smooth grid:    32833 G-vectors     FFT dimensions: (  32,  30,  80)

     Dynamical RAM for                 wfc:       1.46 MB

     Dynamical RAM for     wfc (w. buffer):       1.46 MB

     Dynamical RAM for           str. fact:       1.32 MB

     Dynamical RAM for           local pot:       0.00 MB

     Dynamical RAM for          nlocal pot:       3.01 MB

     Dynamical RAM for                qrad:       2.78 MB

     Dynamical RAM for          rho,v,vnew:       4.25 MB

     Dynamical RAM for           G-vectors:       2.56 MB

     Dynamical RAM for          h,s,v(r/c):       0.90 MB

     Dynamical RAM for          <psi|beta>:       0.15 MB

     Dynamical RAM for                 psi:       2.93 MB

     Dynamical RAM for                hpsi:       2.93 MB

     Dynamical RAM for                spsi:       2.93 MB

     Dynamical RAM for      wfcinit/wfcrot:       3.04 MB

     Dynamical RAM for           addusdens:      31.91 MB

     Estimated static dynamical RAM per process >      21.16 MB

     Estimated max dynamical RAM per process >      53.06 MB

     Estimated total dynamical RAM >     636.73 MB

     The potential is recalculated from file :
     ./tmp/SnSe_pnma.save/charge-density

     Starting wfcs are   52 randomized atomic wfcs +   18 random wfcs

     Band Structure Calculation
     Davidson diagonalization with overlap

     Computing kpt #:     1  of    37 on this pool
     total cpu time spent up to now is        4.4 secs

     Computing kpt #:     2  of    37 on this pool
     total cpu time spent up to now is        7.2 secs

     Computing kpt #:     3  of    37 on this pool
     total cpu time spent up to now is       10.1 secs

     Computing kpt #:     4  of    37 on this pool
     total cpu time spent up to now is       13.2 secs

     Computing kpt #:     5  of    37 on this pool
     total cpu time spent up to now is       16.5 secs

     Computing kpt #:     6  of    37 on this pool
     total cpu time spent up to now is       19.3 secs

     Computing kpt #:     7  of    37 on this pool
     total cpu time spent up to now is       22.3 secs

     Computing kpt #:     8  of    37 on this pool
     total cpu time spent up to now is       25.3 secs

     Computing kpt #:     9  of    37 on this pool
     total cpu time spent up to now is       28.6 secs

     Computing kpt #:    10  of    37 on this pool
     total cpu time spent up to now is       31.7 secs

     Computing kpt #:    11  of    37 on this pool
     total cpu time spent up to now is       35.0 secs

     Computing kpt #:    12  of    37 on this pool
     total cpu time spent up to now is       38.0 secs

     Computing kpt #:    13  of    37 on this pool
     total cpu time spent up to now is       41.2 secs

     Computing kpt #:    14  of    37 on this pool
     total cpu time spent up to now is       44.5 secs

     Computing kpt #:    15  of    37 on this pool
     total cpu time spent up to now is       47.4 secs

     Computing kpt #:    16  of    37 on this pool
     total cpu time spent up to now is       50.4 secs

     Computing kpt #:    17  of    37 on this pool
     total cpu time spent up to now is       53.8 secs

     Computing kpt #:    18  of    37 on this pool
     total cpu time spent up to now is       56.8 secs

     Computing kpt #:    19  of    37 on this pool
     total cpu time spent up to now is       60.0 secs

     Computing kpt #:    20  of    37 on this pool
     total cpu time spent up to now is       62.9 secs

     Computing kpt #:    21  of    37 on this pool
     total cpu time spent up to now is       66.0 secs

     Computing kpt #:    22  of    37 on this pool
     total cpu time spent up to now is       69.0 secs

     Computing kpt #:    23  of    37 on this pool
     total cpu time spent up to now is       71.8 secs

     Computing kpt #:    24  of    37 on this pool
     total cpu time spent up to now is       74.8 secs

     Computing kpt #:    25  of    37 on this pool
     total cpu time spent up to now is       77.6 secs

     Computing kpt #:    26  of    37 on this pool
     total cpu time spent up to now is       80.4 secs

     Computing kpt #:    27  of    37 on this pool
     total cpu time spent up to now is       83.4 secs

     Computing kpt #:    28  of    37 on this pool
     total cpu time spent up to now is       86.3 secs

     Computing kpt #:    29  of    37 on this pool
     total cpu time spent up to now is       89.4 secs

     Computing kpt #:    30  of    37 on this pool
     total cpu time spent up to now is       92.4 secs

     Computing kpt #:    31  of    37 on this pool
     total cpu time spent up to now is       95.6 secs

     Computing kpt #:    32  of    37 on this pool
     total cpu time spent up to now is       98.6 secs

     Computing kpt #:    33  of    37 on this pool
     total cpu time spent up to now is      101.4 secs

     Computing kpt #:    34  of    37 on this pool
     total cpu time spent up to now is      104.5 secs

     Computing kpt #:    35  of    37 on this pool
     total cpu time spent up to now is      107.8 secs

     Computing kpt #:    36  of    37 on this pool
     total cpu time spent up to now is      110.6 secs

     Computing kpt #:    37  of    37 on this pool
     total cpu time spent up to now is      113.8 secs

     ethr =  1.25E-11,  avg # of iterations = 70.4

     total cpu time spent up to now is      113.9 secs

     End of band structure calculation

          k = 0.0000 0.0000 0.0000 (  4129 PWs)   bands (ev):

   -13.7590 -13.7478 -13.7458 -13.7415 -13.7404 -13.7377 -13.7343 -13.7332
   -13.7262 -13.7233 -13.7218 -13.7216 -13.7118 -13.7080 -13.6918 -13.6878
   -13.6844 -13.6815 -13.6747 -13.6681  -6.0326  -5.6990  -5.0731  -4.6158
     0.4122   1.4682   1.9732   2.5890   2.9238   4.3421   4.4184   4.4252
     4.6972   4.9083   5.4427   5.7917   6.1054   6.5556   6.8493   7.1459
     8.3724  10.2511  10.5145  10.5214  10.6921  10.9585  11.4753  12.0273
    12.1233  12.3152  12.9290  13.4278  13.6098  13.6963  13.9793  14.5855
    14.6265  15.5713  16.0153  16.1341  16.1366  16.1981  16.4602  16.6693
    17.1258  17.3369  17.8981  18.0006  18.1853  18.2964

     occupation numbers 
     1.0000   1.0000   1.0000   1.0000   1.0000   1.0000   1.0000   1.0000
     1.0000   1.0000   1.0000   1.0000   1.0000   1.0000   1.0000   1.0000
     1.0000   1.0000   1.0000   1.0000   1.0000   1.0000   1.0000   1.0000
     1.0000   1.0000   1.0000   1.0000   1.0000   1.0000   1.0000   1.0000
     1.0000   1.0000   1.0000   1.0000   1.0000   1.0000   1.0000   1.0000
     0.0000   0.0000   0.0000   0.0000   0.0000   0.0000   0.0000   0.0000
     0.0000   0.0000   0.0000   0.0000   0.0000   0.0000   0.0000   0.0000
     0.0000   0.0000   0.0000   0.0000   0.0000   0.0000   0.0000   0.0000
     0.0000   0.0000   0.0000   0.0000   0.0000   0.0000

          k = 0.0000 0.0000 0.0986 (  4128 PWs)   bands (ev):

   -13.7577 -13.7503 -13.7447 -13.7420 -13.7401 -13.7383 -13.7338 -13.7330
   -13.7258 -13.7227 -13.7225 -13.7218 -13.7114 -13.7087 -13.6911 -13.6884
   -13.6839 -13.6819 -13.6736 -13.6690  -5.9979  -5.7721  -4.9820  -4.6687
     0.4934   1.1269   2.2717   2.5629   3.0955   4.0830   4.4649   4.5509
     4.7851   4.8595   5.5904   5.6861   6.0084   6.0328   6.9184   7.1314
     9.0938  10.1407  10.2950  10.5665  10.9568  11.0326  11.5424  11.6103
    12.4221  12.5437  12.5745  13.3158  13.3539  13.5136  14.0751  14.5172
    14.8003  15.2806  15.8324  15.8828  16.2719  16.2831  16.2925  16.7318
    17.2485  17.4344  17.7059  18.0922  18.1398  18.6118

     occupation numbers 
     1.0000   1.0000   1.0000   1.0000   1.0000   1.0000   1.0000   1.0000
     1.0000   1.0000   1.0000   1.0000   1.0000   1.0000   1.0000   1.0000
     1.0000   1.0000   1.0000   1.0000   1.0000   1.0000   1.0000   1.0000
     1.0000   1.0000   1.0000   1.0000   1.0000   1.0000   1.0000   1.0000
     1.0000   1.0000   1.0000   1.0000   1.0000   1.0000   1.0000   1.0000
     0.0000   0.0000   0.0000   0.0000   0.0000   0.0000   0.0000   0.0000
     0.0000   0.0000   0.0000   0.0000   0.0000   0.0000   0.0000   0.0000
     0.0000   0.0000   0.0000   0.0000   0.0000   0.0000   0.0000   0.0000
     0.0000   0.0000   0.0000   0.0000   0.0000   0.0000

          k = 0.0000 0.0000-0.1972 (  4114 PWs)   bands (ev):

   -13.7543 -13.7543 -13.7432 -13.7432 -13.7393 -13.7393 -13.7331 -13.7331
   -13.7243 -13.7243 -13.7219 -13.7219 -13.7101 -13.7101 -13.6897 -13.6897
   -13.6829 -13.6829 -13.6712 -13.6712  -5.9010  -5.9010  -4.8094  -4.8094
     0.7368   0.7368   2.4810   2.4810   3.5883   3.5883   4.5972   4.5972
     4.8644   4.8644   5.5466   5.5466   5.8387   5.8387   7.0508   7.0508
    10.0890  10.0890  10.1754  10.1754  11.2533  11.2533  11.3679  11.3679
    12.3284  12.3284  13.0114  13.0114  13.2118  13.2118  14.3056  14.3056
    15.2692  15.2692  15.5572  15.5572  16.0319  16.0319  16.5239  16.5239
    17.6916  17.6916  17.7578  17.7578  18.3115  18.3115

     occupation numbers 
     1.0000   1.0000   1.0000   1.0000   1.0000   1.0000   1.0000   1.0000
     1.0000   1.0000   1.0000   1.0000   1.0000   1.0000   1.0000   1.0000
     1.0000   1.0000   1.0000   1.0000   1.0000   1.0000   1.0000   1.0000
     1.0000   1.0000   1.0000   1.0000   1.0000   1.0000   1.0000   1.0000
     1.0000   1.0000   1.0000   1.0000   1.0000   1.0000   1.0000   1.0000
     0.0000   0.0000   0.0000   0.0000   0.0000   0.0000   0.0000   0.0000
     0.0000   0.0000   0.0000   0.0000   0.0000   0.0000   0.0000   0.0000
     0.0000   0.0000   0.0000   0.0000   0.0000   0.0000   0.0000   0.0000
     0.0000   0.0000   0.0000   0.0000   0.0000   0.0000

          k = 0.0000 0.0910 0.0000 (  4121 PWs)   bands (ev):

   -13.7575 -13.7471 -13.7445 -13.7412 -13.7405 -13.7384 -13.7353 -13.7336
   -13.7270 -13.7230 -13.7225 -13.7208 -13.7109 -13.7082 -13.6910 -13.6883
   -13.6839 -13.6824 -13.6746 -13.6684  -5.9958  -5.6675  -5.0545  -4.6128
     0.3686   1.3749   1.9408   2.3950   2.9262   4.2967   4.3889   4.6027
     4.7350   4.8653   5.5229   5.8137   6.0603   6.6550   6.8594   7.1198
     8.4286  10.2548  10.3250  10.6241  10.6684  10.9005  11.4499  11.7825
    11.7982  12.4156  12.8978  13.1910  13.5945  13.6629  13.8141  14.3616
    14.4153  15.7330  15.9384  15.9689  16.5772  16.6467  16.8592  16.9197
    17.3637  17.5177  17.6923  17.9990  18.2562  18.7903

     occupation numbers 
     1.0000   1.0000   1.0000   1.0000   1.0000   1.0000   1.0000   1.0000
     1.0000   1.0000   1.0000   1.0000   1.0000   1.0000   1.0000   1.0000
     1.0000   1.0000   1.0000   1.0000   1.0000   1.0000   1.0000   1.0000
     1.0000   1.0000   1.0000   1.0000   1.0000   1.0000   1.0000   1.0000
     1.0000   1.0000   1.0000   1.0000   1.0000   1.0000   1.0000   1.0000
     0.0000   0.0000   0.0000   0.0000   0.0000   0.0000   0.0000   0.0000
     0.0000   0.0000   0.0000   0.0000   0.0000   0.0000   0.0000   0.0000
     0.0000   0.0000   0.0000   0.0000   0.0000   0.0000   0.0000   0.0000
     0.0000   0.0000   0.0000   0.0000   0.0000   0.0000

          k = 0.0000 0.0910 0.0986 (  4117 PWs)   bands (ev):

   -13.7563 -13.7492 -13.7437 -13.7414 -13.7406 -13.7390 -13.7346 -13.7335
   -13.7265 -13.7233 -13.7223 -13.7209 -13.7107 -13.7088 -13.6905 -13.6885
   -13.6838 -13.6827 -13.6736 -13.6692  -5.9616  -5.7393  -4.9661  -4.6636
     0.4488   1.0657   2.1786   2.3828   3.1153   4.1250   4.3602   4.7163
     4.7523   4.9091   5.5961   5.7100   5.9914   6.1291   6.9420   7.1272
     9.1415  10.2582  10.2707  10.5709  10.6772  10.9868  11.2469  11.6093
    12.2075  12.5491  12.6534  13.0893  13.3774  13.5128  13.8044  14.2434
    14.5127  15.5283  15.6107  16.0943  16.5573  16.5678  16.7592  16.8142
    17.6410  17.8183  17.9501  18.1529  18.5238  18.5528

     occupation numbers 
     1.0000   1.0000   1.0000   1.0000   1.0000   1.0000   1.0000   1.0000
     1.0000   1.0000   1.0000   1.0000   1.0000   1.0000   1.0000   1.0000
     1.0000   1.0000   1.0000   1.0000   1.0000   1.0000   1.0000   1.0000
     1.0000   1.0000   1.0000   1.0000   1.0000   1.0000   1.0000   1.0000
     1.0000   1.0000   1.0000   1.0000   1.0000   1.0000   1.0000   1.0000
     0.0000   0.0000   0.0000   0.0000   0.0000   0.0000   0.0000   0.0000
     0.0000   0.0000   0.0000   0.0000   0.0000   0.0000   0.0000   0.0000
     0.0000   0.0000   0.0000   0.0000   0.0000   0.0000   0.0000   0.0000
     0.0000   0.0000   0.0000   0.0000   0.0000   0.0000

          k = 0.0000 0.0910-0.1972 (  4106 PWs)   bands (ev):

   -13.7531 -13.7531 -13.7424 -13.7424 -13.7400 -13.7400 -13.7338 -13.7338
   -13.7251 -13.7251 -13.7213 -13.7213 -13.7099 -13.7099 -13.6893 -13.6893
   -13.6833 -13.6833 -13.6713 -13.6713  -5.8661  -5.8661  -4.7992  -4.7992
     0.6881   0.6881   2.3355   2.3355   3.6242   3.6242   4.5329   4.5329
     4.9741   4.9741   5.5839   5.5839   5.8376   5.8376   7.0771   7.0771
    10.1388  10.1388  10.2407  10.2407  10.9079  10.9079  11.2740  11.2740
    12.4388  12.4388  12.7987  12.7987  13.2525  13.2525  14.0001  14.0001
    14.9997  14.9997  15.6712  15.6712  16.4405  16.4405  16.9757  16.9757
    17.8530  17.8530  18.3002  18.3002  18.3349  18.3349

     occupation numbers 
     1.0000   1.0000   1.0000   1.0000   1.0000   1.0000   1.0000   1.0000
     1.0000   1.0000   1.0000   1.0000   1.0000   1.0000   1.0000   1.0000
     1.0000   1.0000   1.0000   1.0000   1.0000   1.0000   1.0000   1.0000
     1.0000   1.0000   1.0000   1.0000   1.0000   1.0000   1.0000   1.0000
     1.0000   1.0000   1.0000   1.0000   1.0000   1.0000   1.0000   1.0000
     0.0000   0.0000   0.0000   0.0000   0.0000   0.0000   0.0000   0.0000
     0.0000   0.0000   0.0000   0.0000   0.0000   0.0000   0.0000   0.0000
     0.0000   0.0000   0.0000   0.0000   0.0000   0.0000   0.0000   0.0000
     0.0000   0.0000   0.0000   0.0000   0.0000   0.0000

          k = 0.0000 0.1820 0.0000 (  4114 PWs)   bands (ev):

   -13.7535 -13.7462 -13.7427 -13.7409 -13.7392 -13.7387 -13.7379 -13.7350
   -13.7284 -13.7245 -13.7224 -13.7185 -13.7090 -13.7089 -13.6897 -13.6891
   -13.6850 -13.6826 -13.6743 -13.6693  -5.8878  -5.5767  -5.0046  -4.6109
     0.2473   1.1349   1.8087   1.9209   2.9755   4.2788   4.5266   4.7886
     4.7986   4.8470   5.6938   5.8745   5.9854   6.8773   6.9209   7.0131
     8.5719   9.4044  10.2773  10.6016  10.6360  10.8720  11.2595  11.3042
    11.7710  12.4452  12.6110  12.7860  13.1400  13.3753  14.1206  14.1302
    14.4213  15.6670  16.1397  16.1574  16.8775  17.0471  17.1524  17.5604
    17.6473  17.9954  18.2702  18.5511  18.7687  18.9210

     occupation numbers 
     1.0000   1.0000   1.0000   1.0000   1.0000   1.0000   1.0000   1.0000
     1.0000   1.0000   1.0000   1.0000   1.0000   1.0000   1.0000   1.0000
     1.0000   1.0000   1.0000   1.0000   1.0000   1.0000   1.0000   1.0000
     1.0000   1.0000   1.0000   1.0000   1.0000   1.0000   1.0000   1.0000
     1.0000   1.0000   1.0000   1.0000   1.0000   1.0000   1.0000   1.0000
     0.0000   0.0000   0.0000   0.0000   0.0000   0.0000   0.0000   0.0000
     0.0000   0.0000   0.0000   0.0000   0.0000   0.0000   0.0000   0.0000
     0.0000   0.0000   0.0000   0.0000   0.0000   0.0000   0.0000   0.0000
     0.0000   0.0000   0.0000   0.0000   0.0000   0.0000

          k = 0.0000 0.1820 0.0986 (  4102 PWs)   bands (ev):

   -13.7525 -13.7473 -13.7424 -13.7411 -13.7400 -13.7391 -13.7369 -13.7351
   -13.7279 -13.7251 -13.7215 -13.7189 -13.7091 -13.7091 -13.6895 -13.6889
   -13.6848 -13.6831 -13.6735 -13.6699  -5.8552  -5.6443  -4.9247  -4.6554
     0.3247   0.8945   1.9184   1.9360   3.1980   4.2526   4.3364   4.7149
     4.9176   5.0294   5.6458   5.7754   5.9262   6.3735   7.0166   7.0744
     9.2059   9.6078  10.2431  10.3721  10.6703  10.8275  10.9999  11.5984
    11.8376  12.4673  12.4890  12.6620  13.1583  13.2594  13.8557  14.1655
    14.2885  15.4563  16.0370  16.1949  16.8292  17.2366  17.4685  17.7020
    17.7066  18.2388  18.5053  18.5387  18.9464  19.2744

     occupation numbers 
     1.0000   1.0000   1.0000   1.0000   1.0000   1.0000   1.0000   1.0000
     1.0000   1.0000   1.0000   1.0000   1.0000   1.0000   1.0000   1.0000
     1.0000   1.0000   1.0000   1.0000   1.0000   1.0000   1.0000   1.0000
     1.0000   1.0000   1.0000   1.0000   1.0000   1.0000   1.0000   1.0000
     1.0000   1.0000   1.0000   1.0000   1.0000   1.0000   1.0000   1.0000
     0.0000   0.0000   0.0000   0.0000   0.0000   0.0000   0.0000   0.0000
     0.0000   0.0000   0.0000   0.0000   0.0000   0.0000   0.0000   0.0000
     0.0000   0.0000   0.0000   0.0000   0.0000   0.0000   0.0000   0.0000
     0.0000   0.0000   0.0000   0.0000   0.0000   0.0000

          k = 0.0000 0.1820-0.1972 (  4102 PWs)   bands (ev):

   -13.7500 -13.7500 -13.7417 -13.7417 -13.7399 -13.7399 -13.7357 -13.7357
   -13.7266 -13.7266 -13.7200 -13.7200 -13.7092 -13.7092 -13.6890 -13.6890
   -13.6841 -13.6841 -13.6716 -13.6716  -5.7643  -5.7643  -4.7752  -4.7752
     0.5524   0.5524   1.9606   1.9606   3.7354   3.7354   4.5040   4.5040
     5.1412   5.1412   5.6517   5.6517   5.8902   5.8902   7.1172   7.1172
     9.7879   9.7879  10.2825  10.2825  10.7443  10.7443  11.0691  11.0691
    12.2283  12.2283  12.5162  12.5162  13.0997  13.0997  13.9531  13.9531
    14.6692  14.6692  16.1688  16.1688  17.2857  17.2857  17.5313  17.5313
    18.1744  18.1744  18.4769  18.4769  19.3244  19.3244

     occupation numbers 
     1.0000   1.0000   1.0000   1.0000   1.0000   1.0000   1.0000   1.0000
     1.0000   1.0000   1.0000   1.0000   1.0000   1.0000   1.0000   1.0000
     1.0000   1.0000   1.0000   1.0000   1.0000   1.0000   1.0000   1.0000
     1.0000   1.0000   1.0000   1.0000   1.0000   1.0000   1.0000   1.0000
     1.0000   1.0000   1.0000   1.0000   1.0000   1.0000   1.0000   1.0000
     0.0000   0.0000   0.0000   0.0000   0.0000   0.0000   0.0000   0.0000
     0.0000   0.0000   0.0000   0.0000   0.0000   0.0000   0.0000   0.0000
     0.0000   0.0000   0.0000   0.0000   0.0000   0.0000   0.0000   0.0000
     0.0000   0.0000   0.0000   0.0000   0.0000   0.0000

          k = 0.0000 0.2730 0.0000 (  4118 PWs)   bands (ev):

   -13.7483 -13.7473 -13.7447 -13.7416 -13.7376 -13.7372 -13.7362 -13.7361
   -13.7289 -13.7265 -13.7222 -13.7154 -13.7104 -13.7067 -13.6920 -13.6891
   -13.6863 -13.6807 -13.6737 -13.6703  -5.7171  -5.4374  -4.9415  -4.6294
     0.0841   0.8481   1.3443   1.5441   3.1362   4.3775   4.7442   4.8155
     4.9323   5.0164   5.8780   5.8935   6.0254   6.8350   6.8750   7.2534
     8.5522   8.7662   9.8462   9.9845  10.1703  10.6211  10.8193  11.2546
    11.9897  12.0778  12.2124  12.5149  13.4197  13.5862  14.0735  14.7545
    14.8962  15.2200  16.3175  16.5698  16.8118  17.0023  17.0815  17.7155
    18.0687  18.8939  19.0126  19.5697  19.7902  19.9884

     occupation numbers 
     1.0000   1.0000   1.0000   1.0000   1.0000   1.0000   1.0000   1.0000
     1.0000   1.0000   1.0000   1.0000   1.0000   1.0000   1.0000   1.0000
     1.0000   1.0000   1.0000   1.0000   1.0000   1.0000   1.0000   1.0000
     1.0000   1.0000   1.0000   1.0000   1.0000   1.0000   1.0000   1.0000
     1.0000   1.0000   1.0000   1.0000   1.0000   1.0000   1.0000   1.0000
     0.0000   0.0000   0.0000   0.0000   0.0000   0.0000   0.0000   0.0000
     0.0000   0.0000   0.0000   0.0000   0.0000   0.0000   0.0000   0.0000
     0.0000   0.0000   0.0000   0.0000   0.0000   0.0000   0.0000   0.0000
     0.0000   0.0000   0.0000   0.0000   0.0000   0.0000

          k = 0.0000 0.2730 0.0986 (  4123 PWs)   bands (ev):

   -13.7482 -13.7475 -13.7440 -13.7415 -13.7376 -13.7374 -13.7369 -13.7363
   -13.7285 -13.7269 -13.7210 -13.7165 -13.7096 -13.7072 -13.6917 -13.6899
   -13.6851 -13.6813 -13.6732 -13.6708  -5.6873  -5.4974  -4.8764  -4.6634
     0.1581   0.6688   1.3846   1.5487   3.3749   4.4336   4.4619   4.7491
     5.0799   5.2103   5.7472   5.8364   5.9289   6.5274   6.9542   7.1627
     8.6958   9.4846   9.6075  10.0293  10.1987  10.6758  10.8280  11.3193
    11.8070  11.9289  12.1472  12.2927  13.3999  13.5792  14.1132  14.4940
    14.8369  15.3966  16.0807  16.5776  17.0349  17.2589  17.5041  18.1653
    18.3516  18.3726  19.0570  19.1015  19.5235  19.8452

     occupation numbers 
     1.0000   1.0000   1.0000   1.0000   1.0000   1.0000   1.0000   1.0000
     1.0000   1.0000   1.0000   1.0000   1.0000   1.0000   1.0000   1.0000
     1.0000   1.0000   1.0000   1.0000   1.0000   1.0000   1.0000   1.0000
     1.0000   1.0000   1.0000   1.0000   1.0000   1.0000   1.0000   1.0000
     1.0000   1.0000   1.0000   1.0000   1.0000   1.0000   1.0000   1.0000
     0.0000   0.0000   0.0000   0.0000   0.0000   0.0000   0.0000   0.0000
     0.0000   0.0000   0.0000   0.0000   0.0000   0.0000   0.0000   0.0000
     0.0000   0.0000   0.0000   0.0000   0.0000   0.0000   0.0000   0.0000
     0.0000   0.0000   0.0000   0.0000   0.0000   0.0000

          k = 0.0000 0.2730-0.1972 (  4124 PWs)   bands (ev):

   -13.7479 -13.7479 -13.7423 -13.7423 -13.7381 -13.7381 -13.7366 -13.7366
   -13.7276 -13.7276 -13.7188 -13.7188 -13.7083 -13.7083 -13.6909 -13.6909
   -13.6831 -13.6831 -13.6719 -13.6719  -5.6050  -5.6050  -4.7567  -4.7567
     0.3709   0.3709   1.4792   1.4792   3.9270   3.9270   4.5821   4.5821
     5.3240   5.3240   5.7018   5.7018   5.9812   5.9812   7.1152   7.1152
     9.1522   9.1522  10.0161  10.0161  10.6712  10.6712  10.9855  10.9855
    11.5975  11.5975  12.1152  12.1152  13.4365  13.4365  14.5167  14.5167
    14.7332  14.7332  16.5890  16.5890  17.5924  17.5924  17.7396  17.7396
    18.3064  18.3064  18.9509  18.9509  19.2992  19.2992

     occupation numbers 
     1.0000   1.0000   1.0000   1.0000   1.0000   1.0000   1.0000   1.0000
     1.0000   1.0000   1.0000   1.0000   1.0000   1.0000   1.0000   1.0000
     1.0000   1.0000   1.0000   1.0000   1.0000   1.0000   1.0000   1.0000
     1.0000   1.0000   1.0000   1.0000   1.0000   1.0000   1.0000   1.0000
     1.0000   1.0000   1.0000   1.0000   1.0000   1.0000   1.0000   1.0000
     0.0000   0.0000   0.0000   0.0000   0.0000   0.0000   0.0000   0.0000
     0.0000   0.0000   0.0000   0.0000   0.0000   0.0000   0.0000   0.0000
     0.0000   0.0000   0.0000   0.0000   0.0000   0.0000   0.0000   0.0000
     0.0000   0.0000   0.0000   0.0000   0.0000   0.0000

          k = 0.0000 0.3640 0.0000 (  4106 PWs)   bands (ev):

   -13.7493 -13.7466 -13.7454 -13.7449 -13.7381 -13.7344 -13.7341 -13.7315
   -13.7278 -13.7276 -13.7226 -13.7127 -13.7117 -13.7044 -13.6946 -13.6941
   -13.6829 -13.6784 -13.6732 -13.6717  -5.4986  -5.2692  -4.8944  -4.6942
    -0.0552   0.6249   0.7889   1.2001   3.4135   4.5310   4.9320   4.9827
     5.0594   5.2016   5.8116   6.0443   6.2118   6.7026   6.8244   7.2909
     8.1253   8.9722   9.3267   9.3301   9.7083  10.0885  10.3276  10.9630
    11.3726  11.7402  12.0908  12.5705  13.9639  14.5794  14.6807  14.9255
    15.6187  15.8000  15.8342  16.2540  16.9120  16.9459  17.4640  18.0921
    19.0343  19.3752  19.5069  19.5338  20.1658  20.1719

     occupation numbers 
     1.0000   1.0000   1.0000   1.0000   1.0000   1.0000   1.0000   1.0000
     1.0000   1.0000   1.0000   1.0000   1.0000   1.0000   1.0000   1.0000
     1.0000   1.0000   1.0000   1.0000   1.0000   1.0000   1.0000   1.0000
     1.0000   1.0000   1.0000   1.0000   1.0000   1.0000   1.0000   1.0000
     1.0000   1.0000   1.0000   1.0000   1.0000   1.0000   1.0000   1.0000
     0.0000   0.0000   0.0000   0.0000   0.0000   0.0000   0.0000   0.0000
     0.0000   0.0000   0.0000   0.0000   0.0000   0.0000   0.0000   0.0000
     0.0000   0.0000   0.0000   0.0000   0.0000   0.0000   0.0000   0.0000
     0.0000   0.0000   0.0000   0.0000   0.0000   0.0000

          k = 0.0000 0.3640 0.0986 (  4124 PWs)   bands (ev):

   -13.7492 -13.7476 -13.7450 -13.7442 -13.7376 -13.7345 -13.7342 -13.7328
   -13.7277 -13.7274 -13.7212 -13.7155 -13.7091 -13.7051 -13.6946 -13.6943
   -13.6822 -13.6790 -13.6730 -13.6719  -5.4736  -5.3172  -4.8503  -4.7146
     0.0172   0.4832   0.8480   1.1447   3.6503   4.6056   4.7418   4.8905
     5.1400   5.4154   5.7890   5.8715   6.0671   6.4884   6.8475   7.1753
     8.3144   9.0440   9.4919   9.5789   9.8619  10.1939  10.3315  10.8900
    11.2173  11.6791  11.8326  12.2259  14.1101  14.5423  14.6480  15.0578
    15.6696  15.6930  16.0734  16.5105  16.6230  17.0197  18.1189  18.2189
    18.5125  18.5963  19.1779  19.2943  20.2899  20.3814

     occupation numbers 
     1.0000   1.0000   1.0000   1.0000   1.0000   1.0000   1.0000   1.0000
     1.0000   1.0000   1.0000   1.0000   1.0000   1.0000   1.0000   1.0000
     1.0000   1.0000   1.0000   1.0000   1.0000   1.0000   1.0000   1.0000
     1.0000   1.0000   1.0000   1.0000   1.0000   1.0000   1.0000   1.0000
     1.0000   1.0000   1.0000   1.0000   1.0000   1.0000   1.0000   1.0000
     0.0000   0.0000   0.0000   0.0000   0.0000   0.0000   0.0000   0.0000
     0.0000   0.0000   0.0000   0.0000   0.0000   0.0000   0.0000   0.0000
     0.0000   0.0000   0.0000   0.0000   0.0000   0.0000   0.0000   0.0000
     0.0000   0.0000   0.0000   0.0000   0.0000   0.0000

          k = 0.0000 0.3640-0.1972 (  4120 PWs)   bands (ev):

   -13.7487 -13.7487 -13.7443 -13.7443 -13.7358 -13.7358 -13.7342 -13.7342
   -13.7274 -13.7274 -13.7186 -13.7186 -13.7067 -13.7067 -13.6945 -13.6945
   -13.6806 -13.6806 -13.6724 -13.6724  -5.4051  -5.4051  -4.7724  -4.7724
     0.2197   0.2197   0.9954   0.9954   4.2001   4.2001   4.7539   4.7539
     5.5056   5.5056   5.7094   5.7094   6.0167   6.0167   7.0323   7.0323
     8.7297   8.7297   9.6320   9.6320  10.3594  10.3594  10.7427  10.7427
    11.0820  11.0820  11.7677  11.7677  14.4184  14.4184  14.8644  14.8644
    15.5482  15.5482  16.6801  16.6801  17.0696  17.0696  17.6532  17.6532
    18.4284  18.4284  19.3085  19.3085  20.2280  20.2280

     occupation numbers 
     1.0000   1.0000   1.0000   1.0000   1.0000   1.0000   1.0000   1.0000
     1.0000   1.0000   1.0000   1.0000   1.0000   1.0000   1.0000   1.0000
     1.0000   1.0000   1.0000   1.0000   1.0000   1.0000   1.0000   1.0000
     1.0000   1.0000   1.0000   1.0000   1.0000   1.0000   1.0000   1.0000
     1.0000   1.0000   1.0000   1.0000   1.0000   1.0000   1.0000   1.0000
     0.0000   0.0000   0.0000   0.0000   0.0000   0.0000   0.0000   0.0000
     0.0000   0.0000   0.0000   0.0000   0.0000   0.0000   0.0000   0.0000
     0.0000   0.0000   0.0000   0.0000   0.0000   0.0000   0.0000   0.0000
     0.0000   0.0000   0.0000   0.0000   0.0000   0.0000

          k = 0.0000 0.4550 0.0000 (  4126 PWs)   bands (ev):

   -13.7506 -13.7486 -13.7476 -13.7459 -13.7358 -13.7332 -13.7318 -13.7297
   -13.7270 -13.7244 -13.7235 -13.7159 -13.7078 -13.7021 -13.6991 -13.6972
   -13.6794 -13.6762 -13.6735 -13.6734  -5.2557  -5.1008  -4.8960  -4.8247
    -0.0922   0.3339   0.5434   0.8691   3.7742   4.4894   5.0888   5.1384
     5.3261   5.4373   5.6306   6.1311   6.4524   6.6866   6.7188   6.7920
     8.4258   8.8385   8.8985   9.0601   9.4278   9.6296  10.0836  10.5201
    10.9005  11.2320  12.2443  12.5440  14.3688  14.7629  15.2727  15.4987
    15.8282  16.0946  16.3543  16.9176  17.1312  17.5666  17.9667  18.5130
    18.9278  19.0843  19.1989  19.4733  19.5362  19.9211

     occupation numbers 
     1.0000   1.0000   1.0000   1.0000   1.0000   1.0000   1.0000   1.0000
     1.0000   1.0000   1.0000   1.0000   1.0000   1.0000   1.0000   1.0000
     1.0000   1.0000   1.0000   1.0000   1.0000   1.0000   1.0000   1.0000
     1.0000   1.0000   1.0000   1.0000   1.0000   1.0000   1.0000   1.0000
     1.0000   1.0000   1.0000   1.0000   1.0000   1.0000   1.0000   1.0000
     0.0000   0.0000   0.0000   0.0000   0.0000   0.0000   0.0000   0.0000
     0.0000   0.0000   0.0000   0.0000   0.0000   0.0000   0.0000   0.0000
     0.0000   0.0000   0.0000   0.0000   0.0000   0.0000   0.0000   0.0000
     0.0000   0.0000   0.0000   0.0000   0.0000   0.0000

          k = 0.0000 0.4550 0.0986 (  4137 PWs)   bands (ev):

   -13.7503 -13.7482 -13.7482 -13.7462 -13.7350 -13.7330 -13.7322 -13.7308
   -13.7264 -13.7245 -13.7222 -13.7173 -13.7066 -13.7028 -13.6989 -13.6975
   -13.6789 -13.6767 -13.6735 -13.6734  -5.2379  -5.1315  -4.8777  -4.8304
    -0.0187   0.4041   0.4226   0.7818   4.0022   4.6564   5.0582   5.0936
     5.1687   5.5749   5.6353   5.9504   6.3034   6.3541   6.7657   6.8189
     8.5544   8.7382   9.1517   9.2926   9.6850   9.7796  10.0068  10.4102
    10.8034  11.2367  11.9249  12.1662  14.5525  15.0833  15.5923  15.6009
    15.9479  16.0029  16.3126  16.5470  17.3160  17.4663  17.8459  17.9388
    18.6198  18.7213  19.1788  19.5984  20.0447  20.3284

     occupation numbers 
     1.0000   1.0000   1.0000   1.0000   1.0000   1.0000   1.0000   1.0000
     1.0000   1.0000   1.0000   1.0000   1.0000   1.0000   1.0000   1.0000
     1.0000   1.0000   1.0000   1.0000   1.0000   1.0000   1.0000   1.0000
     1.0000   1.0000   1.0000   1.0000   1.0000   1.0000   1.0000   1.0000
     1.0000   1.0000   1.0000   1.0000   1.0000   1.0000   1.0000   1.0000
     0.0000   0.0000   0.0000   0.0000   0.0000   0.0000   0.0000   0.0000
     0.0000   0.0000   0.0000   0.0000   0.0000   0.0000   0.0000   0.0000
     0.0000   0.0000   0.0000   0.0000   0.0000   0.0000   0.0000   0.0000
     0.0000   0.0000   0.0000   0.0000   0.0000   0.0000

          k = 0.0000 0.4550-0.1972 (  4126 PWs)   bands (ev):

   -13.7494 -13.7494 -13.7471 -13.7471 -13.7333 -13.7333 -13.7325 -13.7325
   -13.7252 -13.7252 -13.7197 -13.7197 -13.7045 -13.7045 -13.6983 -13.6983
   -13.6778 -13.6778 -13.6735 -13.6735  -5.1902  -5.1902  -4.8487  -4.8487
     0.1801   0.1801   0.5840   0.5840   4.5380   4.5380   4.9386   4.9386
     5.5009   5.5009   5.6415   5.6415   6.1521   6.1521   6.8026   6.8026
     8.7166   8.7166   9.3490   9.3490   9.9154   9.9154  10.1793  10.1793
    11.1479  11.1479  11.5214  11.5214  15.1259  15.1259  15.7331  15.7331
    16.1501  16.1501  16.2937  16.2937  17.1116  17.1116  17.5141  17.5141
    18.7436  18.7436  19.5329  19.5329  20.3784  20.3784

     occupation numbers 
     1.0000   1.0000   1.0000   1.0000   1.0000   1.0000   1.0000   1.0000
     1.0000   1.0000   1.0000   1.0000   1.0000   1.0000   1.0000   1.0000
     1.0000   1.0000   1.0000   1.0000   1.0000   1.0000   1.0000   1.0000
     1.0000   1.0000   1.0000   1.0000   1.0000   1.0000   1.0000   1.0000
     1.0000   1.0000   1.0000   1.0000   1.0000   1.0000   1.0000   1.0000
     0.0000   0.0000   0.0000   0.0000   0.0000   0.0000   0.0000   0.0000
     0.0000   0.0000   0.0000   0.0000   0.0000   0.0000   0.0000   0.0000
     0.0000   0.0000   0.0000   0.0000   0.0000   0.0000   0.0000   0.0000
     0.0000   0.0000   0.0000   0.0000   0.0000   0.0000

          k = 0.0000-0.5460 0.0000 (  4146 PWs)   bands (ev):

   -13.7504 -13.7504 -13.7473 -13.7473 -13.7338 -13.7338 -13.7303 -13.7303
   -13.7249 -13.7249 -13.7201 -13.7201 -13.7037 -13.7037 -13.6997 -13.6997
   -13.6762 -13.6762 -13.6744 -13.6744  -5.0198  -5.0198  -4.9669  -4.9669
     0.0320   0.0320   0.6317   0.6317   4.1665   4.1665   5.3047   5.3047
     5.3603   5.3603   5.8783   5.8783   6.6130   6.6130   6.6424   6.6424
     8.6814   8.6814   8.8264   8.8264   9.4124   9.4124  10.1760  10.1760
    10.8746  10.8746  12.4181  12.4181  14.8712  14.8712  14.9038  14.9038
    16.7053  16.7053  17.1307  17.1307  17.6258  17.6258  18.4568  18.4568
    18.7621  18.7621  19.1319  19.1319  19.3168  19.3168

     occupation numbers 
     1.0000   1.0000   1.0000   1.0000   1.0000   1.0000   1.0000   1.0000
     1.0000   1.0000   1.0000   1.0000   1.0000   1.0000   1.0000   1.0000
     1.0000   1.0000   1.0000   1.0000   1.0000   1.0000   1.0000   1.0000
     1.0000   1.0000   1.0000   1.0000   1.0000   1.0000   1.0000   1.0000
     1.0000   1.0000   1.0000   1.0000   1.0000   1.0000   1.0000   1.0000
     0.0000   0.0000   0.0000   0.0000   0.0000   0.0000   0.0000   0.0000
     0.0000   0.0000   0.0000   0.0000   0.0000   0.0000   0.0000   0.0000
     0.0000   0.0000   0.0000   0.0000   0.0000   0.0000   0.0000   0.0000
     0.0000   0.0000   0.0000   0.0000   0.0000   0.0000

          k = 0.0000-0.5460 0.0986 (  4122 PWs)   bands (ev):

   -13.7500 -13.7500 -13.7478 -13.7478 -13.7334 -13.7334 -13.7310 -13.7310
   -13.7239 -13.7239 -13.7206 -13.7206 -13.7031 -13.7031 -13.7003 -13.7003
   -13.6759 -13.6759 -13.6746 -13.6746  -5.0123  -5.0123  -4.9748  -4.9748
     0.1061   0.1061   0.5258   0.5258   4.3801   4.3801   5.2223   5.2223
     5.3914   5.3914   5.7548   5.7548   6.4784   6.4784   6.5783   6.5783
     8.8058   8.8058   8.9970   8.9970   9.5566   9.5566  10.0643  10.0643
    10.8932  10.8932  12.0558  12.0558  15.0738  15.0738  15.2574  15.2574
    16.6744  16.6744  16.8654  16.8654  17.5027  17.5027  17.9130  17.9130
    18.8030  18.8030  19.0139  19.0139  20.0235  20.0235

     occupation numbers 
     1.0000   1.0000   1.0000   1.0000   1.0000   1.0000   1.0000   1.0000
     1.0000   1.0000   1.0000   1.0000   1.0000   1.0000   1.0000   1.0000
     1.0000   1.0000   1.0000   1.0000   1.0000   1.0000   1.0000   1.0000
     1.0000   1.0000   1.0000   1.0000   1.0000   1.0000   1.0000   1.0000
     1.0000   1.0000   1.0000   1.0000   1.0000   1.0000   1.0000   1.0000
     0.0000   0.0000   0.0000   0.0000   0.0000   0.0000   0.0000   0.0000
     0.0000   0.0000   0.0000   0.0000   0.0000   0.0000   0.0000   0.0000
     0.0000   0.0000   0.0000   0.0000   0.0000   0.0000   0.0000   0.0000
     0.0000   0.0000   0.0000   0.0000   0.0000   0.0000

          k = 0.0000-0.5460-0.1972 (  4116 PWs)   bands (ev):

   -13.7490 -13.7490 -13.7490 -13.7490 -13.7323 -13.7323 -13.7323 -13.7323
   -13.7221 -13.7221 -13.7221 -13.7221 -13.7016 -13.7016 -13.7016 -13.7016
   -13.6753 -13.6753 -13.6753 -13.6753  -4.9938  -4.9938  -4.9938  -4.9938
     0.3008   0.3008   0.3008   0.3008   4.8668   4.8668   4.8668   4.8668
     5.5038   5.5038   5.5038   5.5038   6.4664   6.4664   6.4664   6.4664
     9.0222   9.0222   9.0222   9.0222   9.8280   9.8280   9.8280   9.8280
    11.3180  11.3180  11.3180  11.3180  15.6378  15.6378  15.6378  15.6378
    16.3168  16.3168  16.3168  16.3168  17.5643  17.5643  17.5643  17.5643
    19.0236  19.0236  19.0236  19.0236  20.3966  20.3966

     occupation numbers 
     1.0000   1.0000   1.0000   1.0000   1.0000   1.0000   1.0000   1.0000
     1.0000   1.0000   1.0000   1.0000   1.0000   1.0000   1.0000   1.0000
     1.0000   1.0000   1.0000   1.0000   1.0000   1.0000   1.0000   1.0000
     1.0000   1.0000   1.0000   1.0000   1.0000   1.0000   1.0000   1.0000
     1.0000   1.0000   1.0000   1.0000   1.0000   1.0000   1.0000   1.0000
     0.0000   0.0000   0.0000   0.0000   0.0000   0.0000   0.0000   0.0000
     0.0000   0.0000   0.0000   0.0000   0.0000   0.0000   0.0000   0.0000
     0.0000   0.0000   0.0000   0.0000   0.0000   0.0000   0.0000   0.0000
     0.0000   0.0000   0.0000   0.0000   0.0000   0.0000

          k = 0.0833 0.0000 0.0000 (  4099 PWs)   bands (ev):

   -13.7587 -13.7476 -13.7459 -13.7414 -13.7406 -13.7380 -13.7344 -13.7331
   -13.7262 -13.7229 -13.7216 -13.7210 -13.7115 -13.7081 -13.6918 -13.6876
   -13.6846 -13.6816 -13.6746 -13.6682  -6.0060  -5.6747  -5.0700  -4.6227
     0.3118   1.4187   1.8231   2.4581   2.9218   4.3192   4.4592   4.6334
     4.9072   4.9445   5.4683   5.8431   6.1166   6.6721   6.7642   7.1593
     8.3813   9.9957  10.5162  10.6149  10.6696  10.7678  11.5574  11.8457
    11.9843  12.2221  12.9042  13.2447  13.4091  13.7294  13.9763  14.6098
    14.7074  15.6002  15.8532  16.0877  16.3840  16.4951  16.7430  16.8453
    17.3985  17.4094  17.7788  18.2026  18.3160  18.5837

     occupation numbers 
     1.0000   1.0000   1.0000   1.0000   1.0000   1.0000   1.0000   1.0000
     1.0000   1.0000   1.0000   1.0000   1.0000   1.0000   1.0000   1.0000
     1.0000   1.0000   1.0000   1.0000   1.0000   1.0000   1.0000   1.0000
     1.0000   1.0000   1.0000   1.0000   1.0000   1.0000   1.0000   1.0000
     1.0000   1.0000   1.0000   1.0000   1.0000   1.0000   1.0000   1.0000
     0.0000   0.0000   0.0000   0.0000   0.0000   0.0000   0.0000   0.0000
     0.0000   0.0000   0.0000   0.0000   0.0000   0.0000   0.0000   0.0000
     0.0000   0.0000   0.0000   0.0000   0.0000   0.0000   0.0000   0.0000
     0.0000   0.0000   0.0000   0.0000   0.0000   0.0000

          k = 0.0833 0.0000 0.0986 (  4118 PWs)   bands (ev):

   -13.7574 -13.7501 -13.7446 -13.7419 -13.7404 -13.7386 -13.7339 -13.7330
   -13.7257 -13.7225 -13.7223 -13.7211 -13.7112 -13.7087 -13.6912 -13.6883
   -13.6841 -13.6820 -13.6736 -13.6690  -5.9716  -5.7476  -4.9802  -4.6742
     0.3967   1.0537   2.1156   2.4378   3.1208   4.1629   4.5053   4.6532
     4.8224   5.0175   5.6136   5.7258   6.0460   6.1786   6.8507   7.1292
     9.0824  10.0198  10.3482  10.5515  10.8451  10.8707  11.4407  11.5451
    12.3176  12.4154  12.5860  13.1394  13.3135  13.4965  14.0180  14.5703
    14.7877  15.2880  15.8558  15.9952  16.2011  16.5634  16.5973  16.9838
    17.5178  17.6742  17.9118  18.1812  18.4141  18.4897

     occupation numbers 
     1.0000   1.0000   1.0000   1.0000   1.0000   1.0000   1.0000   1.0000
     1.0000   1.0000   1.0000   1.0000   1.0000   1.0000   1.0000   1.0000
     1.0000   1.0000   1.0000   1.0000   1.0000   1.0000   1.0000   1.0000
     1.0000   1.0000   1.0000   1.0000   1.0000   1.0000   1.0000   1.0000
     1.0000   1.0000   1.0000   1.0000   1.0000   1.0000   1.0000   1.0000
     0.0000   0.0000   0.0000   0.0000   0.0000   0.0000   0.0000   0.0000
     0.0000   0.0000   0.0000   0.0000   0.0000   0.0000   0.0000   0.0000
     0.0000   0.0000   0.0000   0.0000   0.0000   0.0000   0.0000   0.0000
     0.0000   0.0000   0.0000   0.0000   0.0000   0.0000

          k = 0.0833 0.0000-0.1972 (  4108 PWs)   bands (ev):

   -13.7541 -13.7541 -13.7431 -13.7431 -13.7396 -13.7396 -13.7332 -13.7332
   -13.7243 -13.7243 -13.7214 -13.7214 -13.7101 -13.7101 -13.6897 -13.6897
   -13.6830 -13.6830 -13.6712 -13.6712  -5.8756  -5.8756  -4.8113  -4.8113
     0.6499   0.6499   2.3332   2.3332   3.6627   3.6627   4.6363   4.6363
     4.9157   4.9157   5.7156   5.7156   5.8567   5.8567   7.0158   7.0158
     9.9581   9.9581  10.2991  10.2991  11.0743  11.0743  11.2341  11.2341
    12.3100  12.3100  12.8445  12.8445  13.2653  13.2653  14.2494  14.2494
    15.2765  15.2765  15.4803  15.4803  16.4111  16.4111  16.7597  16.7597
    17.8741  17.8741  18.0912  18.0912  18.3388  18.3388

     occupation numbers 
     1.0000   1.0000   1.0000   1.0000   1.0000   1.0000   1.0000   1.0000
     1.0000   1.0000   1.0000   1.0000   1.0000   1.0000   1.0000   1.0000
     1.0000   1.0000   1.0000   1.0000   1.0000   1.0000   1.0000   1.0000
     1.0000   1.0000   1.0000   1.0000   1.0000   1.0000   1.0000   1.0000
     1.0000   1.0000   1.0000   1.0000   1.0000   1.0000   1.0000   1.0000
     0.0000   0.0000   0.0000   0.0000   0.0000   0.0000   0.0000   0.0000
     0.0000   0.0000   0.0000   0.0000   0.0000   0.0000   0.0000   0.0000
     0.0000   0.0000   0.0000   0.0000   0.0000   0.0000   0.0000   0.0000
     0.0000   0.0000   0.0000   0.0000   0.0000   0.0000

          k = 0.0833 0.0910 0.0000 (  4125 PWs)   bands (ev):

   -13.7572 -13.7470 -13.7446 -13.7415 -13.7405 -13.7386 -13.7353 -13.7336
   -13.7272 -13.7226 -13.7223 -13.7202 -13.7108 -13.7082 -13.6912 -13.6881
   -13.6841 -13.6825 -13.6745 -13.6685  -5.9694  -5.6436  -5.0513  -4.6193
     0.2817   1.3412   1.7911   2.3159   2.9233   4.2077   4.3404   4.8079
     4.8927   5.0316   5.4288   5.9165   6.0941   6.7745   6.7927   7.1397
     8.4399   9.9010  10.5145  10.5395  10.6086  10.7019  11.3722  11.7631
    11.8078  12.4176  12.8708  12.9084  13.6414  13.7097  13.8720  14.4924
    14.5420  15.7739  15.9051  16.0537  16.3894  16.8283  16.8684  16.9811
    17.3537  17.7525  17.8282  18.0865  18.4326  18.7808

     occupation numbers 
     1.0000   1.0000   1.0000   1.0000   1.0000   1.0000   1.0000   1.0000
     1.0000   1.0000   1.0000   1.0000   1.0000   1.0000   1.0000   1.0000
     1.0000   1.0000   1.0000   1.0000   1.0000   1.0000   1.0000   1.0000
     1.0000   1.0000   1.0000   1.0000   1.0000   1.0000   1.0000   1.0000
     1.0000   1.0000   1.0000   1.0000   1.0000   1.0000   1.0000   1.0000
     0.0000   0.0000   0.0000   0.0000   0.0000   0.0000   0.0000   0.0000
     0.0000   0.0000   0.0000   0.0000   0.0000   0.0000   0.0000   0.0000
     0.0000   0.0000   0.0000   0.0000   0.0000   0.0000   0.0000   0.0000
     0.0000   0.0000   0.0000   0.0000   0.0000   0.0000

          k = 0.0833 0.0910 0.0986 (  4112 PWs)   bands (ev):

   -13.7560 -13.7491 -13.7437 -13.7415 -13.7407 -13.7392 -13.7348 -13.7336
   -13.7266 -13.7234 -13.7217 -13.7203 -13.7106 -13.7087 -13.6906 -13.6884
   -13.6840 -13.6828 -13.6735 -13.6693  -5.9355  -5.7151  -4.9642  -4.6687
     0.3656   1.0074   2.0340   2.2973   3.1401   4.1332   4.3692   4.6323
     4.9407   5.1157   5.4888   5.7815   6.0298   6.3630   6.8760   7.1318
     9.1300   9.9597  10.3949  10.5153  10.5934  10.7453  11.2771  11.6584
    12.0928  12.4739  12.6343  12.8007  13.4443  13.6586  13.8222  14.3882
    14.6267  15.5656  15.7080  16.1493  16.2886  16.7242  16.8236  17.2082
    17.5378  17.8702  18.2611  18.2869  18.4504  18.6377

     occupation numbers 
     1.0000   1.0000   1.0000   1.0000   1.0000   1.0000   1.0000   1.0000
     1.0000   1.0000   1.0000   1.0000   1.0000   1.0000   1.0000   1.0000
     1.0000   1.0000   1.0000   1.0000   1.0000   1.0000   1.0000   1.0000
     1.0000   1.0000   1.0000   1.0000   1.0000   1.0000   1.0000   1.0000
     1.0000   1.0000   1.0000   1.0000   1.0000   1.0000   1.0000   1.0000
     0.0000   0.0000   0.0000   0.0000   0.0000   0.0000   0.0000   0.0000
     0.0000   0.0000   0.0000   0.0000   0.0000   0.0000   0.0000   0.0000
     0.0000   0.0000   0.0000   0.0000   0.0000   0.0000   0.0000   0.0000
     0.0000   0.0000   0.0000   0.0000   0.0000   0.0000

          k = 0.0833 0.0910-0.1972 (  4104 PWs)   bands (ev):

   -13.7529 -13.7529 -13.7424 -13.7424 -13.7402 -13.7402 -13.7339 -13.7339
   -13.7251 -13.7251 -13.7207 -13.7207 -13.7098 -13.7098 -13.6893 -13.6893
   -13.6835 -13.6835 -13.6713 -13.6713  -5.8409  -5.8409  -4.8008  -4.8008
     0.6150   0.6150   2.2150   2.2150   3.6842   3.6842   4.4947   4.4947
     5.0792   5.0792   5.5502   5.5502   6.0487   6.0487   7.0450   7.0450
     9.9376   9.9376  10.3866  10.3866  10.6584  10.6584  11.3368  11.3368
    12.4064  12.4064  12.5159  12.5159  13.4212  13.4212  14.0721  14.0721
    15.0728  15.0728  15.8033  15.8033  16.4176  16.4176  17.1932  17.1932
    17.8297  17.8297  18.3518  18.3518  18.6324  18.6324

     occupation numbers 
     1.0000   1.0000   1.0000   1.0000   1.0000   1.0000   1.0000   1.0000
     1.0000   1.0000   1.0000   1.0000   1.0000   1.0000   1.0000   1.0000
     1.0000   1.0000   1.0000   1.0000   1.0000   1.0000   1.0000   1.0000
     1.0000   1.0000   1.0000   1.0000   1.0000   1.0000   1.0000   1.0000
     1.0000   1.0000   1.0000   1.0000   1.0000   1.0000   1.0000   1.0000
     0.0000   0.0000   0.0000   0.0000   0.0000   0.0000   0.0000   0.0000
     0.0000   0.0000   0.0000   0.0000   0.0000   0.0000   0.0000   0.0000
     0.0000   0.0000   0.0000   0.0000   0.0000   0.0000   0.0000   0.0000
     0.0000   0.0000   0.0000   0.0000   0.0000   0.0000

          k = 0.0833 0.1820 0.0000 (  4113 PWs)   bands (ev):

   -13.7534 -13.7461 -13.7431 -13.7410 -13.7392 -13.7388 -13.7378 -13.7352
   -13.7286 -13.7245 -13.7217 -13.7179 -13.7095 -13.7083 -13.6899 -13.6889
   -13.6851 -13.6828 -13.6742 -13.6693  -5.8623  -5.5537  -5.0012  -4.6159
     0.1942   1.1329   1.6639   1.9235   2.9927   4.0262   4.3120   4.8668
     4.9761   5.2297   5.4392   5.9196   6.1794   6.7962   7.0383   7.0567
     8.5867   9.2849  10.1044  10.2608  10.5338  10.8593  11.3817  11.5268
    11.8458  12.2129  12.4386  12.9466  13.2656  13.7831  14.2101  14.2197
    14.5327  15.7790  16.0179  16.0814  16.6211  16.9550  17.0454  17.2851
    17.8797  17.9918  18.3384  18.7028  19.0478  19.2471

     occupation numbers 
     1.0000   1.0000   1.0000   1.0000   1.0000   1.0000   1.0000   1.0000
     1.0000   1.0000   1.0000   1.0000   1.0000   1.0000   1.0000   1.0000
     1.0000   1.0000   1.0000   1.0000   1.0000   1.0000   1.0000   1.0000
     1.0000   1.0000   1.0000   1.0000   1.0000   1.0000   1.0000   1.0000
     1.0000   1.0000   1.0000   1.0000   1.0000   1.0000   1.0000   1.0000
     0.0000   0.0000   0.0000   0.0000   0.0000   0.0000   0.0000   0.0000
     0.0000   0.0000   0.0000   0.0000   0.0000   0.0000   0.0000   0.0000
     0.0000   0.0000   0.0000   0.0000   0.0000   0.0000   0.0000   0.0000
     0.0000   0.0000   0.0000   0.0000   0.0000   0.0000

          k = 0.0833 0.1820 0.0986 (  4109 PWs)   bands (ev):

   -13.7524 -13.7472 -13.7428 -13.7412 -13.7400 -13.7390 -13.7370 -13.7353
[...]
     1.0000   1.0000   1.0000   1.0000   1.0000   1.0000   1.0000   1.0000
     0.0000   0.0000   0.0000   0.0000   0.0000   0.0000   0.0000   0.0000
     0.0000   0.0000   0.0000   0.0000   0.0000   0.0000   0.0000   0.0000
     0.0000   0.0000   0.0000   0.0000   0.0000   0.0000   0.0000   0.0000
     0.0000   0.0000   0.0000   0.0000   0.0000   0.0000

          k =-0.5000 0.2730 0.0000 (  4094 PWs)   bands (ev):

   -13.7530 -13.7530 -13.7450 -13.7450 -13.7394 -13.7394 -13.7354 -13.7354
   -13.7269 -13.7269 -13.7126 -13.7126 -13.7061 -13.7061 -13.6893 -13.6893
   -13.6847 -13.6847 -13.6718 -13.6718  -5.1109  -5.1109  -4.8875  -4.8875
     0.0978   0.0978   1.2093   1.2093   3.5846   3.5846   3.8973   3.8973
     4.6156   4.6156   5.4029   5.4029   6.1733   6.1733   6.7766   6.7766
     9.0282   9.0282  10.6278  10.6278  11.4847  11.4847  11.8900  11.8900
    12.1709  12.1709  12.7706  12.7706  13.4322  13.4322  14.9570  14.9570
    17.1472  17.1472  17.2355  17.2355  17.4998  17.4998  18.7382  18.7382
    18.8807  18.8807  19.0662  19.0662  19.4371  19.4371

     occupation numbers 
     1.0000   1.0000   1.0000   1.0000   1.0000   1.0000   1.0000   1.0000
     1.0000   1.0000   1.0000   1.0000   1.0000   1.0000   1.0000   1.0000
     1.0000   1.0000   1.0000   1.0000   1.0000   1.0000   1.0000   1.0000
     1.0000   1.0000   1.0000   1.0000   1.0000   1.0000   1.0000   1.0000
     1.0000   1.0000   1.0000   1.0000   1.0000   1.0000   1.0000   1.0000
     0.0000   0.0000   0.0000   0.0000   0.0000   0.0000   0.0000   0.0000
     0.0000   0.0000   0.0000   0.0000   0.0000   0.0000   0.0000   0.0000
     0.0000   0.0000   0.0000   0.0000   0.0000   0.0000   0.0000   0.0000
     0.0000   0.0000   0.0000   0.0000   0.0000   0.0000

          k =-0.5000 0.2730 0.0986 (  4088 PWs)   bands (ev):

   -13.7527 -13.7527 -13.7461 -13.7461 -13.7388 -13.7388 -13.7351 -13.7351
   -13.7268 -13.7268 -13.7132 -13.7132 -13.7056 -13.7056 -13.6897 -13.6897
   -13.6845 -13.6845 -13.6716 -13.6716  -5.1100  -5.1100  -4.8887  -4.8887
     0.1202   0.1202   1.1608   1.1608   3.6195   3.6195   3.8739   3.8739
     4.7333   4.7333   5.4824   5.4824   5.9693   5.9693   6.6556   6.6556
     9.3919   9.3919  10.7075  10.7075  11.0583  11.0583  11.7166  11.7166
    12.2379  12.2379  12.7019  12.7019  13.8271  13.8271  15.1927  15.1927
    16.6476  16.6476  17.2589  17.2589  17.5616  17.5616  18.5357  18.5357
    18.6646  18.6646  19.0749  19.0749  19.7847  19.7847

     occupation numbers 
     1.0000   1.0000   1.0000   1.0000   1.0000   1.0000   1.0000   1.0000
     1.0000   1.0000   1.0000   1.0000   1.0000   1.0000   1.0000   1.0000
     1.0000   1.0000   1.0000   1.0000   1.0000   1.0000   1.0000   1.0000
     1.0000   1.0000   1.0000   1.0000   1.0000   1.0000   1.0000   1.0000
     1.0000   1.0000   1.0000   1.0000   1.0000   1.0000   1.0000   1.0000
     0.0000   0.0000   0.0000   0.0000   0.0000   0.0000   0.0000   0.0000
     0.0000   0.0000   0.0000   0.0000   0.0000   0.0000   0.0000   0.0000
     0.0000   0.0000   0.0000   0.0000   0.0000   0.0000   0.0000   0.0000
     0.0000   0.0000   0.0000   0.0000   0.0000   0.0000

          k =-0.5000 0.2730-0.1972 (  4088 PWs)   bands (ev):

   -13.7522 -13.7522 -13.7471 -13.7471 -13.7383 -13.7383 -13.7348 -13.7348
   -13.7267 -13.7267 -13.7138 -13.7138 -13.7052 -13.7052 -13.6901 -13.6901
   -13.6844 -13.6844 -13.6715 -13.6715  -5.1090  -5.1090  -4.8900  -4.8900
     0.1444   0.1444   1.1116   1.1116   3.6997   3.6997   3.7842   3.7842
     5.0941   5.0941   5.2173   5.2173   5.9452   5.9452   6.4957   6.4957
     9.9161   9.9161  10.5863  10.5863  10.9043  10.9043  11.2689  11.2689
    12.3309  12.3309  12.6657  12.6657  14.7366  14.7366  14.7633  14.7633
    16.3186  16.3186  17.3243  17.3243  17.6813  17.6813  18.4173  18.4173
    18.4858  18.4858  18.9552  18.9552  19.9960  19.9960

     occupation numbers 
     1.0000   1.0000   1.0000   1.0000   1.0000   1.0000   1.0000   1.0000
     1.0000   1.0000   1.0000   1.0000   1.0000   1.0000   1.0000   1.0000
     1.0000   1.0000   1.0000   1.0000   1.0000   1.0000   1.0000   1.0000
     1.0000   1.0000   1.0000   1.0000   1.0000   1.0000   1.0000   1.0000
     1.0000   1.0000   1.0000   1.0000   1.0000   1.0000   1.0000   1.0000
     0.0000   0.0000   0.0000   0.0000   0.0000   0.0000   0.0000   0.0000
     0.0000   0.0000   0.0000   0.0000   0.0000   0.0000   0.0000   0.0000
     0.0000   0.0000   0.0000   0.0000   0.0000   0.0000   0.0000   0.0000
     0.0000   0.0000   0.0000   0.0000   0.0000   0.0000

          k =-0.5000 0.3640 0.0000 (  4102 PWs)   bands (ev):

   -13.7563 -13.7563 -13.7495 -13.7495 -13.7364 -13.7364 -13.7317 -13.7317
   -13.7262 -13.7262 -13.7142 -13.7142 -13.7042 -13.7042 -13.6916 -13.6916
   -13.6819 -13.6819 -13.6720 -13.6720  -4.9861  -4.9861  -4.8210  -4.8210
     0.3520   0.3520   1.2058   1.2058   3.1221   3.1221   3.6185   3.6185
     4.3568   4.3568   5.0626   5.0626   5.6239   5.6239   6.5250   6.5250
     9.4050   9.4050  11.0860  11.0860  12.0751  12.0751  12.2168  12.2168
    12.3371  12.3371  13.2197  13.2197  13.4834  13.4834  14.6825  14.6825
    17.2926  17.2926  17.8353  17.8353  18.0820  18.0820  18.3430  18.3430
    18.8160  18.8160  19.4156  19.4156  19.9337  19.9337

     occupation numbers 
     1.0000   1.0000   1.0000   1.0000   1.0000   1.0000   1.0000   1.0000
     1.0000   1.0000   1.0000   1.0000   1.0000   1.0000   1.0000   1.0000
     1.0000   1.0000   1.0000   1.0000   1.0000   1.0000   1.0000   1.0000
     1.0000   1.0000   1.0000   1.0000   1.0000   1.0000   1.0000   1.0000
     1.0000   1.0000   1.0000   1.0000   1.0000   1.0000   1.0000   1.0000
     0.0000   0.0000   0.0000   0.0000   0.0000   0.0000   0.0000   0.0000
     0.0000   0.0000   0.0000   0.0000   0.0000   0.0000   0.0000   0.0000
     0.0000   0.0000   0.0000   0.0000   0.0000   0.0000   0.0000   0.0000
     0.0000   0.0000   0.0000   0.0000   0.0000   0.0000

          k =-0.5000 0.3640 0.0986 (  4106 PWs)   bands (ev):

   -13.7559 -13.7559 -13.7502 -13.7502 -13.7361 -13.7361 -13.7320 -13.7320
   -13.7257 -13.7257 -13.7149 -13.7149 -13.7034 -13.7034 -13.6922 -13.6922
   -13.6816 -13.6816 -13.6720 -13.6720  -4.9854  -4.9854  -4.8218  -4.8218
     0.3668   0.3668   1.1776   1.1776   3.1789   3.1789   3.5565   3.5565
     4.3766   4.3766   5.0698   5.0698   5.6487   5.6487   6.4713   6.4713
     9.5743   9.5743  10.9551  10.9551  11.6875  11.6875  11.9040  11.9040
    12.8118  12.8118  13.2605  13.2605  13.7610  13.7610  14.9489  14.9489
    16.8539  16.8539  17.7648  17.7648  17.9606  17.9606  18.4910  18.4910
    18.8103  18.8103  19.2051  19.2051  19.9565  19.9565

     occupation numbers 
     1.0000   1.0000   1.0000   1.0000   1.0000   1.0000   1.0000   1.0000
     1.0000   1.0000   1.0000   1.0000   1.0000   1.0000   1.0000   1.0000
     1.0000   1.0000   1.0000   1.0000   1.0000   1.0000   1.0000   1.0000
     1.0000   1.0000   1.0000   1.0000   1.0000   1.0000   1.0000   1.0000
     1.0000   1.0000   1.0000   1.0000   1.0000   1.0000   1.0000   1.0000
     0.0000   0.0000   0.0000   0.0000   0.0000   0.0000   0.0000   0.0000
     0.0000   0.0000   0.0000   0.0000   0.0000   0.0000   0.0000   0.0000
     0.0000   0.0000   0.0000   0.0000   0.0000   0.0000   0.0000   0.0000
     0.0000   0.0000   0.0000   0.0000   0.0000   0.0000

          k =-0.5000 0.3640-0.1972 (  4088 PWs)   bands (ev):

   -13.7552 -13.7552 -13.7509 -13.7509 -13.7357 -13.7357 -13.7323 -13.7323
   -13.7252 -13.7252 -13.7156 -13.7156 -13.7027 -13.7027 -13.6928 -13.6928
   -13.6813 -13.6813 -13.6720 -13.6720  -4.9847  -4.9847  -4.8227  -4.8227
     0.3824   0.3824   1.1488   1.1488   3.3491   3.3491   3.3531   3.3531
     4.6088   4.6088   4.7686   4.7686   5.9281   5.9281   6.2789   6.2789
     9.8661   9.8661  10.6401  10.6401  11.6014  11.6014  11.6601  11.6601
    12.9543  12.9543  13.2840  13.2840  14.5692  14.5692  14.6484  14.6484
    16.6640  16.6640  17.7036  17.7036  17.7418  17.7418  18.6306  18.6306
    18.8885  18.8885  18.9668  18.9668  19.7800  19.7800

     occupation numbers 
     1.0000   1.0000   1.0000   1.0000   1.0000   1.0000   1.0000   1.0000
     1.0000   1.0000   1.0000   1.0000   1.0000   1.0000   1.0000   1.0000
     1.0000   1.0000   1.0000   1.0000   1.0000   1.0000   1.0000   1.0000
     1.0000   1.0000   1.0000   1.0000   1.0000   1.0000   1.0000   1.0000
     1.0000   1.0000   1.0000   1.0000   1.0000   1.0000   1.0000   1.0000
     0.0000   0.0000   0.0000   0.0000   0.0000   0.0000   0.0000   0.0000
     0.0000   0.0000   0.0000   0.0000   0.0000   0.0000   0.0000   0.0000
     0.0000   0.0000   0.0000   0.0000   0.0000   0.0000   0.0000   0.0000
     0.0000   0.0000   0.0000   0.0000   0.0000   0.0000

          k =-0.5000 0.4550 0.0000 (  4094 PWs)   bands (ev):

   -13.7588 -13.7588 -13.7528 -13.7528 -13.7350 -13.7350 -13.7283 -13.7283
   -13.7248 -13.7248 -13.7162 -13.7162 -13.7026 -13.7026 -13.6935 -13.6935
   -13.6791 -13.6791 -13.6726 -13.6726  -4.8744  -4.8744  -4.7855  -4.7855
     0.6190   0.6190   1.0959   1.0959   2.8654   2.8654   3.4705   3.4705
     4.0689   4.0689   4.8301   4.8301   5.3640   5.3640   6.3316   6.3316
     9.8342   9.8342  10.8524  10.8524  12.1047  12.1047  12.3143  12.3143
    12.8766  12.8766  13.7111  13.7111  13.8797  13.8797  14.6237  14.6237
    17.2362  17.2362  17.8155  17.8155  18.0319  18.0319  18.9940  18.9940
    19.0566  19.0566  19.6544  19.6544  20.2021  20.2021

     occupation numbers 
     1.0000   1.0000   1.0000   1.0000   1.0000   1.0000   1.0000   1.0000
     1.0000   1.0000   1.0000   1.0000   1.0000   1.0000   1.0000   1.0000
     1.0000   1.0000   1.0000   1.0000   1.0000   1.0000   1.0000   1.0000
     1.0000   1.0000   1.0000   1.0000   1.0000   1.0000   1.0000   1.0000
     1.0000   1.0000   1.0000   1.0000   1.0000   1.0000   1.0000   1.0000
     0.0000   0.0000   0.0000   0.0000   0.0000   0.0000   0.0000   0.0000
     0.0000   0.0000   0.0000   0.0000   0.0000   0.0000   0.0000   0.0000
     0.0000   0.0000   0.0000   0.0000   0.0000   0.0000   0.0000   0.0000
     0.0000   0.0000   0.0000   0.0000   0.0000   0.0000

          k =-0.5000 0.4550 0.0986 (  4090 PWs)   bands (ev):

   -13.7581 -13.7581 -13.7535 -13.7535 -13.7345 -13.7345 -13.7298 -13.7298
   -13.7235 -13.7235 -13.7169 -13.7169 -13.7016 -13.7016 -13.6943 -13.6943
   -13.6787 -13.6787 -13.6729 -13.6729  -4.8739  -4.8739  -4.7860  -4.7860
     0.6263   0.6263   1.0784   1.0784   2.9555   2.9555   3.4624   3.4624
     3.9669   3.9669   4.6344   4.6344   5.6407   5.6407   6.3515   6.3515
     9.8070   9.8070  10.6091  10.6091  12.0327  12.0327  12.1593  12.1593
    13.3470  13.3470  13.8060  13.8060  13.8990  13.8990  14.8646  14.8646
    16.8908  16.8908  17.7124  17.7124  18.1166  18.1166  18.7173  18.7173
    19.0624  19.0624  19.3393  19.3393  20.0420  20.0420

     occupation numbers 
     1.0000   1.0000   1.0000   1.0000   1.0000   1.0000   1.0000   1.0000
     1.0000   1.0000   1.0000   1.0000   1.0000   1.0000   1.0000   1.0000
     1.0000   1.0000   1.0000   1.0000   1.0000   1.0000   1.0000   1.0000
     1.0000   1.0000   1.0000   1.0000   1.0000   1.0000   1.0000   1.0000
     1.0000   1.0000   1.0000   1.0000   1.0000   1.0000   1.0000   1.0000
     0.0000   0.0000   0.0000   0.0000   0.0000   0.0000   0.0000   0.0000
     0.0000   0.0000   0.0000   0.0000   0.0000   0.0000   0.0000   0.0000
     0.0000   0.0000   0.0000   0.0000   0.0000   0.0000   0.0000   0.0000
     0.0000   0.0000   0.0000   0.0000   0.0000   0.0000

          k =-0.5000 0.4550-0.1972 (  4100 PWs)   bands (ev):

   -13.7570 -13.7570 -13.7546 -13.7546 -13.7337 -13.7337 -13.7314 -13.7314
   -13.7225 -13.7225 -13.7177 -13.7177 -13.7002 -13.7002 -13.6954 -13.6954
   -13.6781 -13.6781 -13.6733 -13.6733  -4.8734  -4.8734  -4.7866  -4.7866
     0.6341   0.6341   1.0605   1.0605   3.1706   3.1706   3.2482   3.2482
     4.0948   4.0948   4.3248   4.3248   6.0408   6.0408   6.2065   6.2065
     9.8738   9.8738  10.2926  10.2926  11.9843  11.9843  12.0770  12.0770
    13.6369  13.6369  13.8052  13.8052  14.4964  14.4964  14.6302  14.6302
    16.8967  16.8967  17.3505  17.3505  18.2006  18.2006  18.3466  18.3466
    18.9379  18.9379  19.2951  19.2951  20.1413  20.1413

     occupation numbers 
     1.0000   1.0000   1.0000   1.0000   1.0000   1.0000   1.0000   1.0000
     1.0000   1.0000   1.0000   1.0000   1.0000   1.0000   1.0000   1.0000
     1.0000   1.0000   1.0000   1.0000   1.0000   1.0000   1.0000   1.0000
     1.0000   1.0000   1.0000   1.0000   1.0000   1.0000   1.0000   1.0000
     1.0000   1.0000   1.0000   1.0000   1.0000   1.0000   1.0000   1.0000
     0.0000   0.0000   0.0000   0.0000   0.0000   0.0000   0.0000   0.0000
     0.0000   0.0000   0.0000   0.0000   0.0000   0.0000   0.0000   0.0000
     0.0000   0.0000   0.0000   0.0000   0.0000   0.0000   0.0000   0.0000
     0.0000   0.0000   0.0000   0.0000   0.0000   0.0000

          k =-0.5000-0.5460 0.0000 (  4060 PWs)   bands (ev):

   -13.7596 -13.7596 -13.7539 -13.7539 -13.7345 -13.7345 -13.7273 -13.7273
   -13.7237 -13.7237 -13.7174 -13.7174 -13.7020 -13.7020 -13.6942 -13.6942
   -13.6778 -13.6778 -13.6731 -13.6731  -4.8069  -4.8069  -4.7974  -4.7974
     0.8097   0.8097   0.9542   0.9542   2.8054   2.8054   3.3737   3.3737
     4.0581   4.0581   4.5956   4.5956   5.3847   5.3847   6.2430   6.2430
    10.1764  10.1764  10.5216  10.5216  12.1542  12.1542  12.2796  12.2796
    13.0684  13.0684  13.9098  13.9098  14.0945  14.0945  14.6685  14.6685
    17.2216  17.2216  17.5975  17.5975  17.8927  17.8927  19.6053  19.6053
    19.6880  19.6880  20.0011  20.0011  20.1325  20.1325

     occupation numbers 
     1.0000   1.0000   1.0000   1.0000   1.0000   1.0000   1.0000   1.0000
     1.0000   1.0000   1.0000   1.0000   1.0000   1.0000   1.0000   1.0000
     1.0000   1.0000   1.0000   1.0000   1.0000   1.0000   1.0000   1.0000
     1.0000   1.0000   1.0000   1.0000   1.0000   1.0000   1.0000   1.0000
     1.0000   1.0000   1.0000   1.0000   1.0000   1.0000   1.0000   1.0000
     0.0000   0.0000   0.0000   0.0000   0.0000   0.0000   0.0000   0.0000
     0.0000   0.0000   0.0000   0.0000   0.0000   0.0000   0.0000   0.0000
     0.0000   0.0000   0.0000   0.0000   0.0000   0.0000   0.0000   0.0000
     0.0000   0.0000   0.0000   0.0000   0.0000   0.0000

          k =-0.5000-0.5460 0.0986 (  4088 PWs)   bands (ev):

   -13.7588 -13.7588 -13.7548 -13.7548 -13.7340 -13.7340 -13.7293 -13.7293
   -13.7220 -13.7220 -13.7181 -13.7181 -13.7007 -13.7007 -13.6952 -13.6952
   -13.6770 -13.6770 -13.6738 -13.6738  -4.8055  -4.8055  -4.7988  -4.7988
     0.8252   0.8252   0.9267   0.9267   2.9151   2.9151   3.4231   3.4231
     3.8698   3.8698   4.3842   4.3842   5.6915   5.6915   6.2926   6.2926
    10.0197  10.0197  10.3246  10.3246  12.1600  12.1600  12.2106  12.2106
    13.5093  13.5093  13.9896  13.9896  14.0843  14.0843  14.8727  14.8727
    16.8987  16.8987  17.5508  17.5508  17.9810  17.9810  18.8654  18.8654
    19.5537  19.5537  19.7917  19.7917  20.1039  20.1039

     occupation numbers 
     1.0000   1.0000   1.0000   1.0000   1.0000   1.0000   1.0000   1.0000
     1.0000   1.0000   1.0000   1.0000   1.0000   1.0000   1.0000   1.0000
     1.0000   1.0000   1.0000   1.0000   1.0000   1.0000   1.0000   1.0000
     1.0000   1.0000   1.0000   1.0000   1.0000   1.0000   1.0000   1.0000
     1.0000   1.0000   1.0000   1.0000   1.0000   1.0000   1.0000   1.0000
     0.0000   0.0000   0.0000   0.0000   0.0000   0.0000   0.0000   0.0000
     0.0000   0.0000   0.0000   0.0000   0.0000   0.0000   0.0000   0.0000
     0.0000   0.0000   0.0000   0.0000   0.0000   0.0000   0.0000   0.0000
     0.0000   0.0000   0.0000   0.0000   0.0000   0.0000

          k =-0.5000-0.5460-0.1972 (  4088 PWs)   bands (ev):

   -13.7568 -13.7568 -13.7568 -13.7568 -13.7321 -13.7321 -13.7321 -13.7321
   -13.7198 -13.7198 -13.7198 -13.7198 -13.6978 -13.6978 -13.6978 -13.6978
   -13.6753 -13.6753 -13.6753 -13.6753  -4.8022  -4.8022  -4.8022  -4.8022
     0.8701   0.8701   0.8701   0.8701   3.2055   3.2055   3.2055   3.2055
     3.9965   3.9965   3.9965   3.9965   6.1441   6.1441   6.1441   6.1441
    10.0100  10.0100  10.0100  10.0100  12.1594  12.1594  12.1594  12.1594
    13.9720  13.9720  13.9720  13.9720  14.5629  14.5629  14.5629  14.5629
    17.1127  17.1127  17.1127  17.1127  18.1042  18.1042  18.1042  18.1042
    19.6051  19.6051  19.6051  19.6051  20.1315  20.1315

     occupation numbers 
     1.0000   1.0000   1.0000   1.0000   1.0000   1.0000   1.0000   1.0000
     1.0000   1.0000   1.0000   1.0000   1.0000   1.0000   1.0000   1.0000
     1.0000   1.0000   1.0000   1.0000   1.0000   1.0000   1.0000   1.0000
     1.0000   1.0000   1.0000   1.0000   1.0000   1.0000   1.0000   1.0000
     1.0000   1.0000   1.0000   1.0000   1.0000   1.0000   1.0000   1.0000
     0.0000   0.0000   0.0000   0.0000   0.0000   0.0000   0.0000   0.0000
     0.0000   0.0000   0.0000   0.0000   0.0000   0.0000   0.0000   0.0000
     0.0000   0.0000   0.0000   0.0000   0.0000   0.0000   0.0000   0.0000
     0.0000   0.0000   0.0000   0.0000   0.0000   0.0000

     the Fermi energy is     7.6143 ev
     (compare with:     8.1450 eV, computed in scf)

     Writing all to output data dir ./tmp/SnSe_pnma.save/ :
     XML data file, pseudopotentials, collected wavefunctions
 
     init_run     :      0.43s CPU      0.50s WALL (       1 calls)
     electrons    :    111.30s CPU    113.01s WALL (       1 calls)

     Called by init_run:
     wfcinit      :      0.00s CPU      0.00s WALL (       1 calls)
     wfcinit:atom :      0.02s CPU      0.02s WALL (      37 calls)
     wfcinit:wfcr :      1.55s CPU      1.61s WALL (      37 calls)
     potinit      :      0.06s CPU      0.07s WALL (       1 calls)
     hinit0       :      0.23s CPU      0.24s WALL (       1 calls)

     Called by electrons:
     c_bands      :    111.26s CPU    112.93s WALL (       1 calls)
     v_of_rho     :      0.06s CPU      0.06s WALL (       1 calls)
     v_h          :      0.00s CPU      0.00s WALL (       1 calls)
     v_xc         :      0.05s CPU      0.05s WALL (       1 calls)
     newd         :      0.08s CPU      0.12s WALL (       1 calls)

     Called by c_bands:
     init_us_2    :      0.06s CPU      0.07s WALL (      37 calls)
     cegterg      :    100.16s CPU    101.12s WALL (     148 calls)

     Called by sum_band:

     Called by *egterg:
     cdiaghg      :     14.42s CPU     14.45s WALL (    2627 calls)
     cegterg:over :      9.61s CPU      9.70s WALL (    2590 calls)
     cegterg:upda :      5.19s CPU      5.20s WALL (    2590 calls)
     cegterg:last :     14.95s CPU     14.97s WALL (    1668 calls)
     h_psi        :     49.38s CPU     50.21s WALL (    2775 calls)
     s_psi        :      5.39s CPU      5.40s WALL (    2775 calls)
     g_psi        :      0.31s CPU      0.31s WALL (    2590 calls)

     Called by h_psi:
     h_psi:calbec :      5.57s CPU      5.65s WALL (    2775 calls)
     vloc_psi     :     37.82s CPU     38.54s WALL (    2775 calls)
     add_vuspsi   :      5.50s CPU      5.52s WALL (    2775 calls)

     General routines
     calbec       :      5.56s CPU      5.64s WALL (    2775 calls)
     fft          :      0.02s CPU      0.02s WALL (      13 calls)
     ffts         :      0.00s CPU      0.00s WALL (       1 calls)
     fftw         :     25.97s CPU     26.47s WALL (  219018 calls)
     interpolate  :      0.00s CPU      0.00s WALL (       1 calls)
     davcio       :      0.04s CPU      0.06s WALL (      74 calls)
 
     Parallel routines
 
     PWSCF        :   1m52.28s CPU   1m56.25s WALL

 
   This run was terminated on:  17:51:15  24May2026            

=------------------------------------------------------------------------------=
   JOB DONE.
=------------------------------------------------------------------------------=
