
     Program PWSCF v.7.3.1 starts on 24May2026 at 18:44:10 

     This program is part of the open-source Quantum ESPRESSO suite
     for quantum simulation of materials; please cite
         "P. Giannozzi et al., J. Phys.:Condens. Matter 21 395502 (2009);
         "P. Giannozzi et al., J. Phys.:Condens. Matter 29 465901 (2017);
         "P. Giannozzi et al., J. Chem. Phys. 152 154105 (2020);
          URL http://www.quantum-espresso.org", 
     in publications or presentations arising from this work. More details at
     http://www.quantum-espresso.org/quote

     Parallel version (MPI & OpenMP), running on      12 processor cores
     Number of MPI processes:                12
     Threads/MPI process:                     1

     MPI processes distributed on     1 nodes
     1879 MiB available memory on the printing compute node when the environment starts
 
     Waiting for input...
     Reading input from standard input

     Current dimensions of program PWSCF are:
     Max number of different atomic species (ntypx) = 10
     Max number of k-points (npk) =  40000
     Max angular momentum in pseudopotentials (lmaxx) =  4

     Atomic positions and unit cell read from directory:
     ./tmp/SnSe_pnma.save/
 
 
     K-points division:     npool     =       4
     R & G space division:  proc/nbgrp/npool/nimage =       3
     Subspace diagonalization in iterative solution of the eigenvalue problem:
     a serial algorithm will be used

 
     Parallelization info
     --------------------
     sticks:   dense  smooth     PW     G-vecs:    dense   smooth      PW
     Min         543     213     67                43337    10943    1840
     Max         543     214     68                43339    10946    1842
     Sum        1629     641    203               130013    32833    5523
 
     Using Slab Decomposition
 


     bravais-lattice index     =            8
     lattice parameter (alat)  =       8.6086  a.u.
     unit-cell volume          =    1481.0643 (a.u.)^3
     number of atoms/cell      =            8
     number of atomic types    =            2
     number of electrons       =        80.00
     number of Kohn-Sham states=           70
     kinetic-energy cutoff     =      30.0000  Ry
     charge density cutoff     =     300.0000  Ry
     Exchange-correlation= SLA  PW   PBE  PBE
                           (   1   4   3   4   0   0   0)

     celldm(1)=   8.608647  celldm(2)=   0.915684  celldm(3)=   2.535265
     celldm(4)=   0.000000  celldm(5)=   0.000000  celldm(6)=   0.000000

     crystal axes: (cart. coord. in units of alat)
               a(1) = (   1.000000   0.000000   0.000000 )  
               a(2) = (   0.000000   0.915684   0.000000 )  
               a(3) = (   0.000000   0.000000   2.535265 )  

     reciprocal axes: (cart. coord. in units 2 pi/alat)
               b(1) = (  1.000000  0.000000  0.000000 )  
               b(2) = (  0.000000  1.092079  0.000000 )  
               b(3) = (  0.000000  0.000000  0.394436 )  


     PseudoPot. # 1 for Sn read from file:
     ../pseudo/Sn_pbe_v1.uspp.F.UPF
     MD5 check sum: 4cf58ce39ec5d5d420df3dd08604eb00
     Pseudo is Ultrasoft + core correction, Zval = 14.0
     Generated by new atomic code, or converted to UPF format
     Using radial grid of  891 points,  6 beta functions with: 
                l(1) =   0
                l(2) =   0
                l(3) =   1
                l(4) =   1
                l(5) =   2
                l(6) =   2
     Q(r) pseudized with  6 coefficients,  rinner =    1.200   1.200   1.200
                                                       1.200   1.200

     PseudoPot. # 2 for Se read from file:
     ../pseudo/Se_pbe_v1.uspp.F.UPF
     MD5 check sum: 1b3568f3a8ae88f9a2a0ad0698632c85
     Pseudo is Ultrasoft + core correction, Zval =  6.0
     Generated by new atomic code, or converted to UPF format
     Using radial grid of  877 points,  6 beta functions with: 
                l(1) =   0
                l(2) =   0
                l(3) =   1
                l(4) =   1
                l(5) =   2
                l(6) =   2
     Q(r) pseudized with  8 coefficients,  rinner =    1.300   1.300   1.300
                                                       1.300   1.300

     atomic species   valence    mass     pseudopotential
     Sn               14.00   118.71000     Sn( 1.00)
     Se                6.00    78.97100     Se( 1.00)

      8 Sym. Ops., with inversion, found ( 6 have fractional translation)


                                    s                        frac. trans.

      isym =  1     identity                                     

 cryst.   s( 1) = (     1          0          0      )
                  (     0          1          0      )
                  (     0          0          1      )

 cart.    s( 1) = (  1.0000000  0.0000000  0.0000000 )
                  (  0.0000000  1.0000000  0.0000000 )
                  (  0.0000000  0.0000000  1.0000000 )


      isym =  2     180 deg rotation - cart. axis [0,0,1]        

 cryst.   s( 2) = (    -1          0          0      )    f =(  0.5000000 )
                  (     0         -1          0      )       (  0.5000000 )
                  (     0          0          1      )       (  0.5000000 )

 cart.    s( 2) = ( -1.0000000  0.0000000  0.0000000 )    f =(  0.5000000 )
                  (  0.0000000 -1.0000000  0.0000000 )       (  0.4578422 )
                  (  0.0000000  0.0000000  1.0000000 )       (  1.2676325 )


      isym =  3     180 deg rotation - cart. axis [0,1,0]        

 cryst.   s( 3) = (    -1          0          0      )    f =( -0.0000000 )
                  (     0          1          0      )       (  0.5000000 )
                  (     0          0         -1      )       ( -0.0000000 )

 cart.    s( 3) = ( -1.0000000  0.0000000  0.0000000 )    f =( -0.0000000 )
                  (  0.0000000  1.0000000  0.0000000 )       (  0.4578422 )
                  (  0.0000000  0.0000000 -1.0000000 )       ( -0.0000000 )


      isym =  4     180 deg rotation - cart. axis [1,0,0]        

 cryst.   s( 4) = (     1          0          0      )    f =( -0.5000000 )
                  (     0         -1          0      )       ( -0.0000000 )
                  (     0          0         -1      )       (  0.5000000 )

 cart.    s( 4) = (  1.0000000  0.0000000  0.0000000 )    f =( -0.5000000 )
                  (  0.0000000 -1.0000000  0.0000000 )       ( -0.0000000 )
                  (  0.0000000  0.0000000 -1.0000000 )       (  1.2676325 )


      isym =  5     inversion                                    

 cryst.   s( 5) = (    -1          0          0      )
                  (     0         -1          0      )
                  (     0          0         -1      )

 cart.    s( 5) = ( -1.0000000  0.0000000  0.0000000 )
                  (  0.0000000 -1.0000000  0.0000000 )
                  (  0.0000000  0.0000000 -1.0000000 )


      isym =  6     inv. 180 deg rotation - cart. axis [0,0,1]   

 cryst.   s( 6) = (     1          0          0      )    f =( -0.5000000 )
                  (     0          1          0      )       (  0.5000000 )
                  (     0          0         -1      )       (  0.5000000 )

 cart.    s( 6) = (  1.0000000  0.0000000  0.0000000 )    f =( -0.5000000 )
                  (  0.0000000  1.0000000  0.0000000 )       (  0.4578422 )
                  (  0.0000000  0.0000000 -1.0000000 )       (  1.2676325 )


      isym =  7     inv. 180 deg rotation - cart. axis [0,1,0]   

 cryst.   s( 7) = (     1          0          0      )    f =(  0.0000000 )
                  (     0         -1          0      )       (  0.5000000 )
                  (     0          0          1      )       (  0.0000000 )

 cart.    s( 7) = (  1.0000000  0.0000000  0.0000000 )    f =(  0.0000000 )
                  (  0.0000000 -1.0000000  0.0000000 )       (  0.4578422 )
                  (  0.0000000  0.0000000  1.0000000 )       (  0.0000000 )


      isym =  8     inv. 180 deg rotation - cart. axis [1,0,0]   

 cryst.   s( 8) = (    -1          0          0      )    f =(  0.5000000 )
                  (     0          1          0      )       (  0.0000000 )
                  (     0          0          1      )       (  0.5000000 )

 cart.    s( 8) = ( -1.0000000  0.0000000  0.0000000 )    f =(  0.5000000 )
                  (  0.0000000  1.0000000  0.0000000 )       (  0.0000000 )
                  (  0.0000000  0.0000000  1.0000000 )       (  1.2676325 )


     point group D_2h (mmm) 
     there are  8 classes
     the character table:

       E     C2    C2'   C2''  i     s_v   s_v'  s_v''
A_g    1.00  1.00  1.00  1.00  1.00  1.00  1.00  1.00
B_1g   1.00  1.00 -1.00 -1.00  1.00  1.00 -1.00 -1.00
B_2g   1.00 -1.00  1.00 -1.00  1.00 -1.00  1.00 -1.00
B_3g   1.00 -1.00 -1.00  1.00  1.00 -1.00 -1.00  1.00
A_u    1.00  1.00  1.00  1.00 -1.00 -1.00 -1.00 -1.00
B_1u   1.00  1.00 -1.00 -1.00 -1.00 -1.00  1.00  1.00
B_2u   1.00 -1.00  1.00 -1.00 -1.00  1.00 -1.00  1.00
B_3u   1.00 -1.00 -1.00  1.00 -1.00  1.00  1.00 -1.00

     the symmetry operations in each class and the name of the first element:

     E        1
          identity                                               
     C2       2
          180 deg rotation - cart. axis [0,0,1]                  
     C2'      4
          180 deg rotation - cart. axis [1,0,0]                  
     C2''     3
          180 deg rotation - cart. axis [0,1,0]                  
     i        5
          inversion                                              
     s_v      6
          inv. 180 deg rotation - cart. axis [0,0,1]             
     s_v'     8
          inv. 180 deg rotation - cart. axis [1,0,0]             
     s_v''    7
          inv. 180 deg rotation - cart. axis [0,1,0]             

   Cartesian axes

     site n.     atom                  positions (alat units)
         1        Se     tau(   1) = (   0.4832481   0.6867633   2.1675410  )
         2        Sn     tau(   2) = (   0.1122870   0.6867633   0.2954585  )
         3        Se     tau(   3) = (   0.9832481   0.2289211   1.6353566  )
         4        Sn     tau(   4) = (   0.6122870   0.2289211   0.9721740  )
         5        Se     tau(   5) = (   0.0167519   0.6867633   0.8999084  )
         6        Sn     tau(   6) = (   0.3877130   0.6867633   1.5630911  )
         7        Se     tau(   7) = (   0.5167519   0.2289211   0.3677241  )
         8        Sn     tau(   8) = (   0.8877130   0.2289211   2.2398065  )

     --------------------------------------------
     DFT-D3 Dispersion Correction (3-body terms):
     --------------------------------------------
       Reference C6 values for interpolation: 

         atom   Coordination number   C6
         Se         0.000           427.35
         Se         0.990           427.57
         Se         1.981           421.05
         Sn         0.000          1255.14
         Sn         0.951          1084.09
         Sn         1.950          1010.83
         Sn         2.926           818.29
         Sn         3.912           672.20

       Values used:

         atom   Coordination number  R0_AB[au]  C6      C8
         Se         3.412            3.332    421.05  29958.36
         Sn         4.106            3.957    672.80  84444.47
         Se         3.412            3.332    421.05  29958.36
         Sn         4.106            3.957    672.80  84444.47
         Se         3.412            3.332    421.05  29958.36
         Sn         4.106            3.957    672.80  84444.47
         Se         3.412            3.332    421.05  29958.36
         Sn         4.106            3.957    672.80  84444.47

         Molecular C6 ( Ry / a.u.^6 ) =     34513.28


   Crystallographic axes

     site n.     atom                  positions (cryst. coord.)
         1        Se     tau(   1) = (  0.4832481  0.7500000  0.8549563  )
         2        Sn     tau(   2) = (  0.1122870  0.7500000  0.1165395  )
         3        Se     tau(   3) = (  0.9832481  0.2500000  0.6450437  )
         4        Sn     tau(   4) = (  0.6122870  0.2500000  0.3834605  )
         5        Se     tau(   5) = (  0.0167519  0.7500000  0.3549563  )
         6        Sn     tau(   6) = (  0.3877130  0.7500000  0.6165395  )
         7        Se     tau(   7) = (  0.5167519  0.2500000  0.1450437  )
         8        Sn     tau(   8) = (  0.8877130  0.2500000  0.8834605  )

     number of k points=   845 (tetrahedron method)
                       cart. coord. in units 2pi/alat
        k(    1) = (   0.0000000   0.0000000   0.0000000), wk =   0.0004340
        k(    2) = (   0.0000000   0.0000000   0.0493045), wk =   0.0008681
        k(    3) = (   0.0000000   0.0000000   0.0986090), wk =   0.0008681
        k(    4) = (   0.0000000   0.0000000   0.1479135), wk =   0.0008681
        k(    5) = (   0.0000000   0.0000000  -0.1972180), wk =   0.0004340
        k(    6) = (   0.0000000   0.0455033   0.0000000), wk =   0.0008681
        k(    7) = (   0.0000000   0.0455033   0.0493045), wk =   0.0017361
        k(    8) = (   0.0000000   0.0455033   0.0986090), wk =   0.0017361
        k(    9) = (   0.0000000   0.0455033   0.1479135), wk =   0.0017361
        k(   10) = (   0.0000000   0.0455033  -0.1972180), wk =   0.0008681
        k(   11) = (   0.0000000   0.0910066   0.0000000), wk =   0.0008681
        k(   12) = (   0.0000000   0.0910066   0.0493045), wk =   0.0017361
        k(   13) = (   0.0000000   0.0910066   0.0986090), wk =   0.0017361
        k(   14) = (   0.0000000   0.0910066   0.1479135), wk =   0.0017361
        k(   15) = (   0.0000000   0.0910066  -0.1972180), wk =   0.0008681
        k(   16) = (   0.0000000   0.1365099   0.0000000), wk =   0.0008681
        k(   17) = (   0.0000000   0.1365099   0.0493045), wk =   0.0017361
        k(   18) = (   0.0000000   0.1365099   0.0986090), wk =   0.0017361
        k(   19) = (   0.0000000   0.1365099   0.1479135), wk =   0.0017361
        k(   20) = (   0.0000000   0.1365099  -0.1972180), wk =   0.0008681
        k(   21) = (   0.0000000   0.1820132   0.0000000), wk =   0.0008681
        k(   22) = (   0.0000000   0.1820132   0.0493045), wk =   0.0017361
        k(   23) = (   0.0000000   0.1820132   0.0986090), wk =   0.0017361
        k(   24) = (   0.0000000   0.1820132   0.1479135), wk =   0.0017361
        k(   25) = (   0.0000000   0.1820132  -0.1972180), wk =   0.0008681
        k(   26) = (   0.0000000   0.2275165   0.0000000), wk =   0.0008681
        k(   27) = (   0.0000000   0.2275165   0.0493045), wk =   0.0017361
        k(   28) = (   0.0000000   0.2275165   0.0986090), wk =   0.0017361
        k(   29) = (   0.0000000   0.2275165   0.1479135), wk =   0.0017361
        k(   30) = (   0.0000000   0.2275165  -0.1972180), wk =   0.0008681
        k(   31) = (   0.0000000   0.2730198   0.0000000), wk =   0.0008681
        k(   32) = (   0.0000000   0.2730198   0.0493045), wk =   0.0017361
        k(   33) = (   0.0000000   0.2730198   0.0986090), wk =   0.0017361
        k(   34) = (   0.0000000   0.2730198   0.1479135), wk =   0.0017361
        k(   35) = (   0.0000000   0.2730198  -0.1972180), wk =   0.0008681
        k(   36) = (   0.0000000   0.3185232   0.0000000), wk =   0.0008681
        k(   37) = (   0.0000000   0.3185232   0.0493045), wk =   0.0017361
        k(   38) = (   0.0000000   0.3185232   0.0986090), wk =   0.0017361
        k(   39) = (   0.0000000   0.3185232   0.1479135), wk =   0.0017361
        k(   40) = (   0.0000000   0.3185232  -0.1972180), wk =   0.0008681
        k(   41) = (   0.0000000   0.3640265   0.0000000), wk =   0.0008681
        k(   42) = (   0.0000000   0.3640265   0.0493045), wk =   0.0017361
        k(   43) = (   0.0000000   0.3640265   0.0986090), wk =   0.0017361
        k(   44) = (   0.0000000   0.3640265   0.1479135), wk =   0.0017361
        k(   45) = (   0.0000000   0.3640265  -0.1972180), wk =   0.0008681
        k(   46) = (   0.0000000   0.4095298   0.0000000), wk =   0.0008681
        k(   47) = (   0.0000000   0.4095298   0.0493045), wk =   0.0017361
        k(   48) = (   0.0000000   0.4095298   0.0986090), wk =   0.0017361
        k(   49) = (   0.0000000   0.4095298   0.1479135), wk =   0.0017361
        k(   50) = (   0.0000000   0.4095298  -0.1972180), wk =   0.0008681
        k(   51) = (   0.0000000   0.4550331   0.0000000), wk =   0.0008681
        k(   52) = (   0.0000000   0.4550331   0.0493045), wk =   0.0017361
        k(   53) = (   0.0000000   0.4550331   0.0986090), wk =   0.0017361
        k(   54) = (   0.0000000   0.4550331   0.1479135), wk =   0.0017361
        k(   55) = (   0.0000000   0.4550331  -0.1972180), wk =   0.0008681
        k(   56) = (   0.0000000   0.5005364   0.0000000), wk =   0.0008681
        k(   57) = (   0.0000000   0.5005364   0.0493045), wk =   0.0017361
        k(   58) = (   0.0000000   0.5005364   0.0986090), wk =   0.0017361
        k(   59) = (   0.0000000   0.5005364   0.1479135), wk =   0.0017361
        k(   60) = (   0.0000000   0.5005364  -0.1972180), wk =   0.0008681
        k(   61) = (   0.0000000  -0.5460397   0.0000000), wk =   0.0004340
        k(   62) = (   0.0000000  -0.5460397   0.0493045), wk =   0.0008681
        k(   63) = (   0.0000000  -0.5460397   0.0986090), wk =   0.0008681
        k(   64) = (   0.0000000  -0.5460397   0.1479135), wk =   0.0008681
        k(   65) = (   0.0000000  -0.5460397  -0.1972180), wk =   0.0004340
        k(   66) = (   0.0416667   0.0000000   0.0000000), wk =   0.0008681
        k(   67) = (   0.0416667   0.0000000   0.0493045), wk =   0.0017361
        k(   68) = (   0.0416667   0.0000000   0.0986090), wk =   0.0017361
        k(   69) = (   0.0416667   0.0000000   0.1479135), wk =   0.0017361
        k(   70) = (   0.0416667   0.0000000  -0.1972180), wk =   0.0008681
        k(   71) = (   0.0416667   0.0455033   0.0000000), wk =   0.0017361
        k(   72) = (   0.0416667   0.0455033   0.0493045), wk =   0.0034722
        k(   73) = (   0.0416667   0.0455033   0.0986090), wk =   0.0034722
        k(   74) = (   0.0416667   0.0455033   0.1479135), wk =   0.0034722
        k(   75) = (   0.0416667   0.0455033  -0.1972180), wk =   0.0017361
        k(   76) = (   0.0416667   0.0910066   0.0000000), wk =   0.0017361
        k(   77) = (   0.0416667   0.0910066   0.0493045), wk =   0.0034722
        k(   78) = (   0.0416667   0.0910066   0.0986090), wk =   0.0034722
        k(   79) = (   0.0416667   0.0910066   0.1479135), wk =   0.0034722
        k(   80) = (   0.0416667   0.0910066  -0.1972180), wk =   0.0017361
        k(   81) = (   0.0416667   0.1365099   0.0000000), wk =   0.0017361
        k(   82) = (   0.0416667   0.1365099   0.0493045), wk =   0.0034722
        k(   83) = (   0.0416667   0.1365099   0.0986090), wk =   0.0034722
        k(   84) = (   0.0416667   0.1365099   0.1479135), wk =   0.0034722
        k(   85) = (   0.0416667   0.1365099  -0.1972180), wk =   0.0017361
        k(   86) = (   0.0416667   0.1820132   0.0000000), wk =   0.0017361
        k(   87) = (   0.0416667   0.1820132   0.0493045), wk =   0.0034722
        k(   88) = (   0.0416667   0.1820132   0.0986090), wk =   0.0034722
        k(   89) = (   0.0416667   0.1820132   0.1479135), wk =   0.0034722
        k(   90) = (   0.0416667   0.1820132  -0.1972180), wk =   0.0017361
        k(   91) = (   0.0416667   0.2275165   0.0000000), wk =   0.0017361
        k(   92) = (   0.0416667   0.2275165   0.0493045), wk =   0.0034722
        k(   93) = (   0.0416667   0.2275165   0.0986090), wk =   0.0034722
        k(   94) = (   0.0416667   0.2275165   0.1479135), wk =   0.0034722
        k(   95) = (   0.0416667   0.2275165  -0.1972180), wk =   0.0017361
        k(   96) = (   0.0416667   0.2730198   0.0000000), wk =   0.0017361
        k(   97) = (   0.0416667   0.2730198   0.0493045), wk =   0.0034722
        k(   98) = (   0.0416667   0.2730198   0.0986090), wk =   0.0034722
        k(   99) = (   0.0416667   0.2730198   0.1479135), wk =   0.0034722
        k(  100) = (   0.0416667   0.2730198  -0.1972180), wk =   0.0017361
        k(  101) = (   0.0416667   0.3185232   0.0000000), wk =   0.0017361
        k(  102) = (   0.0416667   0.3185232   0.0493045), wk =   0.0034722
        k(  103) = (   0.0416667   0.3185232   0.0986090), wk =   0.0034722
        k(  104) = (   0.0416667   0.3185232   0.1479135), wk =   0.0034722
        k(  105) = (   0.0416667   0.3185232  -0.1972180), wk =   0.0017361
        k(  106) = (   0.0416667   0.3640265   0.0000000), wk =   0.0017361
        k(  107) = (   0.0416667   0.3640265   0.0493045), wk =   0.0034722
        k(  108) = (   0.0416667   0.3640265   0.0986090), wk =   0.0034722
        k(  109) = (   0.0416667   0.3640265   0.1479135), wk =   0.0034722
        k(  110) = (   0.0416667   0.3640265  -0.1972180), wk =   0.0017361
        k(  111) = (   0.0416667   0.4095298   0.0000000), wk =   0.0017361
        k(  112) = (   0.0416667   0.4095298   0.0493045), wk =   0.0034722
        k(  113) = (   0.0416667   0.4095298   0.0986090), wk =   0.0034722
        k(  114) = (   0.0416667   0.4095298   0.1479135), wk =   0.0034722
        k(  115) = (   0.0416667   0.4095298  -0.1972180), wk =   0.0017361
        k(  116) = (   0.0416667   0.4550331   0.0000000), wk =   0.0017361
        k(  117) = (   0.0416667   0.4550331   0.0493045), wk =   0.0034722
        k(  118) = (   0.0416667   0.4550331   0.0986090), wk =   0.0034722
        k(  119) = (   0.0416667   0.4550331   0.1479135), wk =   0.0034722
        k(  120) = (   0.0416667   0.4550331  -0.1972180), wk =   0.0017361
        k(  121) = (   0.0416667   0.5005364   0.0000000), wk =   0.0017361
        k(  122) = (   0.0416667   0.5005364   0.0493045), wk =   0.0034722
        k(  123) = (   0.0416667   0.5005364   0.0986090), wk =   0.0034722
        k(  124) = (   0.0416667   0.5005364   0.1479135), wk =   0.0034722
        k(  125) = (   0.0416667   0.5005364  -0.1972180), wk =   0.0017361
        k(  126) = (   0.0416667  -0.5460397   0.0000000), wk =   0.0008681
        k(  127) = (   0.0416667  -0.5460397   0.0493045), wk =   0.0017361
        k(  128) = (   0.0416667  -0.5460397   0.0986090), wk =   0.0017361
        k(  129) = (   0.0416667  -0.5460397   0.1479135), wk =   0.0017361
        k(  130) = (   0.0416667  -0.5460397  -0.1972180), wk =   0.0008681
        k(  131) = (   0.0833333   0.0000000   0.0000000), wk =   0.0008681
        k(  132) = (   0.0833333   0.0000000   0.0493045), wk =   0.0017361
        k(  133) = (   0.0833333   0.0000000   0.0986090), wk =   0.0017361
        k(  134) = (   0.0833333   0.0000000   0.1479135), wk =   0.0017361
        k(  135) = (   0.0833333   0.0000000  -0.1972180), wk =   0.0008681
        k(  136) = (   0.0833333   0.0455033   0.0000000), wk =   0.0017361
        k(  137) = (   0.0833333   0.0455033   0.0493045), wk =   0.0034722
        k(  138) = (   0.0833333   0.0455033   0.0986090), wk =   0.0034722
        k(  139) = (   0.0833333   0.0455033   0.1479135), wk =   0.0034722
        k(  140) = (   0.0833333   0.0455033  -0.1972180), wk =   0.0017361
        k(  141) = (   0.0833333   0.0910066   0.0000000), wk =   0.0017361
        k(  142) = (   0.0833333   0.0910066   0.0493045), wk =   0.0034722
        k(  143) = (   0.0833333   0.0910066   0.0986090), wk =   0.0034722
        k(  144) = (   0.0833333   0.0910066   0.1479135), wk =   0.0034722
        k(  145) = (   0.0833333   0.0910066  -0.1972180), wk =   0.0017361
        k(  146) = (   0.0833333   0.1365099   0.0000000), wk =   0.0017361
        k(  147) = (   0.0833333   0.1365099   0.0493045), wk =   0.0034722
        k(  148) = (   0.0833333   0.1365099   0.0986090), wk =   0.0034722
        k(  149) = (   0.0833333   0.1365099   0.1479135), wk =   0.0034722
        k(  150) = (   0.0833333   0.1365099  -0.1972180), wk =   0.0017361
        k(  151) = (   0.0833333   0.1820132   0.0000000), wk =   0.0017361
        k(  152) = (   0.0833333   0.1820132   0.0493045), wk =   0.0034722
        k(  153) = (   0.0833333   0.1820132   0.0986090), wk =   0.0034722
        k(  154) = (   0.0833333   0.1820132   0.1479135), wk =   0.0034722
        k(  155) = (   0.0833333   0.1820132  -0.1972180), wk =   0.0017361
        k(  156) = (   0.0833333   0.2275165   0.0000000), wk =   0.0017361
        k(  157) = (   0.0833333   0.2275165   0.0493045), wk =   0.0034722
        k(  158) = (   0.0833333   0.2275165   0.0986090), wk =   0.0034722
        k(  159) = (   0.0833333   0.2275165   0.1479135), wk =   0.0034722
        k(  160) = (   0.0833333   0.2275165  -0.1972180), wk =   0.0017361
        k(  161) = (   0.0833333   0.2730198   0.0000000), wk =   0.0017361
        k(  162) = (   0.0833333   0.2730198   0.0493045), wk =   0.0034722
        k(  163) = (   0.0833333   0.2730198   0.0986090), wk =   0.0034722
        k(  164) = (   0.0833333   0.2730198   0.1479135), wk =   0.0034722
        k(  165) = (   0.0833333   0.2730198  -0.1972180), wk =   0.0017361
        k(  166) = (   0.0833333   0.3185232   0.0000000), wk =   0.0017361
        k(  167) = (   0.0833333   0.3185232   0.0493045), wk =   0.0034722
        k(  168) = (   0.0833333   0.3185232   0.0986090), wk =   0.0034722
        k(  169) = (   0.0833333   0.3185232   0.1479135), wk =   0.0034722
        k(  170) = (   0.0833333   0.3185232  -0.1972180), wk =   0.0017361
        k(  171) = (   0.0833333   0.3640265   0.0000000), wk =   0.0017361
        k(  172) = (   0.0833333   0.3640265   0.0493045), wk =   0.0034722
        k(  173) = (   0.0833333   0.3640265   0.0986090), wk =   0.0034722
        k(  174) = (   0.0833333   0.3640265   0.1479135), wk =   0.0034722
        k(  175) = (   0.0833333   0.3640265  -0.1972180), wk =   0.0017361
        k(  176) = (   0.0833333   0.4095298   0.0000000), wk =   0.0017361
        k(  177) = (   0.0833333   0.4095298   0.0493045), wk =   0.0034722
        k(  178) = (   0.0833333   0.4095298   0.0986090), wk =   0.0034722
        k(  179) = (   0.0833333   0.4095298   0.1479135), wk =   0.0034722
        k(  180) = (   0.0833333   0.4095298  -0.1972180), wk =   0.0017361
        k(  181) = (   0.0833333   0.4550331   0.0000000), wk =   0.0017361
        k(  182) = (   0.0833333   0.4550331   0.0493045), wk =   0.0034722
        k(  183) = (   0.0833333   0.4550331   0.0986090), wk =   0.0034722
        k(  184) = (   0.0833333   0.4550331   0.1479135), wk =   0.0034722
        k(  185) = (   0.0833333   0.4550331  -0.1972180), wk =   0.0017361
        k(  186) = (   0.0833333   0.5005364   0.0000000), wk =   0.0017361
        k(  187) = (   0.0833333   0.5005364   0.0493045), wk =   0.0034722
        k(  188) = (   0.0833333   0.5005364   0.0986090), wk =   0.0034722
        k(  189) = (   0.0833333   0.5005364   0.1479135), wk =   0.0034722
        k(  190) = (   0.0833333   0.5005364  -0.1972180), wk =   0.0017361
        k(  191) = (   0.0833333  -0.5460397   0.0000000), wk =   0.0008681
        k(  192) = (   0.0833333  -0.5460397   0.0493045), wk =   0.0017361
        k(  193) = (   0.0833333  -0.5460397   0.0986090), wk =   0.0017361
        k(  194) = (   0.0833333  -0.5460397   0.1479135), wk =   0.0017361
        k(  195) = (   0.0833333  -0.5460397  -0.1972180), wk =   0.0008681
        k(  196) = (   0.1250000   0.0000000   0.0000000), wk =   0.0008681
        k(  197) = (   0.1250000   0.0000000   0.0493045), wk =   0.0017361
        k(  198) = (   0.1250000   0.0000000   0.0986090), wk =   0.0017361
        k(  199) = (   0.1250000   0.0000000   0.1479135), wk =   0.0017361
        k(  200) = (   0.1250000   0.0000000  -0.1972180), wk =   0.0008681
        k(  201) = (   0.1250000   0.0455033   0.0000000), wk =   0.0017361
        k(  202) = (   0.1250000   0.0455033   0.0493045), wk =   0.0034722
        k(  203) = (   0.1250000   0.0455033   0.0986090), wk =   0.0034722
        k(  204) = (   0.1250000   0.0455033   0.1479135), wk =   0.0034722
        k(  205) = (   0.1250000   0.0455033  -0.1972180), wk =   0.0017361
        k(  206) = (   0.1250000   0.0910066   0.0000000), wk =   0.0017361
        k(  207) = (   0.1250000   0.0910066   0.0493045), wk =   0.0034722
        k(  208) = (   0.1250000   0.0910066   0.0986090), wk =   0.0034722
        k(  209) = (   0.1250000   0.0910066   0.1479135), wk =   0.0034722
        k(  210) = (   0.1250000   0.0910066  -0.1972180), wk =   0.0017361
        k(  211) = (   0.1250000   0.1365099   0.0000000), wk =   0.0017361
        k(  212) = (   0.1250000   0.1365099   0.0493045), wk =   0.0034722
        k(  213) = (   0.1250000   0.1365099   0.0986090), wk =   0.0034722
        k(  214) = (   0.1250000   0.1365099   0.1479135), wk =   0.0034722
        k(  215) = (   0.1250000   0.1365099  -0.1972180), wk =   0.0017361
        k(  216) = (   0.1250000   0.1820132   0.0000000), wk =   0.0017361
        k(  217) = (   0.1250000   0.1820132   0.0493045), wk =   0.0034722
        k(  218) = (   0.1250000   0.1820132   0.0986090), wk =   0.0034722
        k(  219) = (   0.1250000   0.1820132   0.1479135), wk =   0.0034722
        k(  220) = (   0.1250000   0.1820132  -0.1972180), wk =   0.0017361
        k(  221) = (   0.1250000   0.2275165   0.0000000), wk =   0.0017361
        k(  222) = (   0.1250000   0.2275165   0.0493045), wk =   0.0034722
        k(  223) = (   0.1250000   0.2275165   0.0986090), wk =   0.0034722
        k(  224) = (   0.1250000   0.2275165   0.1479135), wk =   0.0034722
        k(  225) = (   0.1250000   0.2275165  -0.1972180), wk =   0.0017361
        k(  226) = (   0.1250000   0.2730198   0.0000000), wk =   0.0017361
        k(  227) = (   0.1250000   0.2730198   0.0493045), wk =   0.0034722
        k(  228) = (   0.1250000   0.2730198   0.0986090), wk =   0.0034722
        k(  229) = (   0.1250000   0.2730198   0.1479135), wk =   0.0034722
        k(  230) = (   0.1250000   0.2730198  -0.1972180), wk =   0.0017361
        k(  231) = (   0.1250000   0.3185232   0.0000000), wk =   0.0017361
        k(  232) = (   0.1250000   0.3185232   0.0493045), wk =   0.0034722
        k(  233) = (   0.1250000   0.3185232   0.0986090), wk =   0.0034722
        k(  234) = (   0.1250000   0.3185232   0.1479135), wk =   0.0034722
        k(  235) = (   0.1250000   0.3185232  -0.1972180), wk =   0.0017361
        k(  236) = (   0.1250000   0.3640265   0.0000000), wk =   0.0017361
        k(  237) = (   0.1250000   0.3640265   0.0493045), wk =   0.0034722
        k(  238) = (   0.1250000   0.3640265   0.0986090), wk =   0.0034722
        k(  239) = (   0.1250000   0.3640265   0.1479135), wk =   0.0034722
        k(  240) = (   0.1250000   0.3640265  -0.1972180), wk =   0.0017361
        k(  241) = (   0.1250000   0.4095298   0.0000000), wk =   0.0017361
        k(  242) = (   0.1250000   0.4095298   0.0493045), wk =   0.0034722
        k(  243) = (   0.1250000   0.4095298   0.0986090), wk =   0.0034722
        k(  244) = (   0.1250000   0.4095298   0.1479135), wk =   0.0034722
        k(  245) = (   0.1250000   0.4095298  -0.1972180), wk =   0.0017361
        k(  246) = (   0.1250000   0.4550331   0.0000000), wk =   0.0017361
        k(  247) = (   0.1250000   0.4550331   0.0493045), wk =   0.0034722
        k(  248) = (   0.1250000   0.4550331   0.0986090), wk =   0.0034722
        k(  249) = (   0.1250000   0.4550331   0.1479135), wk =   0.0034722
        k(  250) = (   0.1250000   0.4550331  -0.1972180), wk =   0.0017361
        k(  251) = (   0.1250000   0.5005364   0.0000000), wk =   0.0017361
        k(  252) = (   0.1250000   0.5005364   0.0493045), wk =   0.0034722
        k(  253) = (   0.1250000   0.5005364   0.0986090), wk =   0.0034722
        k(  254) = (   0.1250000   0.5005364   0.1479135), wk =   0.0034722
        k(  255) = (   0.1250000   0.5005364  -0.1972180), wk =   0.0017361
        k(  256) = (   0.1250000  -0.5460397   0.0000000), wk =   0.0008681
        k(  257) = (   0.1250000  -0.5460397   0.0493045), wk =   0.0017361
        k(  258) = (   0.1250000  -0.5460397   0.0986090), wk =   0.0017361
        k(  259) = (   0.1250000  -0.5460397   0.1479135), wk =   0.0017361
        k(  260) = (   0.1250000  -0.5460397  -0.1972180), wk =   0.0008681
        k(  261) = (   0.1666667   0.0000000   0.0000000), wk =   0.0008681
        k(  262) = (   0.1666667   0.0000000   0.0493045), wk =   0.0017361
        k(  263) = (   0.1666667   0.0000000   0.0986090), wk =   0.0017361
        k(  264) = (   0.1666667   0.0000000   0.1479135), wk =   0.0017361
        k(  265) = (   0.1666667   0.0000000  -0.1972180), wk =   0.0008681
        k(  266) = (   0.1666667   0.0455033   0.0000000), wk =   0.0017361
        k(  267) = (   0.1666667   0.0455033   0.0493045), wk =   0.0034722
        k(  268) = (   0.1666667   0.0455033   0.0986090), wk =   0.0034722
        k(  269) = (   0.1666667   0.0455033   0.1479135), wk =   0.0034722
        k(  270) = (   0.1666667   0.0455033  -0.1972180), wk =   0.0017361
        k(  271) = (   0.1666667   0.0910066   0.0000000), wk =   0.0017361
        k(  272) = (   0.1666667   0.0910066   0.0493045), wk =   0.0034722
        k(  273) = (   0.1666667   0.0910066   0.0986090), wk =   0.0034722
        k(  274) = (   0.1666667   0.0910066   0.1479135), wk =   0.0034722
        k(  275) = (   0.1666667   0.0910066  -0.1972180), wk =   0.0017361
        k(  276) = (   0.1666667   0.1365099   0.0000000), wk =   0.0017361
        k(  277) = (   0.1666667   0.1365099   0.0493045), wk =   0.0034722
        k(  278) = (   0.1666667   0.1365099   0.0986090), wk =   0.0034722
        k(  279) = (   0.1666667   0.1365099   0.1479135), wk =   0.0034722
        k(  280) = (   0.1666667   0.1365099  -0.1972180), wk =   0.0017361
        k(  281) = (   0.1666667   0.1820132   0.0000000), wk =   0.0017361
        k(  282) = (   0.1666667   0.1820132   0.0493045), wk =   0.0034722
        k(  283) = (   0.1666667   0.1820132   0.0986090), wk =   0.0034722
        k(  284) = (   0.1666667   0.1820132   0.1479135), wk =   0.0034722
        k(  285) = (   0.1666667   0.1820132  -0.1972180), wk =   0.0017361
        k(  286) = (   0.1666667   0.2275165   0.0000000), wk =   0.0017361
        k(  287) = (   0.1666667   0.2275165   0.0493045), wk =   0.0034722
        k(  288) = (   0.1666667   0.2275165   0.0986090), wk =   0.0034722
        k(  289) = (   0.1666667   0.2275165   0.1479135), wk =   0.0034722
        k(  290) = (   0.1666667   0.2275165  -0.1972180), wk =   0.0017361
        k(  291) = (   0.1666667   0.2730198   0.0000000), wk =   0.0017361
        k(  292) = (   0.1666667   0.2730198   0.0493045), wk =   0.0034722
        k(  293) = (   0.1666667   0.2730198   0.0986090), wk =   0.0034722
        k(  294) = (   0.1666667   0.2730198   0.1479135), wk =   0.0034722
        k(  295) = (   0.1666667   0.2730198  -0.1972180), wk =   0.0017361
        k(  296) = (   0.1666667   0.3185232   0.0000000), wk =   0.0017361
        k(  297) = (   0.1666667   0.3185232   0.0493045), wk =   0.0034722
        k(  298) = (   0.1666667   0.3185232   0.0986090), wk =   0.0034722
        k(  299) = (   0.1666667   0.3185232   0.1479135), wk =   0.0034722
        k(  300) = (   0.1666667   0.3185232  -0.1972180), wk =   0.0017361
        k(  301) = (   0.1666667   0.3640265   0.0000000), wk =   0.0017361
        k(  302) = (   0.1666667   0.3640265   0.0493045), wk =   0.0034722
        k(  303) = (   0.1666667   0.3640265   0.0986090), wk =   0.0034722
        k(  304) = (   0.1666667   0.3640265   0.1479135), wk =   0.0034722
        k(  305) = (   0.1666667   0.3640265  -0.1972180), wk =   0.0017361
        k(  306) = (   0.1666667   0.4095298   0.0000000), wk =   0.0017361
        k(  307) = (   0.1666667   0.4095298   0.0493045), wk =   0.0034722
        k(  308) = (   0.1666667   0.4095298   0.0986090), wk =   0.0034722
        k(  309) = (   0.1666667   0.4095298   0.1479135), wk =   0.0034722
        k(  310) = (   0.1666667   0.4095298  -0.1972180), wk =   0.0017361
        k(  311) = (   0.1666667   0.4550331   0.0000000), wk =   0.0017361
        k(  312) = (   0.1666667   0.4550331   0.0493045), wk =   0.0034722
        k(  313) = (   0.1666667   0.4550331   0.0986090), wk =   0.0034722
        k(  314) = (   0.1666667   0.4550331   0.1479135), wk =   0.0034722
        k(  315) = (   0.1666667   0.4550331  -0.1972180), wk =   0.0017361
        k(  316) = (   0.1666667   0.5005364   0.0000000), wk =   0.0017361
        k(  317) = (   0.1666667   0.5005364   0.0493045), wk =   0.0034722
        k(  318) = (   0.1666667   0.5005364   0.0986090), wk =   0.0034722
        k(  319) = (   0.1666667   0.5005364   0.1479135), wk =   0.0034722
        k(  320) = (   0.1666667   0.5005364  -0.1972180), wk =   0.0017361
        k(  321) = (   0.1666667  -0.5460397   0.0000000), wk =   0.0008681
        k(  322) = (   0.1666667  -0.5460397   0.0493045), wk =   0.0017361
        k(  323) = (   0.1666667  -0.5460397   0.0986090), wk =   0.0017361
        k(  324) = (   0.1666667  -0.5460397   0.1479135), wk =   0.0017361
        k(  325) = (   0.1666667  -0.5460397  -0.1972180), wk =   0.0008681
        k(  326) = (   0.2083333   0.0000000   0.0000000), wk =   0.0008681
        k(  327) = (   0.2083333   0.0000000   0.0493045), wk =   0.0017361
        k(  328) = (   0.2083333   0.0000000   0.0986090), wk =   0.0017361
        k(  329) = (   0.2083333   0.0000000   0.1479135), wk =   0.0017361
        k(  330) = (   0.2083333   0.0000000  -0.1972180), wk =   0.0008681
        k(  331) = (   0.2083333   0.0455033   0.0000000), wk =   0.0017361
        k(  332) = (   0.2083333   0.0455033   0.0493045), wk =   0.0034722
        k(  333) = (   0.2083333   0.0455033   0.0986090), wk =   0.0034722
        k(  334) = (   0.2083333   0.0455033   0.1479135), wk =   0.0034722
        k(  335) = (   0.2083333   0.0455033  -0.1972180), wk =   0.0017361
        k(  336) = (   0.2083333   0.0910066   0.0000000), wk =   0.0017361
        k(  337) = (   0.2083333   0.0910066   0.0493045), wk =   0.0034722
        k(  338) = (   0.2083333   0.0910066   0.0986090), wk =   0.0034722
        k(  339) = (   0.2083333   0.0910066   0.1479135), wk =   0.0034722
        k(  340) = (   0.2083333   0.0910066  -0.1972180), wk =   0.0017361
        k(  341) = (   0.2083333   0.1365099   0.0000000), wk =   0.0017361
        k(  342) = (   0.2083333   0.1365099   0.0493045), wk =   0.0034722
        k(  343) = (   0.2083333   0.1365099   0.0986090), wk =   0.0034722
        k(  344) = (   0.2083333   0.1365099   0.1479135), wk =   0.0034722
        k(  345) = (   0.2083333   0.1365099  -0.1972180), wk =   0.0017361
        k(  346) = (   0.2083333   0.1820132   0.0000000), wk =   0.0017361
        k(  347) = (   0.2083333   0.1820132   0.0493045), wk =   0.0034722
        k(  348) = (   0.2083333   0.1820132   0.0986090), wk =   0.0034722
        k(  349) = (   0.2083333   0.1820132   0.1479135), wk =   0.0034722
        k(  350) = (   0.2083333   0.1820132  -0.1972180), wk =   0.0017361
        k(  351) = (   0.2083333   0.2275165   0.0000000), wk =   0.0017361
        k(  352) = (   0.2083333   0.2275165   0.0493045), wk =   0.0034722
        k(  353) = (   0.2083333   0.2275165   0.0986090), wk =   0.0034722
        k(  354) = (   0.2083333   0.2275165   0.1479135), wk =   0.0034722
        k(  355) = (   0.2083333   0.2275165  -0.1972180), wk =   0.0017361
        k(  356) = (   0.2083333   0.2730198   0.0000000), wk =   0.0017361
        k(  357) = (   0.2083333   0.2730198   0.0493045), wk =   0.0034722
        k(  358) = (   0.2083333   0.2730198   0.0986090), wk =   0.0034722
        k(  359) = (   0.2083333   0.2730198   0.1479135), wk =   0.0034722
        k(  360) = (   0.2083333   0.2730198  -0.1972180), wk =   0.0017361
        k(  361) = (   0.2083333   0.3185232   0.0000000), wk =   0.0017361
        k(  362) = (   0.2083333   0.3185232   0.0493045), wk =   0.0034722
        k(  363) = (   0.2083333   0.3185232   0.0986090), wk =   0.0034722
        k(  364) = (   0.2083333   0.3185232   0.1479135), wk =   0.0034722
        k(  365) = (   0.2083333   0.3185232  -0.1972180), wk =   0.0017361
        k(  366) = (   0.2083333   0.3640265   0.0000000), wk =   0.0017361
        k(  367) = (   0.2083333   0.3640265   0.0493045), wk =   0.0034722
        k(  368) = (   0.2083333   0.3640265   0.0986090), wk =   0.0034722
        k(  369) = (   0.2083333   0.3640265   0.1479135), wk =   0.0034722
        k(  370) = (   0.2083333   0.3640265  -0.1972180), wk =   0.0017361
        k(  371) = (   0.2083333   0.4095298   0.0000000), wk =   0.0017361
        k(  372) = (   0.2083333   0.4095298   0.0493045), wk =   0.0034722
        k(  373) = (   0.2083333   0.4095298   0.0986090), wk =   0.0034722
        k(  374) = (   0.2083333   0.4095298   0.1479135), wk =   0.0034722
        k(  375) = (   0.2083333   0.4095298  -0.1972180), wk =   0.0017361
        k(  376) = (   0.2083333   0.4550331   0.0000000), wk =   0.0017361
        k(  377) = (   0.2083333   0.4550331   0.0493045), wk =   0.0034722
        k(  378) = (   0.2083333   0.4550331   0.0986090), wk =   0.0034722
        k(  379) = (   0.2083333   0.4550331   0.1479135), wk =   0.0034722
        k(  380) = (   0.2083333   0.4550331  -0.1972180), wk =   0.0017361
        k(  381) = (   0.2083333   0.5005364   0.0000000), wk =   0.0017361
        k(  382) = (   0.2083333   0.5005364   0.0493045), wk =   0.0034722
        k(  383) = (   0.2083333   0.5005364   0.0986090), wk =   0.0034722
        k(  384) = (   0.2083333   0.5005364   0.1479135), wk =   0.0034722
        k(  385) = (   0.2083333   0.5005364  -0.1972180), wk =   0.0017361
        k(  386) = (   0.2083333  -0.5460397   0.0000000), wk =   0.0008681
        k(  387) = (   0.2083333  -0.5460397   0.0493045), wk =   0.0017361
        k(  388) = (   0.2083333  -0.5460397   0.0986090), wk =   0.0017361
        k(  389) = (   0.2083333  -0.5460397   0.1479135), wk =   0.0017361
        k(  390) = (   0.2083333  -0.5460397  -0.1972180), wk =   0.0008681
        k(  391) = (   0.2500000   0.0000000   0.0000000), wk =   0.0008681
        k(  392) = (   0.2500000   0.0000000   0.0493045), wk =   0.0017361
        k(  393) = (   0.2500000   0.0000000   0.0986090), wk =   0.0017361
        k(  394) = (   0.2500000   0.0000000   0.1479135), wk =   0.0017361
        k(  395) = (   0.2500000   0.0000000  -0.1972180), wk =   0.0008681
        k(  396) = (   0.2500000   0.0455033   0.0000000), wk =   0.0017361
        k(  397) = (   0.2500000   0.0455033   0.0493045), wk =   0.0034722
        k(  398) = (   0.2500000   0.0455033   0.0986090), wk =   0.0034722
        k(  399) = (   0.2500000   0.0455033   0.1479135), wk =   0.0034722
        k(  400) = (   0.2500000   0.0455033  -0.1972180), wk =   0.0017361
        k(  401) = (   0.2500000   0.0910066   0.0000000), wk =   0.0017361
        k(  402) = (   0.2500000   0.0910066   0.0493045), wk =   0.0034722
        k(  403) = (   0.2500000   0.0910066   0.0986090), wk =   0.0034722
        k(  404) = (   0.2500000   0.0910066   0.1479135), wk =   0.0034722
        k(  405) = (   0.2500000   0.0910066  -0.1972180), wk =   0.0017361
        k(  406) = (   0.2500000   0.1365099   0.0000000), wk =   0.0017361
        k(  407) = (   0.2500000   0.1365099   0.0493045), wk =   0.0034722
        k(  408) = (   0.2500000   0.1365099   0.0986090), wk =   0.0034722
        k(  409) = (   0.2500000   0.1365099   0.1479135), wk =   0.0034722
        k(  410) = (   0.2500000   0.1365099  -0.1972180), wk =   0.0017361
        k(  411) = (   0.2500000   0.1820132   0.0000000), wk =   0.0017361
        k(  412) = (   0.2500000   0.1820132   0.0493045), wk =   0.0034722
        k(  413) = (   0.2500000   0.1820132   0.0986090), wk =   0.0034722
        k(  414) = (   0.2500000   0.1820132   0.1479135), wk =   0.0034722
        k(  415) = (   0.2500000   0.1820132  -0.1972180), wk =   0.0017361
        k(  416) = (   0.2500000   0.2275165   0.0000000), wk =   0.0017361
        k(  417) = (   0.2500000   0.2275165   0.0493045), wk =   0.0034722
        k(  418) = (   0.2500000   0.2275165   0.0986090), wk =   0.0034722
        k(  419) = (   0.2500000   0.2275165   0.1479135), wk =   0.0034722
        k(  420) = (   0.2500000   0.2275165  -0.1972180), wk =   0.0017361
        k(  421) = (   0.2500000   0.2730198   0.0000000), wk =   0.0017361
        k(  422) = (   0.2500000   0.2730198   0.0493045), wk =   0.0034722
        k(  423) = (   0.2500000   0.2730198   0.0986090), wk =   0.0034722
        k(  424) = (   0.2500000   0.2730198   0.1479135), wk =   0.0034722
        k(  425) = (   0.2500000   0.2730198  -0.1972180), wk =   0.0017361
        k(  426) = (   0.2500000   0.3185232   0.0000000), wk =   0.0017361
        k(  427) = (   0.2500000   0.3185232   0.0493045), wk =   0.0034722
        k(  428) = (   0.2500000   0.3185232   0.0986090), wk =   0.0034722
        k(  429) = (   0.2500000   0.3185232   0.1479135), wk =   0.0034722
        k(  430) = (   0.2500000   0.3185232  -0.1972180), wk =   0.0017361
        k(  431) = (   0.2500000   0.3640265   0.0000000), wk =   0.0017361
        k(  432) = (   0.2500000   0.3640265   0.0493045), wk =   0.0034722
        k(  433) = (   0.2500000   0.3640265   0.0986090), wk =   0.0034722
        k(  434) = (   0.2500000   0.3640265   0.1479135), wk =   0.0034722
        k(  435) = (   0.2500000   0.3640265  -0.1972180), wk =   0.0017361
        k(  436) = (   0.2500000   0.4095298   0.0000000), wk =   0.0017361
        k(  437) = (   0.2500000   0.4095298   0.0493045), wk =   0.0034722
        k(  438) = (   0.2500000   0.4095298   0.0986090), wk =   0.0034722
        k(  439) = (   0.2500000   0.4095298   0.1479135), wk =   0.0034722
        k(  440) = (   0.2500000   0.4095298  -0.1972180), wk =   0.0017361
        k(  441) = (   0.2500000   0.4550331   0.0000000), wk =   0.0017361
        k(  442) = (   0.2500000   0.4550331   0.0493045), wk =   0.0034722
        k(  443) = (   0.2500000   0.4550331   0.0986090), wk =   0.0034722
        k(  444) = (   0.2500000   0.4550331   0.1479135), wk =   0.0034722
        k(  445) = (   0.2500000   0.4550331  -0.1972180), wk =   0.0017361
        k(  446) = (   0.2500000   0.5005364   0.0000000), wk =   0.0017361
        k(  447) = (   0.2500000   0.5005364   0.0493045), wk =   0.0034722
        k(  448) = (   0.2500000   0.5005364   0.0986090), wk =   0.0034722
        k(  449) = (   0.2500000   0.5005364   0.1479135), wk =   0.0034722
        k(  450) = (   0.2500000   0.5005364  -0.1972180), wk =   0.0017361
        k(  451) = (   0.2500000  -0.5460397   0.0000000), wk =   0.0008681
        k(  452) = (   0.2500000  -0.5460397   0.0493045), wk =   0.0017361
        k(  453) = (   0.2500000  -0.5460397   0.0986090), wk =   0.0017361
        k(  454) = (   0.2500000  -0.5460397   0.1479135), wk =   0.0017361
        k(  455) = (   0.2500000  -0.5460397  -0.1972180), wk =   0.0008681
        k(  456) = (   0.2916667   0.0000000   0.0000000), wk =   0.0008681
        k(  457) = (   0.2916667   0.0000000   0.0493045), wk =   0.0017361
        k(  458) = (   0.2916667   0.0000000   0.0986090), wk =   0.0017361
        k(  459) = (   0.2916667   0.0000000   0.1479135), wk =   0.0017361
        k(  460) = (   0.2916667   0.0000000  -0.1972180), wk =   0.0008681
        k(  461) = (   0.2916667   0.0455033   0.0000000), wk =   0.0017361
        k(  462) = (   0.2916667   0.0455033   0.0493045), wk =   0.0034722
        k(  463) = (   0.2916667   0.0455033   0.0986090), wk =   0.0034722
        k(  464) = (   0.2916667   0.0455033   0.1479135), wk =   0.0034722
        k(  465) = (   0.2916667   0.0455033  -0.1972180), wk =   0.0017361
        k(  466) = (   0.2916667   0.0910066   0.0000000), wk =   0.0017361
        k(  467) = (   0.2916667   0.0910066   0.0493045), wk =   0.0034722
        k(  468) = (   0.2916667   0.0910066   0.0986090), wk =   0.0034722
        k(  469) = (   0.2916667   0.0910066   0.1479135), wk =   0.0034722
        k(  470) = (   0.2916667   0.0910066  -0.1972180), wk =   0.0017361
        k(  471) = (   0.2916667   0.1365099   0.0000000), wk =   0.0017361
        k(  472) = (   0.2916667   0.1365099   0.0493045), wk =   0.0034722
        k(  473) = (   0.2916667   0.1365099   0.0986090), wk =   0.0034722
        k(  474) = (   0.2916667   0.1365099   0.1479135), wk =   0.0034722
        k(  475) = (   0.2916667   0.1365099  -0.1972180), wk =   0.0017361
        k(  476) = (   0.2916667   0.1820132   0.0000000), wk =   0.0017361
        k(  477) = (   0.2916667   0.1820132   0.0493045), wk =   0.0034722
        k(  478) = (   0.2916667   0.1820132   0.0986090), wk =   0.0034722
        k(  479) = (   0.2916667   0.1820132   0.1479135), wk =   0.0034722
        k(  480) = (   0.2916667   0.1820132  -0.1972180), wk =   0.0017361
        k(  481) = (   0.2916667   0.2275165   0.0000000), wk =   0.0017361
        k(  482) = (   0.2916667   0.2275165   0.0493045), wk =   0.0034722
        k(  483) = (   0.2916667   0.2275165   0.0986090), wk =   0.0034722
        k(  484) = (   0.2916667   0.2275165   0.1479135), wk =   0.0034722
        k(  485) = (   0.2916667   0.2275165  -0.1972180), wk =   0.0017361
        k(  486) = (   0.2916667   0.2730198   0.0000000), wk =   0.0017361
        k(  487) = (   0.2916667   0.2730198   0.0493045), wk =   0.0034722
        k(  488) = (   0.2916667   0.2730198   0.0986090), wk =   0.0034722
        k(  489) = (   0.2916667   0.2730198   0.1479135), wk =   0.0034722
        k(  490) = (   0.2916667   0.2730198  -0.1972180), wk =   0.0017361
        k(  491) = (   0.2916667   0.3185232   0.0000000), wk =   0.0017361
        k(  492) = (   0.2916667   0.3185232   0.0493045), wk =   0.0034722
        k(  493) = (   0.2916667   0.3185232   0.0986090), wk =   0.0034722
        k(  494) = (   0.2916667   0.3185232   0.1479135), wk =   0.0034722
        k(  495) = (   0.2916667   0.3185232  -0.1972180), wk =   0.0017361
        k(  496) = (   0.2916667   0.3640265   0.0000000), wk =   0.0017361
        k(  497) = (   0.2916667   0.3640265   0.0493045), wk =   0.0034722
        k(  498) = (   0.2916667   0.3640265   0.0986090), wk =   0.0034722
        k(  499) = (   0.2916667   0.3640265   0.1479135), wk =   0.0034722
        k(  500) = (   0.2916667   0.3640265  -0.1972180), wk =   0.0017361
        k(  501) = (   0.2916667   0.4095298   0.0000000), wk =   0.0017361
        k(  502) = (   0.2916667   0.4095298   0.0493045), wk =   0.0034722
        k(  503) = (   0.2916667   0.4095298   0.0986090), wk =   0.0034722
        k(  504) = (   0.2916667   0.4095298   0.1479135), wk =   0.0034722
        k(  505) = (   0.2916667   0.4095298  -0.1972180), wk =   0.0017361
        k(  506) = (   0.2916667   0.4550331   0.0000000), wk =   0.0017361
        k(  507) = (   0.2916667   0.4550331   0.0493045), wk =   0.0034722
        k(  508) = (   0.2916667   0.4550331   0.0986090), wk =   0.0034722
        k(  509) = (   0.2916667   0.4550331   0.1479135), wk =   0.0034722
        k(  510) = (   0.2916667   0.4550331  -0.1972180), wk =   0.0017361
        k(  511) = (   0.2916667   0.5005364   0.0000000), wk =   0.0017361
        k(  512) = (   0.2916667   0.5005364   0.0493045), wk =   0.0034722
        k(  513) = (   0.2916667   0.5005364   0.0986090), wk =   0.0034722
        k(  514) = (   0.2916667   0.5005364   0.1479135), wk =   0.0034722
        k(  515) = (   0.2916667   0.5005364  -0.1972180), wk =   0.0017361
        k(  516) = (   0.2916667  -0.5460397   0.0000000), wk =   0.0008681
        k(  517) = (   0.2916667  -0.5460397   0.0493045), wk =   0.0017361
        k(  518) = (   0.2916667  -0.5460397   0.0986090), wk =   0.0017361
        k(  519) = (   0.2916667  -0.5460397   0.1479135), wk =   0.0017361
        k(  520) = (   0.2916667  -0.5460397  -0.1972180), wk =   0.0008681
        k(  521) = (   0.3333333   0.0000000   0.0000000), wk =   0.0008681
        k(  522) = (   0.3333333   0.0000000   0.0493045), wk =   0.0017361
        k(  523) = (   0.3333333   0.0000000   0.0986090), wk =   0.0017361
        k(  524) = (   0.3333333   0.0000000   0.1479135), wk =   0.0017361
        k(  525) = (   0.3333333   0.0000000  -0.1972180), wk =   0.0008681
        k(  526) = (   0.3333333   0.0455033   0.0000000), wk =   0.0017361
        k(  527) = (   0.3333333   0.0455033   0.0493045), wk =   0.0034722
        k(  528) = (   0.3333333   0.0455033   0.0986090), wk =   0.0034722
        k(  529) = (   0.3333333   0.0455033   0.1479135), wk =   0.0034722
        k(  530) = (   0.3333333   0.0455033  -0.1972180), wk =   0.0017361
        k(  531) = (   0.3333333   0.0910066   0.0000000), wk =   0.0017361
        k(  532) = (   0.3333333   0.0910066   0.0493045), wk =   0.0034722
        k(  533) = (   0.3333333   0.0910066   0.0986090), wk =   0.0034722
        k(  534) = (   0.3333333   0.0910066   0.1479135), wk =   0.0034722
        k(  535) = (   0.3333333   0.0910066  -0.1972180), wk =   0.0017361
        k(  536) = (   0.3333333   0.1365099   0.0000000), wk =   0.0017361
        k(  537) = (   0.3333333   0.1365099   0.0493045), wk =   0.0034722
        k(  538) = (   0.3333333   0.1365099   0.0986090), wk =   0.0034722
        k(  539) = (   0.3333333   0.1365099   0.1479135), wk =   0.0034722
        k(  540) = (   0.3333333   0.1365099  -0.1972180), wk =   0.0017361
        k(  541) = (   0.3333333   0.1820132   0.0000000), wk =   0.0017361
        k(  542) = (   0.3333333   0.1820132   0.0493045), wk =   0.0034722
        k(  543) = (   0.3333333   0.1820132   0.0986090), wk =   0.0034722
        k(  544) = (   0.3333333   0.1820132   0.1479135), wk =   0.0034722
        k(  545) = (   0.3333333   0.1820132  -0.1972180), wk =   0.0017361
        k(  546) = (   0.3333333   0.2275165   0.0000000), wk =   0.0017361
        k(  547) = (   0.3333333   0.2275165   0.0493045), wk =   0.0034722
        k(  548) = (   0.3333333   0.2275165   0.0986090), wk =   0.0034722
        k(  549) = (   0.3333333   0.2275165   0.1479135), wk =   0.0034722
        k(  550) = (   0.3333333   0.2275165  -0.1972180), wk =   0.0017361
        k(  551) = (   0.3333333   0.2730198   0.0000000), wk =   0.0017361
        k(  552) = (   0.3333333   0.2730198   0.0493045), wk =   0.0034722
        k(  553) = (   0.3333333   0.2730198   0.0986090), wk =   0.0034722
        k(  554) = (   0.3333333   0.2730198   0.1479135), wk =   0.0034722
        k(  555) = (   0.3333333   0.2730198  -0.1972180), wk =   0.0017361
        k(  556) = (   0.3333333   0.3185232   0.0000000), wk =   0.0017361
        k(  557) = (   0.3333333   0.3185232   0.0493045), wk =   0.0034722
        k(  558) = (   0.3333333   0.3185232   0.0986090), wk =   0.0034722
        k(  559) = (   0.3333333   0.3185232   0.1479135), wk =   0.0034722
        k(  560) = (   0.3333333   0.3185232  -0.1972180), wk =   0.0017361
        k(  561) = (   0.3333333   0.3640265   0.0000000), wk =   0.0017361
        k(  562) = (   0.3333333   0.3640265   0.0493045), wk =   0.0034722
        k(  563) = (   0.3333333   0.3640265   0.0986090), wk =   0.0034722
        k(  564) = (   0.3333333   0.3640265   0.1479135), wk =   0.0034722
        k(  565) = (   0.3333333   0.3640265  -0.1972180), wk =   0.0017361
        k(  566) = (   0.3333333   0.4095298   0.0000000), wk =   0.0017361
        k(  567) = (   0.3333333   0.4095298   0.0493045), wk =   0.0034722
        k(  568) = (   0.3333333   0.4095298   0.0986090), wk =   0.0034722
        k(  569) = (   0.3333333   0.4095298   0.1479135), wk =   0.0034722
        k(  570) = (   0.3333333   0.4095298  -0.1972180), wk =   0.0017361
        k(  571) = (   0.3333333   0.4550331   0.0000000), wk =   0.0017361
        k(  572) = (   0.3333333   0.4550331   0.0493045), wk =   0.0034722
        k(  573) = (   0.3333333   0.4550331   0.0986090), wk =   0.0034722
        k(  574) = (   0.3333333   0.4550331   0.1479135), wk =   0.0034722
        k(  575) = (   0.3333333   0.4550331  -0.1972180), wk =   0.0017361
        k(  576) = (   0.3333333   0.5005364   0.0000000), wk =   0.0017361
        k(  577) = (   0.3333333   0.5005364   0.0493045), wk =   0.0034722
        k(  578) = (   0.3333333   0.5005364   0.0986090), wk =   0.0034722
        k(  579) = (   0.3333333   0.5005364   0.1479135), wk =   0.0034722
        k(  580) = (   0.3333333   0.5005364  -0.1972180), wk =   0.0017361
        k(  581) = (   0.3333333  -0.5460397   0.0000000), wk =   0.0008681
        k(  582) = (   0.3333333  -0.5460397   0.0493045), wk =   0.0017361
        k(  583) = (   0.3333333  -0.5460397   0.0986090), wk =   0.0017361
        k(  584) = (   0.3333333  -0.5460397   0.1479135), wk =   0.0017361
        k(  585) = (   0.3333333  -0.5460397  -0.1972180), wk =   0.0008681
        k(  586) = (   0.3750000   0.0000000   0.0000000), wk =   0.0008681
        k(  587) = (   0.3750000   0.0000000   0.0493045), wk =   0.0017361
        k(  588) = (   0.3750000   0.0000000   0.0986090), wk =   0.0017361
        k(  589) = (   0.3750000   0.0000000   0.1479135), wk =   0.0017361
        k(  590) = (   0.3750000   0.0000000  -0.1972180), wk =   0.0008681
        k(  591) = (   0.3750000   0.0455033   0.0000000), wk =   0.0017361
        k(  592) = (   0.3750000   0.0455033   0.0493045), wk =   0.0034722
        k(  593) = (   0.3750000   0.0455033   0.0986090), wk =   0.0034722
        k(  594) = (   0.3750000   0.0455033   0.1479135), wk =   0.0034722
        k(  595) = (   0.3750000   0.0455033  -0.1972180), wk =   0.0017361
        k(  596) = (   0.3750000   0.0910066   0.0000000), wk =   0.0017361
        k(  597) = (   0.3750000   0.0910066   0.0493045), wk =   0.0034722
        k(  598) = (   0.3750000   0.0910066   0.0986090), wk =   0.0034722
        k(  599) = (   0.3750000   0.0910066   0.1479135), wk =   0.0034722
        k(  600) = (   0.3750000   0.0910066  -0.1972180), wk =   0.0017361
        k(  601) = (   0.3750000   0.1365099   0.0000000), wk =   0.0017361
        k(  602) = (   0.3750000   0.1365099   0.0493045), wk =   0.0034722
        k(  603) = (   0.3750000   0.1365099   0.0986090), wk =   0.0034722
        k(  604) = (   0.3750000   0.1365099   0.1479135), wk =   0.0034722
        k(  605) = (   0.3750000   0.1365099  -0.1972180), wk =   0.0017361
        k(  606) = (   0.3750000   0.1820132   0.0000000), wk =   0.0017361
        k(  607) = (   0.3750000   0.1820132   0.0493045), wk =   0.0034722
        k(  608) = (   0.3750000   0.1820132   0.0986090), wk =   0.0034722
        k(  609) = (   0.3750000   0.1820132   0.1479135), wk =   0.0034722
        k(  610) = (   0.3750000   0.1820132  -0.1972180), wk =   0.0017361
        k(  611) = (   0.3750000   0.2275165   0.0000000), wk =   0.0017361
        k(  612) = (   0.3750000   0.2275165   0.0493045), wk =   0.0034722
        k(  613) = (   0.3750000   0.2275165   0.0986090), wk =   0.0034722
        k(  614) = (   0.3750000   0.2275165   0.1479135), wk =   0.0034722
        k(  615) = (   0.3750000   0.2275165  -0.1972180), wk =   0.0017361
        k(  616) = (   0.3750000   0.2730198   0.0000000), wk =   0.0017361
        k(  617) = (   0.3750000   0.2730198   0.0493045), wk =   0.0034722
        k(  618) = (   0.3750000   0.2730198   0.0986090), wk =   0.0034722
        k(  619) = (   0.3750000   0.2730198   0.1479135), wk =   0.0034722
        k(  620) = (   0.3750000   0.2730198  -0.1972180), wk =   0.0017361
        k(  621) = (   0.3750000   0.3185232   0.0000000), wk =   0.0017361
        k(  622) = (   0.3750000   0.3185232   0.0493045), wk =   0.0034722
        k(  623) = (   0.3750000   0.3185232   0.0986090), wk =   0.0034722
        k(  624) = (   0.3750000   0.3185232   0.1479135), wk =   0.0034722
        k(  625) = (   0.3750000   0.3185232  -0.1972180), wk =   0.0017361
        k(  626) = (   0.3750000   0.3640265   0.0000000), wk =   0.0017361
        k(  627) = (   0.3750000   0.3640265   0.0493045), wk =   0.0034722
        k(  628) = (   0.3750000   0.3640265   0.0986090), wk =   0.0034722
        k(  629) = (   0.3750000   0.3640265   0.1479135), wk =   0.0034722
        k(  630) = (   0.3750000   0.3640265  -0.1972180), wk =   0.0017361
        k(  631) = (   0.3750000   0.4095298   0.0000000), wk =   0.0017361
        k(  632) = (   0.3750000   0.4095298   0.0493045), wk =   0.0034722
        k(  633) = (   0.3750000   0.4095298   0.0986090), wk =   0.0034722
        k(  634) = (   0.3750000   0.4095298   0.1479135), wk =   0.0034722
        k(  635) = (   0.3750000   0.4095298  -0.1972180), wk =   0.0017361
        k(  636) = (   0.3750000   0.4550331   0.0000000), wk =   0.0017361
        k(  637) = (   0.3750000   0.4550331   0.0493045), wk =   0.0034722
        k(  638) = (   0.3750000   0.4550331   0.0986090), wk =   0.0034722
        k(  639) = (   0.3750000   0.4550331   0.1479135), wk =   0.0034722
        k(  640) = (   0.3750000   0.4550331  -0.1972180), wk =   0.0017361
        k(  641) = (   0.3750000   0.5005364   0.0000000), wk =   0.0017361
        k(  642) = (   0.3750000   0.5005364   0.0493045), wk =   0.0034722
        k(  643) = (   0.3750000   0.5005364   0.0986090), wk =   0.0034722
        k(  644) = (   0.3750000   0.5005364   0.1479135), wk =   0.0034722
        k(  645) = (   0.3750000   0.5005364  -0.1972180), wk =   0.0017361
        k(  646) = (   0.3750000  -0.5460397   0.0000000), wk =   0.0008681
        k(  647) = (   0.3750000  -0.5460397   0.0493045), wk =   0.0017361
        k(  648) = (   0.3750000  -0.5460397   0.0986090), wk =   0.0017361
        k(  649) = (   0.3750000  -0.5460397   0.1479135), wk =   0.0017361
        k(  650) = (   0.3750000  -0.5460397  -0.1972180), wk =   0.0008681
        k(  651) = (   0.4166667   0.0000000   0.0000000), wk =   0.0008681
        k(  652) = (   0.4166667   0.0000000   0.0493045), wk =   0.0017361
        k(  653) = (   0.4166667   0.0000000   0.0986090), wk =   0.0017361
        k(  654) = (   0.4166667   0.0000000   0.1479135), wk =   0.0017361
        k(  655) = (   0.4166667   0.0000000  -0.1972180), wk =   0.0008681
        k(  656) = (   0.4166667   0.0455033   0.0000000), wk =   0.0017361
        k(  657) = (   0.4166667   0.0455033   0.0493045), wk =   0.0034722
        k(  658) = (   0.4166667   0.0455033   0.0986090), wk =   0.0034722
        k(  659) = (   0.4166667   0.0455033   0.1479135), wk =   0.0034722
        k(  660) = (   0.4166667   0.0455033  -0.1972180), wk =   0.0017361
        k(  661) = (   0.4166667   0.0910066   0.0000000), wk =   0.0017361
        k(  662) = (   0.4166667   0.0910066   0.0493045), wk =   0.0034722
        k(  663) = (   0.4166667   0.0910066   0.0986090), wk =   0.0034722
        k(  664) = (   0.4166667   0.0910066   0.1479135), wk =   0.0034722
        k(  665) = (   0.4166667   0.0910066  -0.1972180), wk =   0.0017361
        k(  666) = (   0.4166667   0.1365099   0.0000000), wk =   0.0017361
        k(  667) = (   0.4166667   0.1365099   0.0493045), wk =   0.0034722
        k(  668) = (   0.4166667   0.1365099   0.0986090), wk =   0.0034722
        k(  669) = (   0.4166667   0.1365099   0.1479135), wk =   0.0034722
        k(  670) = (   0.4166667   0.1365099  -0.1972180), wk =   0.0017361
        k(  671) = (   0.4166667   0.1820132   0.0000000), wk =   0.0017361
        k(  672) = (   0.4166667   0.1820132   0.0493045), wk =   0.0034722
        k(  673) = (   0.4166667   0.1820132   0.0986090), wk =   0.0034722
        k(  674) = (   0.4166667   0.1820132   0.1479135), wk =   0.0034722
        k(  675) = (   0.4166667   0.1820132  -0.1972180), wk =   0.0017361
        k(  676) = (   0.4166667   0.2275165   0.0000000), wk =   0.0017361
        k(  677) = (   0.4166667   0.2275165   0.0493045), wk =   0.0034722
        k(  678) = (   0.4166667   0.2275165   0.0986090), wk =   0.0034722
        k(  679) = (   0.4166667   0.2275165   0.1479135), wk =   0.0034722
        k(  680) = (   0.4166667   0.2275165  -0.1972180), wk =   0.0017361
        k(  681) = (   0.4166667   0.2730198   0.0000000), wk =   0.0017361
        k(  682) = (   0.4166667   0.2730198   0.0493045), wk =   0.0034722
        k(  683) = (   0.4166667   0.2730198   0.0986090), wk =   0.0034722
        k(  684) = (   0.4166667   0.2730198   0.1479135), wk =   0.0034722
        k(  685) = (   0.4166667   0.2730198  -0.1972180), wk =   0.0017361
        k(  686) = (   0.4166667   0.3185232   0.0000000), wk =   0.0017361
        k(  687) = (   0.4166667   0.3185232   0.0493045), wk =   0.0034722
        k(  688) = (   0.4166667   0.3185232   0.0986090), wk =   0.0034722
        k(  689) = (   0.4166667   0.3185232   0.1479135), wk =   0.0034722
        k(  690) = (   0.4166667   0.3185232  -0.1972180), wk =   0.0017361
        k(  691) = (   0.4166667   0.3640265   0.0000000), wk =   0.0017361
        k(  692) = (   0.4166667   0.3640265   0.0493045), wk =   0.0034722
        k(  693) = (   0.4166667   0.3640265   0.0986090), wk =   0.0034722
        k(  694) = (   0.4166667   0.3640265   0.1479135), wk =   0.0034722
        k(  695) = (   0.4166667   0.3640265  -0.1972180), wk =   0.0017361
        k(  696) = (   0.4166667   0.4095298   0.0000000), wk =   0.0017361
        k(  697) = (   0.4166667   0.4095298   0.0493045), wk =   0.0034722
        k(  698) = (   0.4166667   0.4095298   0.0986090), wk =   0.0034722
        k(  699) = (   0.4166667   0.4095298   0.1479135), wk =   0.0034722
        k(  700) = (   0.4166667   0.4095298  -0.1972180), wk =   0.0017361
        k(  701) = (   0.4166667   0.4550331   0.0000000), wk =   0.0017361
        k(  702) = (   0.4166667   0.4550331   0.0493045), wk =   0.0034722
        k(  703) = (   0.4166667   0.4550331   0.0986090), wk =   0.0034722
        k(  704) = (   0.4166667   0.4550331   0.1479135), wk =   0.0034722
        k(  705) = (   0.4166667   0.4550331  -0.1972180), wk =   0.0017361
        k(  706) = (   0.4166667   0.5005364   0.0000000), wk =   0.0017361
        k(  707) = (   0.4166667   0.5005364   0.0493045), wk =   0.0034722
        k(  708) = (   0.4166667   0.5005364   0.0986090), wk =   0.0034722
        k(  709) = (   0.4166667   0.5005364   0.1479135), wk =   0.0034722
        k(  710) = (   0.4166667   0.5005364  -0.1972180), wk =   0.0017361
        k(  711) = (   0.4166667  -0.5460397   0.0000000), wk =   0.0008681
        k(  712) = (   0.4166667  -0.5460397   0.0493045), wk =   0.0017361
        k(  713) = (   0.4166667  -0.5460397   0.0986090), wk =   0.0017361
        k(  714) = (   0.4166667  -0.5460397   0.1479135), wk =   0.0017361
        k(  715) = (   0.4166667  -0.5460397  -0.1972180), wk =   0.0008681
        k(  716) = (   0.4583333   0.0000000   0.0000000), wk =   0.0008681
        k(  717) = (   0.4583333   0.0000000   0.0493045), wk =   0.0017361
        k(  718) = (   0.4583333   0.0000000   0.0986090), wk =   0.0017361
        k(  719) = (   0.4583333   0.0000000   0.1479135), wk =   0.0017361
        k(  720) = (   0.4583333   0.0000000  -0.1972180), wk =   0.0008681
        k(  721) = (   0.4583333   0.0455033   0.0000000), wk =   0.0017361
        k(  722) = (   0.4583333   0.0455033   0.0493045), wk =   0.0034722
        k(  723) = (   0.4583333   0.0455033   0.0986090), wk =   0.0034722
        k(  724) = (   0.4583333   0.0455033   0.1479135), wk =   0.0034722
        k(  725) = (   0.4583333   0.0455033  -0.1972180), wk =   0.0017361
        k(  726) = (   0.4583333   0.0910066   0.0000000), wk =   0.0017361
        k(  727) = (   0.4583333   0.0910066   0.0493045), wk =   0.0034722
        k(  728) = (   0.4583333   0.0910066   0.0986090), wk =   0.0034722
        k(  729) = (   0.4583333   0.0910066   0.1479135), wk =   0.0034722
        k(  730) = (   0.4583333   0.0910066  -0.1972180), wk =   0.0017361
        k(  731) = (   0.4583333   0.1365099   0.0000000), wk =   0.0017361
        k(  732) = (   0.4583333   0.1365099   0.0493045), wk =   0.0034722
        k(  733) = (   0.4583333   0.1365099   0.0986090), wk =   0.0034722
        k(  734) = (   0.4583333   0.1365099   0.1479135), wk =   0.0034722
        k(  735) = (   0.4583333   0.1365099  -0.1972180), wk =   0.0017361
        k(  736) = (   0.4583333   0.1820132   0.0000000), wk =   0.0017361
        k(  737) = (   0.4583333   0.1820132   0.0493045), wk =   0.0034722
        k(  738) = (   0.4583333   0.1820132   0.0986090), wk =   0.0034722
        k(  739) = (   0.4583333   0.1820132   0.1479135), wk =   0.0034722
        k(  740) = (   0.4583333   0.1820132  -0.1972180), wk =   0.0017361
        k(  741) = (   0.4583333   0.2275165   0.0000000), wk =   0.0017361
        k(  742) = (   0.4583333   0.2275165   0.0493045), wk =   0.0034722
        k(  743) = (   0.4583333   0.2275165   0.0986090), wk =   0.0034722
        k(  744) = (   0.4583333   0.2275165   0.1479135), wk =   0.0034722
        k(  745) = (   0.4583333   0.2275165  -0.1972180), wk =   0.0017361
        k(  746) = (   0.4583333   0.2730198   0.0000000), wk =   0.0017361
        k(  747) = (   0.4583333   0.2730198   0.0493045), wk =   0.0034722
        k(  748) = (   0.4583333   0.2730198   0.0986090), wk =   0.0034722
        k(  749) = (   0.4583333   0.2730198   0.1479135), wk =   0.0034722
        k(  750) = (   0.4583333   0.2730198  -0.1972180), wk =   0.0017361
        k(  751) = (   0.4583333   0.3185232   0.0000000), wk =   0.0017361
        k(  752) = (   0.4583333   0.3185232   0.0493045), wk =   0.0034722
        k(  753) = (   0.4583333   0.3185232   0.0986090), wk =   0.0034722
        k(  754) = (   0.4583333   0.3185232   0.1479135), wk =   0.0034722
        k(  755) = (   0.4583333   0.3185232  -0.1972180), wk =   0.0017361
        k(  756) = (   0.4583333   0.3640265   0.0000000), wk =   0.0017361
        k(  757) = (   0.4583333   0.3640265   0.0493045), wk =   0.0034722
        k(  758) = (   0.4583333   0.3640265   0.0986090), wk =   0.0034722
        k(  759) = (   0.4583333   0.3640265   0.1479135), wk =   0.0034722
        k(  760) = (   0.4583333   0.3640265  -0.1972180), wk =   0.0017361
        k(  761) = (   0.4583333   0.4095298   0.0000000), wk =   0.0017361
        k(  762) = (   0.4583333   0.4095298   0.0493045), wk =   0.0034722
        k(  763) = (   0.4583333   0.4095298   0.0986090), wk =   0.0034722
        k(  764) = (   0.4583333   0.4095298   0.1479135), wk =   0.0034722
        k(  765) = (   0.4583333   0.4095298  -0.1972180), wk =   0.0017361
        k(  766) = (   0.4583333   0.4550331   0.0000000), wk =   0.0017361
        k(  767) = (   0.4583333   0.4550331   0.0493045), wk =   0.0034722
        k(  768) = (   0.4583333   0.4550331   0.0986090), wk =   0.0034722
        k(  769) = (   0.4583333   0.4550331   0.1479135), wk =   0.0034722
        k(  770) = (   0.4583333   0.4550331  -0.1972180), wk =   0.0017361
        k(  771) = (   0.4583333   0.5005364   0.0000000), wk =   0.0017361
        k(  772) = (   0.4583333   0.5005364   0.0493045), wk =   0.0034722
        k(  773) = (   0.4583333   0.5005364   0.0986090), wk =   0.0034722
        k(  774) = (   0.4583333   0.5005364   0.1479135), wk =   0.0034722
        k(  775) = (   0.4583333   0.5005364  -0.1972180), wk =   0.0017361
        k(  776) = (   0.4583333  -0.5460397   0.0000000), wk =   0.0008681
        k(  777) = (   0.4583333  -0.5460397   0.0493045), wk =   0.0017361
        k(  778) = (   0.4583333  -0.5460397   0.0986090), wk =   0.0017361
        k(  779) = (   0.4583333  -0.5460397   0.1479135), wk =   0.0017361
        k(  780) = (   0.4583333  -0.5460397  -0.1972180), wk =   0.0008681
        k(  781) = (  -0.5000000   0.0000000   0.0000000), wk =   0.0004340
        k(  782) = (  -0.5000000   0.0000000   0.0493045), wk =   0.0008681
        k(  783) = (  -0.5000000   0.0000000   0.0986090), wk =   0.0008681
        k(  784) = (  -0.5000000   0.0000000   0.1479135), wk =   0.0008681
        k(  785) = (  -0.5000000   0.0000000  -0.1972180), wk =   0.0004340
        k(  786) = (  -0.5000000   0.0455033   0.0000000), wk =   0.0008681
        k(  787) = (  -0.5000000   0.0455033   0.0493045), wk =   0.0017361
        k(  788) = (  -0.5000000   0.0455033   0.0986090), wk =   0.0017361
        k(  789) = (  -0.5000000   0.0455033   0.1479135), wk =   0.0017361
        k(  790) = (  -0.5000000   0.0455033  -0.1972180), wk =   0.0008681
        k(  791) = (  -0.5000000   0.0910066   0.0000000), wk =   0.0008681
        k(  792) = (  -0.5000000   0.0910066   0.0493045), wk =   0.0017361
        k(  793) = (  -0.5000000   0.0910066   0.0986090), wk =   0.0017361
        k(  794) = (  -0.5000000   0.0910066   0.1479135), wk =   0.0017361
        k(  795) = (  -0.5000000   0.0910066  -0.1972180), wk =   0.0008681
        k(  796) = (  -0.5000000   0.1365099   0.0000000), wk =   0.0008681
        k(  797) = (  -0.5000000   0.1365099   0.0493045), wk =   0.0017361
        k(  798) = (  -0.5000000   0.1365099   0.0986090), wk =   0.0017361
        k(  799) = (  -0.5000000   0.1365099   0.1479135), wk =   0.0017361
        k(  800) = (  -0.5000000   0.1365099  -0.1972180), wk =   0.0008681
        k(  801) = (  -0.5000000   0.1820132   0.0000000), wk =   0.0008681
        k(  802) = (  -0.5000000   0.1820132   0.0493045), wk =   0.0017361
        k(  803) = (  -0.5000000   0.1820132   0.0986090), wk =   0.0017361
        k(  804) = (  -0.5000000   0.1820132   0.1479135), wk =   0.0017361
        k(  805) = (  -0.5000000   0.1820132  -0.1972180), wk =   0.0008681
        k(  806) = (  -0.5000000   0.2275165   0.0000000), wk =   0.0008681
        k(  807) = (  -0.5000000   0.2275165   0.0493045), wk =   0.0017361
        k(  808) = (  -0.5000000   0.2275165   0.0986090), wk =   0.0017361
        k(  809) = (  -0.5000000   0.2275165   0.1479135), wk =   0.0017361
        k(  810) = (  -0.5000000   0.2275165  -0.1972180), wk =   0.0008681
        k(  811) = (  -0.5000000   0.2730198   0.0000000), wk =   0.0008681
        k(  812) = (  -0.5000000   0.2730198   0.0493045), wk =   0.0017361
        k(  813) = (  -0.5000000   0.2730198   0.0986090), wk =   0.0017361
        k(  814) = (  -0.5000000   0.2730198   0.1479135), wk =   0.0017361
        k(  815) = (  -0.5000000   0.2730198  -0.1972180), wk =   0.0008681
        k(  816) = (  -0.5000000   0.3185232   0.0000000), wk =   0.0008681
        k(  817) = (  -0.5000000   0.3185232   0.0493045), wk =   0.0017361
        k(  818) = (  -0.5000000   0.3185232   0.0986090), wk =   0.0017361
        k(  819) = (  -0.5000000   0.3185232   0.1479135), wk =   0.0017361
        k(  820) = (  -0.5000000   0.3185232  -0.1972180), wk =   0.0008681
        k(  821) = (  -0.5000000   0.3640265   0.0000000), wk =   0.0008681
        k(  822) = (  -0.5000000   0.3640265   0.0493045), wk =   0.0017361
        k(  823) = (  -0.5000000   0.3640265   0.0986090), wk =   0.0017361
        k(  824) = (  -0.5000000   0.3640265   0.1479135), wk =   0.0017361
        k(  825) = (  -0.5000000   0.3640265  -0.1972180), wk =   0.0008681
        k(  826) = (  -0.5000000   0.4095298   0.0000000), wk =   0.0008681
        k(  827) = (  -0.5000000   0.4095298   0.0493045), wk =   0.0017361
        k(  828) = (  -0.5000000   0.4095298   0.0986090), wk =   0.0017361
        k(  829) = (  -0.5000000   0.4095298   0.1479135), wk =   0.0017361
        k(  830) = (  -0.5000000   0.4095298  -0.1972180), wk =   0.0008681
        k(  831) = (  -0.5000000   0.4550331   0.0000000), wk =   0.0008681
        k(  832) = (  -0.5000000   0.4550331   0.0493045), wk =   0.0017361
        k(  833) = (  -0.5000000   0.4550331   0.0986090), wk =   0.0017361
        k(  834) = (  -0.5000000   0.4550331   0.1479135), wk =   0.0017361
        k(  835) = (  -0.5000000   0.4550331  -0.1972180), wk =   0.0008681
        k(  836) = (  -0.5000000   0.5005364   0.0000000), wk =   0.0008681
        k(  837) = (  -0.5000000   0.5005364   0.0493045), wk =   0.0017361
        k(  838) = (  -0.5000000   0.5005364   0.0986090), wk =   0.0017361
        k(  839) = (  -0.5000000   0.5005364   0.1479135), wk =   0.0017361
        k(  840) = (  -0.5000000   0.5005364  -0.1972180), wk =   0.0008681
        k(  841) = (  -0.5000000  -0.5460397   0.0000000), wk =   0.0004340
        k(  842) = (  -0.5000000  -0.5460397   0.0493045), wk =   0.0008681
        k(  843) = (  -0.5000000  -0.5460397   0.0986090), wk =   0.0008681
        k(  844) = (  -0.5000000  -0.5460397   0.1479135), wk =   0.0008681
        k(  845) = (  -0.5000000  -0.5460397  -0.1972180), wk =   0.0004340

                       cryst. coord.
        k(    1) = (   0.0000000   0.0000000   0.0000000), wk =   0.0004340
        k(    2) = (   0.0000000   0.0000000   0.1250000), wk =   0.0008681
        k(    3) = (   0.0000000   0.0000000   0.2500000), wk =   0.0008681
        k(    4) = (   0.0000000   0.0000000   0.3750000), wk =   0.0008681
        k(    5) = (   0.0000000   0.0000000  -0.5000000), wk =   0.0004340
        k(    6) = (   0.0000000   0.0416667   0.0000000), wk =   0.0008681
        k(    7) = (   0.0000000   0.0416667   0.1250000), wk =   0.0017361
        k(    8) = (   0.0000000   0.0416667   0.2500000), wk =   0.0017361
        k(    9) = (   0.0000000   0.0416667   0.3750000), wk =   0.0017361
        k(   10) = (   0.0000000   0.0416667  -0.5000000), wk =   0.0008681
        k(   11) = (   0.0000000   0.0833333   0.0000000), wk =   0.0008681
        k(   12) = (   0.0000000   0.0833333   0.1250000), wk =   0.0017361
        k(   13) = (   0.0000000   0.0833333   0.2500000), wk =   0.0017361
        k(   14) = (   0.0000000   0.0833333   0.3750000), wk =   0.0017361
        k(   15) = (   0.0000000   0.0833333  -0.5000000), wk =   0.0008681
        k(   16) = (   0.0000000   0.1250000   0.0000000), wk =   0.0008681
        k(   17) = (   0.0000000   0.1250000   0.1250000), wk =   0.0017361
        k(   18) = (   0.0000000   0.1250000   0.2500000), wk =   0.0017361
        k(   19) = (   0.0000000   0.1250000   0.3750000), wk =   0.0017361
        k(   20) = (   0.0000000   0.1250000  -0.5000000), wk =   0.0008681
        k(   21) = (   0.0000000   0.1666667   0.0000000), wk =   0.0008681
        k(   22) = (   0.0000000   0.1666667   0.1250000), wk =   0.0017361
        k(   23) = (   0.0000000   0.1666667   0.2500000), wk =   0.0017361
        k(   24) = (   0.0000000   0.1666667   0.3750000), wk =   0.0017361
        k(   25) = (   0.0000000   0.1666667  -0.5000000), wk =   0.0008681
        k(   26) = (   0.0000000   0.2083333   0.0000000), wk =   0.0008681
        k(   27) = (   0.0000000   0.2083333   0.1250000), wk =   0.0017361
        k(   28) = (   0.0000000   0.2083333   0.2500000), wk =   0.0017361
        k(   29) = (   0.0000000   0.2083333   0.3750000), wk =   0.0017361
        k(   30) = (   0.0000000   0.2083333  -0.5000000), wk =   0.0008681
        k(   31) = (   0.0000000   0.2500000   0.0000000), wk =   0.0008681
        k(   32) = (   0.0000000   0.2500000   0.1250000), wk =   0.0017361
        k(   33) = (   0.0000000   0.2500000   0.2500000), wk =   0.0017361
        k(   34) = (   0.0000000   0.2500000   0.3750000), wk =   0.0017361
        k(   35) = (   0.0000000   0.2500000  -0.5000000), wk =   0.0008681
        k(   36) = (   0.0000000   0.2916667   0.0000000), wk =   0.0008681
        k(   37) = (   0.0000000   0.2916667   0.1250000), wk =   0.0017361
        k(   38) = (   0.0000000   0.2916667   0.2500000), wk =   0.0017361
        k(   39) = (   0.0000000   0.2916667   0.3750000), wk =   0.0017361
        k(   40) = (   0.0000000   0.2916667  -0.5000000), wk =   0.0008681
        k(   41) = (   0.0000000   0.3333333   0.0000000), wk =   0.0008681
[...]
     1.0000   1.0000   1.0000   1.0000   1.0000   1.0000   1.0000   1.0000
     0.0000   0.0000   0.0000   0.0000   0.0000   0.0000   0.0000   0.0000
     0.0000   0.0000   0.0000   0.0000   0.0000   0.0000   0.0000   0.0000
     0.0000   0.0000   0.0000   0.0000   0.0000   0.0000   0.0000   0.0000
     0.0000   0.0000   0.0000   0.0000   0.0000   0.0000

          k =-0.5000 0.4550 0.1479 (  4102 PWs)   bands (ev):

   -13.7574 -13.7574 -13.7542 -13.7542 -13.7340 -13.7340 -13.7309 -13.7309
   -13.7228 -13.7228 -13.7175 -13.7175 -13.7007 -13.7007 -13.6950 -13.6950
   -13.6783 -13.6783 -13.6731 -13.6731  -4.8736  -4.8736  -4.7864  -4.7864
     0.6318   0.6318   1.0658   1.0658   3.0628   3.0628   3.3634   3.3634
     4.0152   4.0152   4.4467   4.4467   5.8806   5.8806   6.2960   6.2960
     9.8356   9.8356  10.4019  10.4019  11.9974  11.9974  12.0969  12.0969
    13.5745  13.5745  13.8187  13.8187  14.1462  14.1462  14.8636  14.8636
    16.8094  16.8094  17.5293  17.5293  18.1656  18.1656  18.4660  18.4660
    18.9751  18.9751  19.2950  19.2950  20.0572  20.0572

     occupation numbers 
     1.0000   1.0000   1.0000   1.0000   1.0000   1.0000   1.0000   1.0000
     1.0000   1.0000   1.0000   1.0000   1.0000   1.0000   1.0000   1.0000
     1.0000   1.0000   1.0000   1.0000   1.0000   1.0000   1.0000   1.0000
     1.0000   1.0000   1.0000   1.0000   1.0000   1.0000   1.0000   1.0000
     1.0000   1.0000   1.0000   1.0000   1.0000   1.0000   1.0000   1.0000
     0.0000   0.0000   0.0000   0.0000   0.0000   0.0000   0.0000   0.0000
     0.0000   0.0000   0.0000   0.0000   0.0000   0.0000   0.0000   0.0000
     0.0000   0.0000   0.0000   0.0000   0.0000   0.0000   0.0000   0.0000
     0.0000   0.0000   0.0000   0.0000   0.0000   0.0000

          k =-0.5000 0.4550-0.1972 (  4100 PWs)   bands (ev):

   -13.7570 -13.7570 -13.7546 -13.7546 -13.7337 -13.7337 -13.7314 -13.7314
   -13.7225 -13.7225 -13.7177 -13.7177 -13.7002 -13.7002 -13.6954 -13.6954
   -13.6781 -13.6781 -13.6733 -13.6733  -4.8734  -4.8734  -4.7866  -4.7866
     0.6341   0.6341   1.0605   1.0605   3.1706   3.1706   3.2482   3.2482
     4.0948   4.0948   4.3248   4.3248   6.0408   6.0408   6.2065   6.2065
     9.8738   9.8738  10.2926  10.2926  11.9843  11.9843  12.0770  12.0770
    13.6369  13.6369  13.8052  13.8052  14.4964  14.4964  14.6302  14.6302
    16.8967  16.8967  17.3505  17.3505  18.2006  18.2006  18.3466  18.3466
    18.9379  18.9379  19.2951  19.2951  20.1413  20.1413

     occupation numbers 
     1.0000   1.0000   1.0000   1.0000   1.0000   1.0000   1.0000   1.0000
     1.0000   1.0000   1.0000   1.0000   1.0000   1.0000   1.0000   1.0000
     1.0000   1.0000   1.0000   1.0000   1.0000   1.0000   1.0000   1.0000
     1.0000   1.0000   1.0000   1.0000   1.0000   1.0000   1.0000   1.0000
     1.0000   1.0000   1.0000   1.0000   1.0000   1.0000   1.0000   1.0000
     0.0000   0.0000   0.0000   0.0000   0.0000   0.0000   0.0000   0.0000
     0.0000   0.0000   0.0000   0.0000   0.0000   0.0000   0.0000   0.0000
     0.0000   0.0000   0.0000   0.0000   0.0000   0.0000   0.0000   0.0000
     0.0000   0.0000   0.0000   0.0000   0.0000   0.0000

          k =-0.5000 0.5005 0.0000 (  4076 PWs)   bands (ev):

   -13.7594 -13.7594 -13.7536 -13.7536 -13.7347 -13.7347 -13.7275 -13.7275
   -13.7241 -13.7241 -13.7170 -13.7170 -13.7022 -13.7022 -13.6940 -13.6940
   -13.6782 -13.6782 -13.6730 -13.6730  -4.8323  -4.8323  -4.7863  -4.7863
     0.7397   0.7397   1.0122   1.0122   2.8179   2.8179   3.4040   3.4040
     4.0472   4.0472   4.6682   4.6682   5.3740   5.3740   6.2672   6.2672
    10.0486  10.0486  10.6483  10.6483  12.1349  12.1349  12.2971  12.2971
    13.0207  13.0207  13.8550  13.8550  14.0409  14.0409  14.6514  14.6514
    17.2233  17.2233  17.6574  17.6574  17.9337  17.9337  19.4225  19.4225
    19.4547  19.4547  19.8067  19.8067  20.1057  20.1057

     occupation numbers 
     1.0000   1.0000   1.0000   1.0000   1.0000   1.0000   1.0000   1.0000
     1.0000   1.0000   1.0000   1.0000   1.0000   1.0000   1.0000   1.0000
     1.0000   1.0000   1.0000   1.0000   1.0000   1.0000   1.0000   1.0000
     1.0000   1.0000   1.0000   1.0000   1.0000   1.0000   1.0000   1.0000
     1.0000   1.0000   1.0000   1.0000   1.0000   1.0000   1.0000   1.0000
     0.0000   0.0000   0.0000   0.0000   0.0000   0.0000   0.0000   0.0000
     0.0000   0.0000   0.0000   0.0000   0.0000   0.0000   0.0000   0.0000
     0.0000   0.0000   0.0000   0.0000   0.0000   0.0000   0.0000   0.0000
     0.0000   0.0000   0.0000   0.0000   0.0000   0.0000

          k =-0.5000 0.5005 0.0493 (  4090 PWs)   bands (ev):

   -13.7592 -13.7592 -13.7539 -13.7539 -13.7345 -13.7345 -13.7282 -13.7282
   -13.7235 -13.7235 -13.7173 -13.7173 -13.7018 -13.7018 -13.6942 -13.6942
   -13.6780 -13.6780 -13.6731 -13.6731  -4.8322  -4.8322  -4.7864  -4.7864
     0.7418   0.7418   1.0068   1.0068   2.8443   2.8443   3.4212   3.4212
     3.9856   3.9856   4.6094   4.6094   5.4632   5.4632   6.2861   6.2861
    10.0110  10.0110  10.5848  10.5848  12.1301  12.1301  12.2666  12.2666
    13.1520  13.1520  13.8744  13.8744  14.0413  14.0413  14.7246  14.7246
    17.1094  17.1094  17.6450  17.6450  17.9678  17.9678  19.2922  19.2922
    19.4215  19.4215  19.7136  19.7136  20.0259  20.0259

     occupation numbers 
     1.0000   1.0000   1.0000   1.0000   1.0000   1.0000   1.0000   1.0000
     1.0000   1.0000   1.0000   1.0000   1.0000   1.0000   1.0000   1.0000
     1.0000   1.0000   1.0000   1.0000   1.0000   1.0000   1.0000   1.0000
     1.0000   1.0000   1.0000   1.0000   1.0000   1.0000   1.0000   1.0000
     1.0000   1.0000   1.0000   1.0000   1.0000   1.0000   1.0000   1.0000
     0.0000   0.0000   0.0000   0.0000   0.0000   0.0000   0.0000   0.0000
     0.0000   0.0000   0.0000   0.0000   0.0000   0.0000   0.0000   0.0000
     0.0000   0.0000   0.0000   0.0000   0.0000   0.0000   0.0000   0.0000
     0.0000   0.0000   0.0000   0.0000   0.0000   0.0000

          k =-0.5000 0.5005 0.0986 (  4092 PWs)   bands (ev):

   -13.7586 -13.7586 -13.7545 -13.7545 -13.7341 -13.7341 -13.7294 -13.7294
   -13.7225 -13.7225 -13.7178 -13.7178 -13.7009 -13.7009 -13.6950 -13.6950
   -13.6775 -13.6775 -13.6735 -13.6735  -4.8319  -4.8319  -4.7867  -4.7867
     0.7470   0.7470   0.9935   0.9935   2.9218   2.9218   3.4393   3.4393
     3.8818   3.8818   4.4574   4.4574   5.6758   5.6758   6.3092   6.3092
     9.9393   9.9393  10.4241  10.4241  12.1177  12.1177  12.2103  12.2103
    13.4721  13.4721  13.9424  13.9424  14.0292  14.0292  14.8678  14.8678
    16.8963  16.8963  17.5951  17.5951  18.0205  18.0205  18.8536  18.8536
    19.3651  19.3651  19.6097  19.6097  19.9934  19.9934

     occupation numbers 
     1.0000   1.0000   1.0000   1.0000   1.0000   1.0000   1.0000   1.0000
     1.0000   1.0000   1.0000   1.0000   1.0000   1.0000   1.0000   1.0000
     1.0000   1.0000   1.0000   1.0000   1.0000   1.0000   1.0000   1.0000
     1.0000   1.0000   1.0000   1.0000   1.0000   1.0000   1.0000   1.0000
     1.0000   1.0000   1.0000   1.0000   1.0000   1.0000   1.0000   1.0000
     0.0000   0.0000   0.0000   0.0000   0.0000   0.0000   0.0000   0.0000
     0.0000   0.0000   0.0000   0.0000   0.0000   0.0000   0.0000   0.0000
     0.0000   0.0000   0.0000   0.0000   0.0000   0.0000   0.0000   0.0000
     0.0000   0.0000   0.0000   0.0000   0.0000   0.0000

          k =-0.5000 0.5005 0.1479 (  4090 PWs)   bands (ev):

   -13.7578 -13.7578 -13.7553 -13.7553 -13.7334 -13.7334 -13.7308 -13.7308
   -13.7215 -13.7215 -13.7184 -13.7184 -13.6997 -13.6997 -13.6960 -13.6960
   -13.6770 -13.6770 -13.6739 -13.6739  -4.8316  -4.8316  -4.7870  -4.7870
     0.7529   0.7529   0.9798   0.9798   3.0439   3.0439   3.3636   3.3636
     3.8914   3.8914   4.2654   4.2654   5.9208   5.9208   6.2745   6.2745
     9.9081   9.9081  10.2368  10.2368  12.1033  12.1033  12.1711  12.1711
    13.7690  13.7690  13.9837  13.9837  14.1664  14.1664  14.8572  14.8572
    16.8481  16.8481  17.4422  17.4422  18.0674  18.0674  18.3989  18.3989
    19.3235  19.3235  19.5727  19.5727  20.0415  20.0415

     occupation numbers 
     1.0000   1.0000   1.0000   1.0000   1.0000   1.0000   1.0000   1.0000
     1.0000   1.0000   1.0000   1.0000   1.0000   1.0000   1.0000   1.0000
     1.0000   1.0000   1.0000   1.0000   1.0000   1.0000   1.0000   1.0000
     1.0000   1.0000   1.0000   1.0000   1.0000   1.0000   1.0000   1.0000
     1.0000   1.0000   1.0000   1.0000   1.0000   1.0000   1.0000   1.0000
     0.0000   0.0000   0.0000   0.0000   0.0000   0.0000   0.0000   0.0000
     0.0000   0.0000   0.0000   0.0000   0.0000   0.0000   0.0000   0.0000
     0.0000   0.0000   0.0000   0.0000   0.0000   0.0000   0.0000   0.0000
     0.0000   0.0000   0.0000   0.0000   0.0000   0.0000

          k =-0.5000 0.5005-0.1972 (  4080 PWs)   bands (ev):

   -13.7571 -13.7571 -13.7559 -13.7559 -13.7329 -13.7329 -13.7316 -13.7316
   -13.7211 -13.7211 -13.7187 -13.7187 -13.6990 -13.6990 -13.6966 -13.6966
   -13.6766 -13.6766 -13.6742 -13.6742  -4.8314  -4.8314  -4.7872  -4.7872
     0.7556   0.7556   0.9739   0.9739   3.1702   3.1702   3.2374   3.2374
     3.9771   3.9771   4.1286   4.1286   6.0972   6.0972   6.1796   6.1796
     9.9230   9.9230  10.1350  10.1350  12.0967  12.0967  12.1586  12.1586
    13.8667  13.8667  13.9472  13.9472  14.5178  14.5178  14.6054  14.6054
    17.0077  17.0077  17.2188  17.2188  18.1392  18.1392  18.1748  18.1748
    19.3114  19.3114  19.5631  19.5631  20.1044  20.1044

     occupation numbers 
     1.0000   1.0000   1.0000   1.0000   1.0000   1.0000   1.0000   1.0000
     1.0000   1.0000   1.0000   1.0000   1.0000   1.0000   1.0000   1.0000
     1.0000   1.0000   1.0000   1.0000   1.0000   1.0000   1.0000   1.0000
     1.0000   1.0000   1.0000   1.0000   1.0000   1.0000   1.0000   1.0000
     1.0000   1.0000   1.0000   1.0000   1.0000   1.0000   1.0000   1.0000
     0.0000   0.0000   0.0000   0.0000   0.0000   0.0000   0.0000   0.0000
     0.0000   0.0000   0.0000   0.0000   0.0000   0.0000   0.0000   0.0000
     0.0000   0.0000   0.0000   0.0000   0.0000   0.0000   0.0000   0.0000
     0.0000   0.0000   0.0000   0.0000   0.0000   0.0000

          k =-0.5000-0.5460 0.0000 (  4060 PWs)   bands (ev):

   -13.7596 -13.7596 -13.7539 -13.7539 -13.7345 -13.7345 -13.7273 -13.7273
   -13.7237 -13.7237 -13.7174 -13.7174 -13.7020 -13.7020 -13.6942 -13.6942
   -13.6778 -13.6778 -13.6731 -13.6731  -4.8069  -4.8069  -4.7974  -4.7974
     0.8097   0.8097   0.9542   0.9542   2.8054   2.8054   3.3737   3.3737
     4.0581   4.0581   4.5956   4.5956   5.3847   5.3847   6.2430   6.2430
    10.1764  10.1764  10.5216  10.5216  12.1542  12.1542  12.2796  12.2796
    13.0684  13.0684  13.9098  13.9098  14.0945  14.0945  14.6685  14.6685
    17.2216  17.2216  17.5975  17.5975  17.8927  17.8927  19.6053  19.6053
    19.6880  19.6880  20.0011  20.0011  20.1325  20.1325

     occupation numbers 
     1.0000   1.0000   1.0000   1.0000   1.0000   1.0000   1.0000   1.0000
     1.0000   1.0000   1.0000   1.0000   1.0000   1.0000   1.0000   1.0000
     1.0000   1.0000   1.0000   1.0000   1.0000   1.0000   1.0000   1.0000
     1.0000   1.0000   1.0000   1.0000   1.0000   1.0000   1.0000   1.0000
     1.0000   1.0000   1.0000   1.0000   1.0000   1.0000   1.0000   1.0000
     0.0000   0.0000   0.0000   0.0000   0.0000   0.0000   0.0000   0.0000
     0.0000   0.0000   0.0000   0.0000   0.0000   0.0000   0.0000   0.0000
     0.0000   0.0000   0.0000   0.0000   0.0000   0.0000   0.0000   0.0000
     0.0000   0.0000   0.0000   0.0000   0.0000   0.0000

          k =-0.5000-0.5460 0.0493 (  4072 PWs)   bands (ev):

   -13.7594 -13.7594 -13.7541 -13.7541 -13.7344 -13.7344 -13.7280 -13.7280
   -13.7231 -13.7231 -13.7176 -13.7176 -13.7017 -13.7017 -13.6944 -13.6944
   -13.6776 -13.6776 -13.6733 -13.6733  -4.8066  -4.8066  -4.7978  -4.7978
     0.8136   0.8136   0.9468   0.9468   2.8333   2.8333   3.3934   3.3934
     3.9913   3.9913   4.5365   4.5365   5.4761   5.4761   6.2638   6.2638
    10.1235  10.1235  10.4672  10.4672  12.1577  12.1577  12.2565  12.2565
    13.1921  13.1921  13.9274  13.9274  14.0970  14.0970  14.7373  14.7373
    17.1072  17.1072  17.5898  17.5898  17.9280  17.9280  19.4044  19.4044
    19.6302  19.6302  19.9030  19.9030  20.1244  20.1244

     occupation numbers 
     1.0000   1.0000   1.0000   1.0000   1.0000   1.0000   1.0000   1.0000
     1.0000   1.0000   1.0000   1.0000   1.0000   1.0000   1.0000   1.0000
     1.0000   1.0000   1.0000   1.0000   1.0000   1.0000   1.0000   1.0000
     1.0000   1.0000   1.0000   1.0000   1.0000   1.0000   1.0000   1.0000
     1.0000   1.0000   1.0000   1.0000   1.0000   1.0000   1.0000   1.0000
     0.0000   0.0000   0.0000   0.0000   0.0000   0.0000   0.0000   0.0000
     0.0000   0.0000   0.0000   0.0000   0.0000   0.0000   0.0000   0.0000
     0.0000   0.0000   0.0000   0.0000   0.0000   0.0000   0.0000   0.0000
     0.0000   0.0000   0.0000   0.0000   0.0000   0.0000

          k =-0.5000-0.5460 0.0986 (  4088 PWs)   bands (ev):

   -13.7588 -13.7588 -13.7548 -13.7548 -13.7340 -13.7340 -13.7293 -13.7293
   -13.7220 -13.7220 -13.7181 -13.7181 -13.7007 -13.7007 -13.6952 -13.6952
   -13.6770 -13.6770 -13.6738 -13.6738  -4.8055  -4.8055  -4.7988  -4.7988
     0.8252   0.8252   0.9267   0.9267   2.9151   2.9151   3.4231   3.4231
     3.8698   3.8698   4.3842   4.3842   5.6915   5.6915   6.2926   6.2926
    10.0197  10.0197  10.3246  10.3246  12.1600  12.1600  12.2106  12.2106
    13.5093  13.5093  13.9896  13.9896  14.0843  14.0843  14.8727  14.8727
    16.8987  16.8987  17.5508  17.5508  17.9810  17.9810  18.8654  18.8654
    19.5537  19.5537  19.7917  19.7917  20.1039  20.1039

     occupation numbers 
     1.0000   1.0000   1.0000   1.0000   1.0000   1.0000   1.0000   1.0000
     1.0000   1.0000   1.0000   1.0000   1.0000   1.0000   1.0000   1.0000
     1.0000   1.0000   1.0000   1.0000   1.0000   1.0000   1.0000   1.0000
     1.0000   1.0000   1.0000   1.0000   1.0000   1.0000   1.0000   1.0000
     1.0000   1.0000   1.0000   1.0000   1.0000   1.0000   1.0000   1.0000
     0.0000   0.0000   0.0000   0.0000   0.0000   0.0000   0.0000   0.0000
     0.0000   0.0000   0.0000   0.0000   0.0000   0.0000   0.0000   0.0000
     0.0000   0.0000   0.0000   0.0000   0.0000   0.0000   0.0000   0.0000
     0.0000   0.0000   0.0000   0.0000   0.0000   0.0000

          k =-0.5000-0.5460 0.1479 (  4068 PWs)   bands (ev):

   -13.7579 -13.7579 -13.7557 -13.7557 -13.7332 -13.7332 -13.7308 -13.7308
   -13.7209 -13.7209 -13.7189 -13.7189 -13.6993 -13.6993 -13.6964 -13.6964
   -13.6762 -13.6762 -13.6745 -13.6745  -4.8040  -4.8040  -4.8004  -4.8004
     0.8445   0.8445   0.8991   0.8991   3.0441   3.0441   3.3616   3.3616
     3.8610   3.8610   4.1887   4.1887   5.9374   5.9374   6.2656   6.2656
     9.9635   9.9635  10.1490  10.1490  12.1578  12.1578  12.1750  12.1750
    13.8329  13.8329  14.0426  14.0426  14.1795  14.1795  14.8564  14.8564
    16.8625  16.8625  17.4126  17.4126  18.0234  18.0234  18.3587  18.3587
    19.5466  19.5466  19.6961  19.6961  20.1123  20.1123

     occupation numbers 
     1.0000   1.0000   1.0000   1.0000   1.0000   1.0000   1.0000   1.0000
     1.0000   1.0000   1.0000   1.0000   1.0000   1.0000   1.0000   1.0000
     1.0000   1.0000   1.0000   1.0000   1.0000   1.0000   1.0000   1.0000
     1.0000   1.0000   1.0000   1.0000   1.0000   1.0000   1.0000   1.0000
     1.0000   1.0000   1.0000   1.0000   1.0000   1.0000   1.0000   1.0000
     0.0000   0.0000   0.0000   0.0000   0.0000   0.0000   0.0000   0.0000
     0.0000   0.0000   0.0000   0.0000   0.0000   0.0000   0.0000   0.0000
     0.0000   0.0000   0.0000   0.0000   0.0000   0.0000   0.0000   0.0000
     0.0000   0.0000   0.0000   0.0000   0.0000   0.0000

          k =-0.5000-0.5460-0.1972 (  4088 PWs)   bands (ev):

   -13.7568 -13.7568 -13.7568 -13.7568 -13.7321 -13.7321 -13.7321 -13.7321
   -13.7198 -13.7198 -13.7198 -13.7198 -13.6978 -13.6978 -13.6978 -13.6978
   -13.6753 -13.6753 -13.6753 -13.6753  -4.8022  -4.8022  -4.8022  -4.8022
     0.8701   0.8701   0.8701   0.8701   3.2055   3.2055   3.2055   3.2055
     3.9965   3.9965   3.9965   3.9965   6.1441   6.1441   6.1441   6.1441
    10.0100  10.0100  10.0100  10.0100  12.1594  12.1594  12.1594  12.1594
    13.9720  13.9720  13.9720  13.9720  14.5629  14.5629  14.5629  14.5629
    17.1127  17.1127  17.1127  17.1127  18.1042  18.1042  18.1042  18.1042
    19.6051  19.6051  19.6051  19.6051  20.1315  20.1315

     occupation numbers 
     1.0000   1.0000   1.0000   1.0000   1.0000   1.0000   1.0000   1.0000
     1.0000   1.0000   1.0000   1.0000   1.0000   1.0000   1.0000   1.0000
     1.0000   1.0000   1.0000   1.0000   1.0000   1.0000   1.0000   1.0000
     1.0000   1.0000   1.0000   1.0000   1.0000   1.0000   1.0000   1.0000
     1.0000   1.0000   1.0000   1.0000   1.0000   1.0000   1.0000   1.0000
     0.0000   0.0000   0.0000   0.0000   0.0000   0.0000   0.0000   0.0000
     0.0000   0.0000   0.0000   0.0000   0.0000   0.0000   0.0000   0.0000
     0.0000   0.0000   0.0000   0.0000   0.0000   0.0000   0.0000   0.0000
     0.0000   0.0000   0.0000   0.0000   0.0000   0.0000

     the Fermi energy is     8.1259 ev
     (compare with:     7.5453 eV, computed in scf)

     Writing all to output data dir ./tmp/SnSe_pnma.save/ :
     XML data file, pseudopotentials, collected wavefunctions
 
     init_run     :      0.78s CPU      1.72s WALL (       1 calls)
     electrons    :   1559.35s CPU   3599.37s WALL (       1 calls)

     Called by init_run:
     wfcinit      :      0.00s CPU      0.01s WALL (       1 calls)
     wfcinit:atom :      0.12s CPU      0.13s WALL (     212 calls)
     wfcinit:wfcr :     30.79s CPU     74.97s WALL (     212 calls)
     potinit      :      0.12s CPU      0.30s WALL (       1 calls)
     hinit0       :      0.20s CPU      0.42s WALL (       1 calls)

     Called by electrons:
     c_bands      :   1558.20s CPU   3597.07s WALL (       1 calls)
     v_of_rho     :      0.05s CPU      0.14s WALL (       1 calls)
     v_h          :      0.00s CPU      0.02s WALL (       1 calls)
     v_xc         :      0.05s CPU      0.12s WALL (       1 calls)
     newd         :      0.21s CPU      0.47s WALL (       1 calls)

     Called by c_bands:
     init_us_2    :      0.30s CPU      0.49s WALL (     212 calls)
     cegterg      :   1356.48s CPU   3175.95s WALL (     841 calls)

     Called by sum_band:

     Called by *egterg:
     cdiaghg      :    136.72s CPU    297.79s WALL (   15040 calls)
     cegterg:over :    117.25s CPU    273.81s WALL (   14828 calls)
     cegterg:upda :     30.28s CPU     50.88s WALL (   14828 calls)
     cegterg:last :     87.16s CPU    161.38s WALL (    9550 calls)
     h_psi        :    913.67s CPU   2215.03s WALL (   15881 calls)
     s_psi        :     31.57s CPU     66.78s WALL (   15881 calls)
     g_psi        :      1.86s CPU      3.01s WALL (   14828 calls)

     Called by h_psi:
     h_psi:calbec :     74.75s CPU    175.27s WALL (   15881 calls)
     vloc_psi     :    804.20s CPU   1979.14s WALL (   15881 calls)
     add_vuspsi   :     31.78s CPU     56.29s WALL (   15881 calls)

     General routines
     calbec       :     74.67s CPU    175.19s WALL (   15881 calls)
     fft          :      0.03s CPU      0.07s WALL (      13 calls)
     ffts         :      0.00s CPU      0.00s WALL (       1 calls)
     fftw         :    711.63s CPU   1809.10s WALL ( 1259534 calls)
     interpolate  :      0.00s CPU      0.00s WALL (       1 calls)
     davcio       :      0.28s CPU      1.27s WALL (     424 calls)
 
     Parallel routines
 
     PWSCF        :  26m37.19s CPU      1h 1m WALL

 
   This run was terminated on:  19:45:33  24May2026            

=------------------------------------------------------------------------------=
   JOB DONE.
=------------------------------------------------------------------------------=
