
     Program PWSCF v.7.3.1 starts on 24May2026 at 17:59:55 

     This program is part of the open-source Quantum ESPRESSO suite
     for quantum simulation of materials; please cite
         "P. Giannozzi et al., J. Phys.:Condens. Matter 21 395502 (2009);
         "P. Giannozzi et al., J. Phys.:Condens. Matter 29 465901 (2017);
         "P. Giannozzi et al., J. Chem. Phys. 152 154105 (2020);
          URL http://www.quantum-espresso.org", 
     in publications or presentations arising from this work. More details at
     http://www.quantum-espresso.org/quote

     Parallel version (MPI & OpenMP), running on      12 processor cores
     Number of MPI processes:                12
     Threads/MPI process:                     1

     MPI processes distributed on     1 nodes
     1918 MiB available memory on the printing compute node when the environment starts
 
     Waiting for input...
     Reading input from standard input

     Current dimensions of program PWSCF are:
     Max number of different atomic species (ntypx) = 10
     Max number of k-points (npk) =  40000
     Max angular momentum in pseudopotentials (lmaxx) =  4

     Atomic positions and unit cell read from directory:
     ./tmp/SnSe_pnma.save/
 
 
     K-points division:     npool     =       4
     R & G space division:  proc/nbgrp/npool/nimage =       3
     Subspace diagonalization in iterative solution of the eigenvalue problem:
     a serial algorithm will be used

 
     Parallelization info
     --------------------
     sticks:   dense  smooth     PW     G-vecs:    dense   smooth      PW
     Min         543     213     67                43337    10943    1840
     Max         543     214     68                43339    10946    1842
     Sum        1629     641    203               130013    32833    5523
 
     Using Slab Decomposition
 


     bravais-lattice index     =            8
     lattice parameter (alat)  =       8.6086  a.u.
     unit-cell volume          =    1481.0643 (a.u.)^3
     number of atoms/cell      =            8
     number of atomic types    =            2
     number of electrons       =        80.00
     number of Kohn-Sham states=           70
     kinetic-energy cutoff     =      30.0000  Ry
     charge density cutoff     =     300.0000  Ry
     Exchange-correlation= SLA  PW   PBE  PBE
                           (   1   4   3   4   0   0   0)

     celldm(1)=   8.608647  celldm(2)=   0.915684  celldm(3)=   2.535265
     celldm(4)=   0.000000  celldm(5)=   0.000000  celldm(6)=   0.000000

     crystal axes: (cart. coord. in units of alat)
               a(1) = (   1.000000   0.000000   0.000000 )  
               a(2) = (   0.000000   0.915684   0.000000 )  
               a(3) = (   0.000000   0.000000   2.535265 )  

     reciprocal axes: (cart. coord. in units 2 pi/alat)
               b(1) = (  1.000000  0.000000  0.000000 )  
               b(2) = (  0.000000  1.092079  0.000000 )  
               b(3) = (  0.000000  0.000000  0.394436 )  


     PseudoPot. # 1 for Sn read from file:
     ../pseudo/Sn_pbe_v1.uspp.F.UPF
     MD5 check sum: 4cf58ce39ec5d5d420df3dd08604eb00
     Pseudo is Ultrasoft + core correction, Zval = 14.0
     Generated by new atomic code, or converted to UPF format
     Using radial grid of  891 points,  6 beta functions with: 
                l(1) =   0
                l(2) =   0
                l(3) =   1
                l(4) =   1
                l(5) =   2
                l(6) =   2
     Q(r) pseudized with  6 coefficients,  rinner =    1.200   1.200   1.200
                                                       1.200   1.200

     PseudoPot. # 2 for Se read from file:
     ../pseudo/Se_pbe_v1.uspp.F.UPF
     MD5 check sum: 1b3568f3a8ae88f9a2a0ad0698632c85
     Pseudo is Ultrasoft + core correction, Zval =  6.0
     Generated by new atomic code, or converted to UPF format
     Using radial grid of  877 points,  6 beta functions with: 
                l(1) =   0
                l(2) =   0
                l(3) =   1
                l(4) =   1
                l(5) =   2
                l(6) =   2
     Q(r) pseudized with  8 coefficients,  rinner =    1.300   1.300   1.300
                                                       1.300   1.300

     atomic species   valence    mass     pseudopotential
     Sn               14.00   118.71000     Sn( 1.00)
     Se                6.00    78.97100     Se( 1.00)

      8 Sym. Ops., with inversion, found ( 6 have fractional translation)


                                    s                        frac. trans.

      isym =  1     identity                                     

 cryst.   s( 1) = (     1          0          0      )
                  (     0          1          0      )
                  (     0          0          1      )

 cart.    s( 1) = (  1.0000000  0.0000000  0.0000000 )
                  (  0.0000000  1.0000000  0.0000000 )
                  (  0.0000000  0.0000000  1.0000000 )


      isym =  2     180 deg rotation - cart. axis [0,0,1]        

 cryst.   s( 2) = (    -1          0          0      )    f =(  0.5000000 )
                  (     0         -1          0      )       (  0.5000000 )
                  (     0          0          1      )       (  0.5000000 )

 cart.    s( 2) = ( -1.0000000  0.0000000  0.0000000 )    f =(  0.5000000 )
                  (  0.0000000 -1.0000000  0.0000000 )       (  0.4578422 )
                  (  0.0000000  0.0000000  1.0000000 )       (  1.2676325 )


      isym =  3     180 deg rotation - cart. axis [0,1,0]        

 cryst.   s( 3) = (    -1          0          0      )    f =( -0.0000000 )
                  (     0          1          0      )       (  0.5000000 )
                  (     0          0         -1      )       ( -0.0000000 )

 cart.    s( 3) = ( -1.0000000  0.0000000  0.0000000 )    f =( -0.0000000 )
                  (  0.0000000  1.0000000  0.0000000 )       (  0.4578422 )
                  (  0.0000000  0.0000000 -1.0000000 )       ( -0.0000000 )


      isym =  4     180 deg rotation - cart. axis [1,0,0]        

 cryst.   s( 4) = (     1          0          0      )    f =( -0.5000000 )
                  (     0         -1          0      )       ( -0.0000000 )
                  (     0          0         -1      )       (  0.5000000 )

 cart.    s( 4) = (  1.0000000  0.0000000  0.0000000 )    f =( -0.5000000 )
                  (  0.0000000 -1.0000000  0.0000000 )       ( -0.0000000 )
                  (  0.0000000  0.0000000 -1.0000000 )       (  1.2676325 )


      isym =  5     inversion                                    

 cryst.   s( 5) = (    -1          0          0      )
                  (     0         -1          0      )
                  (     0          0         -1      )

 cart.    s( 5) = ( -1.0000000  0.0000000  0.0000000 )
                  (  0.0000000 -1.0000000  0.0000000 )
                  (  0.0000000  0.0000000 -1.0000000 )


      isym =  6     inv. 180 deg rotation - cart. axis [0,0,1]   

 cryst.   s( 6) = (     1          0          0      )    f =( -0.5000000 )
                  (     0          1          0      )       (  0.5000000 )
                  (     0          0         -1      )       (  0.5000000 )

 cart.    s( 6) = (  1.0000000  0.0000000  0.0000000 )    f =( -0.5000000 )
                  (  0.0000000  1.0000000  0.0000000 )       (  0.4578422 )
                  (  0.0000000  0.0000000 -1.0000000 )       (  1.2676325 )


      isym =  7     inv. 180 deg rotation - cart. axis [0,1,0]   

 cryst.   s( 7) = (     1          0          0      )    f =(  0.0000000 )
                  (     0         -1          0      )       (  0.5000000 )
                  (     0          0          1      )       (  0.0000000 )

 cart.    s( 7) = (  1.0000000  0.0000000  0.0000000 )    f =(  0.0000000 )
                  (  0.0000000 -1.0000000  0.0000000 )       (  0.4578422 )
                  (  0.0000000  0.0000000  1.0000000 )       (  0.0000000 )


      isym =  8     inv. 180 deg rotation - cart. axis [1,0,0]   

 cryst.   s( 8) = (    -1          0          0      )    f =(  0.5000000 )
                  (     0          1          0      )       (  0.0000000 )
                  (     0          0          1      )       (  0.5000000 )

 cart.    s( 8) = ( -1.0000000  0.0000000  0.0000000 )    f =(  0.5000000 )
                  (  0.0000000  1.0000000  0.0000000 )       (  0.0000000 )
                  (  0.0000000  0.0000000  1.0000000 )       (  1.2676325 )


     point group D_2h (mmm) 
     there are  8 classes
     the character table:

       E     C2    C2'   C2''  i     s_v   s_v'  s_v''
A_g    1.00  1.00  1.00  1.00  1.00  1.00  1.00  1.00
B_1g   1.00  1.00 -1.00 -1.00  1.00  1.00 -1.00 -1.00
B_2g   1.00 -1.00  1.00 -1.00  1.00 -1.00  1.00 -1.00
B_3g   1.00 -1.00 -1.00  1.00  1.00 -1.00 -1.00  1.00
A_u    1.00  1.00  1.00  1.00 -1.00 -1.00 -1.00 -1.00
B_1u   1.00  1.00 -1.00 -1.00 -1.00 -1.00  1.00  1.00
B_2u   1.00 -1.00  1.00 -1.00 -1.00  1.00 -1.00  1.00
B_3u   1.00 -1.00 -1.00  1.00 -1.00  1.00  1.00 -1.00

     the symmetry operations in each class and the name of the first element:

     E        1
          identity                                               
     C2       2
          180 deg rotation - cart. axis [0,0,1]                  
     C2'      4
          180 deg rotation - cart. axis [1,0,0]                  
     C2''     3
          180 deg rotation - cart. axis [0,1,0]                  
     i        5
          inversion                                              
     s_v      6
          inv. 180 deg rotation - cart. axis [0,0,1]             
     s_v'     8
          inv. 180 deg rotation - cart. axis [1,0,0]             
     s_v''    7
          inv. 180 deg rotation - cart. axis [0,1,0]             

   Cartesian axes

     site n.     atom                  positions (alat units)
         1        Se     tau(   1) = (   0.4832481   0.6867633   2.1675410  )
         2        Sn     tau(   2) = (   0.1122870   0.6867633   0.2954585  )
         3        Se     tau(   3) = (   0.9832481   0.2289211   1.6353566  )
         4        Sn     tau(   4) = (   0.6122870   0.2289211   0.9721740  )
         5        Se     tau(   5) = (   0.0167519   0.6867633   0.8999084  )
         6        Sn     tau(   6) = (   0.3877130   0.6867633   1.5630911  )
         7        Se     tau(   7) = (   0.5167519   0.2289211   0.3677241  )
         8        Sn     tau(   8) = (   0.8877130   0.2289211   2.2398065  )

     --------------------------------------------
     DFT-D3 Dispersion Correction (3-body terms):
     --------------------------------------------
       Reference C6 values for interpolation: 

         atom   Coordination number   C6
         Se         0.000           427.35
         Se         0.990           427.57
         Se         1.981           421.05
         Sn         0.000          1255.14
         Sn         0.951          1084.09
         Sn         1.950          1010.83
         Sn         2.926           818.29
         Sn         3.912           672.20

       Values used:

         atom   Coordination number  R0_AB[au]  C6      C8
         Se         3.412            3.332    421.05  29958.36
         Sn         4.106            3.957    672.80  84444.47
         Se         3.412            3.332    421.05  29958.36
         Sn         4.106            3.957    672.80  84444.47
         Se         3.412            3.332    421.05  29958.36
         Sn         4.106            3.957    672.80  84444.47
         Se         3.412            3.332    421.05  29958.36
         Sn         4.106            3.957    672.80  84444.47

         Molecular C6 ( Ry / a.u.^6 ) =     34513.28


   Crystallographic axes

     site n.     atom                  positions (cryst. coord.)
         1        Se     tau(   1) = (  0.4832481  0.7500000  0.8549563  )
         2        Sn     tau(   2) = (  0.1122870  0.7500000  0.1165395  )
         3        Se     tau(   3) = (  0.9832481  0.2500000  0.6450437  )
         4        Sn     tau(   4) = (  0.6122870  0.2500000  0.3834605  )
         5        Se     tau(   5) = (  0.0167519  0.7500000  0.3549563  )
         6        Sn     tau(   6) = (  0.3877130  0.7500000  0.6165395  )
         7        Se     tau(   7) = (  0.5167519  0.2500000  0.1450437  )
         8        Sn     tau(   8) = (  0.8877130  0.2500000  0.8834605  )

     number of k points=   605 (tetrahedron method)
                       cart. coord. in units 2pi/alat
        k(    1) = (   0.0000000   0.0000000   0.0000000), wk =   0.0006250
        k(    2) = (   0.0000000   0.0000000   0.0493045), wk =   0.0012500
        k(    3) = (   0.0000000   0.0000000   0.0986090), wk =   0.0012500
        k(    4) = (   0.0000000   0.0000000   0.1479135), wk =   0.0012500
        k(    5) = (   0.0000000   0.0000000  -0.1972180), wk =   0.0006250
        k(    6) = (   0.0000000   0.0546040   0.0000000), wk =   0.0012500
        k(    7) = (   0.0000000   0.0546040   0.0493045), wk =   0.0025000
        k(    8) = (   0.0000000   0.0546040   0.0986090), wk =   0.0025000
        k(    9) = (   0.0000000   0.0546040   0.1479135), wk =   0.0025000
        k(   10) = (   0.0000000   0.0546040  -0.1972180), wk =   0.0012500
        k(   11) = (   0.0000000   0.1092079   0.0000000), wk =   0.0012500
        k(   12) = (   0.0000000   0.1092079   0.0493045), wk =   0.0025000
        k(   13) = (   0.0000000   0.1092079   0.0986090), wk =   0.0025000
        k(   14) = (   0.0000000   0.1092079   0.1479135), wk =   0.0025000
        k(   15) = (   0.0000000   0.1092079  -0.1972180), wk =   0.0012500
        k(   16) = (   0.0000000   0.1638119   0.0000000), wk =   0.0012500
        k(   17) = (   0.0000000   0.1638119   0.0493045), wk =   0.0025000
        k(   18) = (   0.0000000   0.1638119   0.0986090), wk =   0.0025000
        k(   19) = (   0.0000000   0.1638119   0.1479135), wk =   0.0025000
        k(   20) = (   0.0000000   0.1638119  -0.1972180), wk =   0.0012500
        k(   21) = (   0.0000000   0.2184159   0.0000000), wk =   0.0012500
        k(   22) = (   0.0000000   0.2184159   0.0493045), wk =   0.0025000
        k(   23) = (   0.0000000   0.2184159   0.0986090), wk =   0.0025000
        k(   24) = (   0.0000000   0.2184159   0.1479135), wk =   0.0025000
        k(   25) = (   0.0000000   0.2184159  -0.1972180), wk =   0.0012500
        k(   26) = (   0.0000000   0.2730198   0.0000000), wk =   0.0012500
        k(   27) = (   0.0000000   0.2730198   0.0493045), wk =   0.0025000
        k(   28) = (   0.0000000   0.2730198   0.0986090), wk =   0.0025000
        k(   29) = (   0.0000000   0.2730198   0.1479135), wk =   0.0025000
        k(   30) = (   0.0000000   0.2730198  -0.1972180), wk =   0.0012500
        k(   31) = (   0.0000000   0.3276238   0.0000000), wk =   0.0012500
        k(   32) = (   0.0000000   0.3276238   0.0493045), wk =   0.0025000
        k(   33) = (   0.0000000   0.3276238   0.0986090), wk =   0.0025000
        k(   34) = (   0.0000000   0.3276238   0.1479135), wk =   0.0025000
        k(   35) = (   0.0000000   0.3276238  -0.1972180), wk =   0.0012500
        k(   36) = (   0.0000000   0.3822278   0.0000000), wk =   0.0012500
        k(   37) = (   0.0000000   0.3822278   0.0493045), wk =   0.0025000
        k(   38) = (   0.0000000   0.3822278   0.0986090), wk =   0.0025000
        k(   39) = (   0.0000000   0.3822278   0.1479135), wk =   0.0025000
        k(   40) = (   0.0000000   0.3822278  -0.1972180), wk =   0.0012500
        k(   41) = (   0.0000000   0.4368318   0.0000000), wk =   0.0012500
        k(   42) = (   0.0000000   0.4368318   0.0493045), wk =   0.0025000
        k(   43) = (   0.0000000   0.4368318   0.0986090), wk =   0.0025000
        k(   44) = (   0.0000000   0.4368318   0.1479135), wk =   0.0025000
        k(   45) = (   0.0000000   0.4368318  -0.1972180), wk =   0.0012500
        k(   46) = (   0.0000000   0.4914357   0.0000000), wk =   0.0012500
        k(   47) = (   0.0000000   0.4914357   0.0493045), wk =   0.0025000
        k(   48) = (   0.0000000   0.4914357   0.0986090), wk =   0.0025000
        k(   49) = (   0.0000000   0.4914357   0.1479135), wk =   0.0025000
        k(   50) = (   0.0000000   0.4914357  -0.1972180), wk =   0.0012500
        k(   51) = (   0.0000000  -0.5460397   0.0000000), wk =   0.0006250
        k(   52) = (   0.0000000  -0.5460397   0.0493045), wk =   0.0012500
        k(   53) = (   0.0000000  -0.5460397   0.0986090), wk =   0.0012500
        k(   54) = (   0.0000000  -0.5460397   0.1479135), wk =   0.0012500
        k(   55) = (   0.0000000  -0.5460397  -0.1972180), wk =   0.0006250
        k(   56) = (   0.0500000   0.0000000   0.0000000), wk =   0.0012500
        k(   57) = (   0.0500000   0.0000000   0.0493045), wk =   0.0025000
        k(   58) = (   0.0500000   0.0000000   0.0986090), wk =   0.0025000
        k(   59) = (   0.0500000   0.0000000   0.1479135), wk =   0.0025000
        k(   60) = (   0.0500000   0.0000000  -0.1972180), wk =   0.0012500
        k(   61) = (   0.0500000   0.0546040   0.0000000), wk =   0.0025000
        k(   62) = (   0.0500000   0.0546040   0.0493045), wk =   0.0050000
        k(   63) = (   0.0500000   0.0546040   0.0986090), wk =   0.0050000
        k(   64) = (   0.0500000   0.0546040   0.1479135), wk =   0.0050000
        k(   65) = (   0.0500000   0.0546040  -0.1972180), wk =   0.0025000
        k(   66) = (   0.0500000   0.1092079   0.0000000), wk =   0.0025000
        k(   67) = (   0.0500000   0.1092079   0.0493045), wk =   0.0050000
        k(   68) = (   0.0500000   0.1092079   0.0986090), wk =   0.0050000
        k(   69) = (   0.0500000   0.1092079   0.1479135), wk =   0.0050000
        k(   70) = (   0.0500000   0.1092079  -0.1972180), wk =   0.0025000
        k(   71) = (   0.0500000   0.1638119   0.0000000), wk =   0.0025000
        k(   72) = (   0.0500000   0.1638119   0.0493045), wk =   0.0050000
        k(   73) = (   0.0500000   0.1638119   0.0986090), wk =   0.0050000
        k(   74) = (   0.0500000   0.1638119   0.1479135), wk =   0.0050000
        k(   75) = (   0.0500000   0.1638119  -0.1972180), wk =   0.0025000
        k(   76) = (   0.0500000   0.2184159   0.0000000), wk =   0.0025000
        k(   77) = (   0.0500000   0.2184159   0.0493045), wk =   0.0050000
        k(   78) = (   0.0500000   0.2184159   0.0986090), wk =   0.0050000
        k(   79) = (   0.0500000   0.2184159   0.1479135), wk =   0.0050000
        k(   80) = (   0.0500000   0.2184159  -0.1972180), wk =   0.0025000
        k(   81) = (   0.0500000   0.2730198   0.0000000), wk =   0.0025000
        k(   82) = (   0.0500000   0.2730198   0.0493045), wk =   0.0050000
        k(   83) = (   0.0500000   0.2730198   0.0986090), wk =   0.0050000
        k(   84) = (   0.0500000   0.2730198   0.1479135), wk =   0.0050000
        k(   85) = (   0.0500000   0.2730198  -0.1972180), wk =   0.0025000
        k(   86) = (   0.0500000   0.3276238   0.0000000), wk =   0.0025000
        k(   87) = (   0.0500000   0.3276238   0.0493045), wk =   0.0050000
        k(   88) = (   0.0500000   0.3276238   0.0986090), wk =   0.0050000
        k(   89) = (   0.0500000   0.3276238   0.1479135), wk =   0.0050000
        k(   90) = (   0.0500000   0.3276238  -0.1972180), wk =   0.0025000
        k(   91) = (   0.0500000   0.3822278   0.0000000), wk =   0.0025000
        k(   92) = (   0.0500000   0.3822278   0.0493045), wk =   0.0050000
        k(   93) = (   0.0500000   0.3822278   0.0986090), wk =   0.0050000
        k(   94) = (   0.0500000   0.3822278   0.1479135), wk =   0.0050000
        k(   95) = (   0.0500000   0.3822278  -0.1972180), wk =   0.0025000
        k(   96) = (   0.0500000   0.4368318   0.0000000), wk =   0.0025000
        k(   97) = (   0.0500000   0.4368318   0.0493045), wk =   0.0050000
        k(   98) = (   0.0500000   0.4368318   0.0986090), wk =   0.0050000
        k(   99) = (   0.0500000   0.4368318   0.1479135), wk =   0.0050000
        k(  100) = (   0.0500000   0.4368318  -0.1972180), wk =   0.0025000
        k(  101) = (   0.0500000   0.4914357   0.0000000), wk =   0.0025000
        k(  102) = (   0.0500000   0.4914357   0.0493045), wk =   0.0050000
        k(  103) = (   0.0500000   0.4914357   0.0986090), wk =   0.0050000
        k(  104) = (   0.0500000   0.4914357   0.1479135), wk =   0.0050000
        k(  105) = (   0.0500000   0.4914357  -0.1972180), wk =   0.0025000
        k(  106) = (   0.0500000  -0.5460397   0.0000000), wk =   0.0012500
        k(  107) = (   0.0500000  -0.5460397   0.0493045), wk =   0.0025000
        k(  108) = (   0.0500000  -0.5460397   0.0986090), wk =   0.0025000
        k(  109) = (   0.0500000  -0.5460397   0.1479135), wk =   0.0025000
        k(  110) = (   0.0500000  -0.5460397  -0.1972180), wk =   0.0012500
        k(  111) = (   0.1000000   0.0000000   0.0000000), wk =   0.0012500
        k(  112) = (   0.1000000   0.0000000   0.0493045), wk =   0.0025000
        k(  113) = (   0.1000000   0.0000000   0.0986090), wk =   0.0025000
        k(  114) = (   0.1000000   0.0000000   0.1479135), wk =   0.0025000
        k(  115) = (   0.1000000   0.0000000  -0.1972180), wk =   0.0012500
        k(  116) = (   0.1000000   0.0546040   0.0000000), wk =   0.0025000
        k(  117) = (   0.1000000   0.0546040   0.0493045), wk =   0.0050000
        k(  118) = (   0.1000000   0.0546040   0.0986090), wk =   0.0050000
        k(  119) = (   0.1000000   0.0546040   0.1479135), wk =   0.0050000
        k(  120) = (   0.1000000   0.0546040  -0.1972180), wk =   0.0025000
        k(  121) = (   0.1000000   0.1092079   0.0000000), wk =   0.0025000
        k(  122) = (   0.1000000   0.1092079   0.0493045), wk =   0.0050000
        k(  123) = (   0.1000000   0.1092079   0.0986090), wk =   0.0050000
        k(  124) = (   0.1000000   0.1092079   0.1479135), wk =   0.0050000
        k(  125) = (   0.1000000   0.1092079  -0.1972180), wk =   0.0025000
        k(  126) = (   0.1000000   0.1638119   0.0000000), wk =   0.0025000
        k(  127) = (   0.1000000   0.1638119   0.0493045), wk =   0.0050000
        k(  128) = (   0.1000000   0.1638119   0.0986090), wk =   0.0050000
        k(  129) = (   0.1000000   0.1638119   0.1479135), wk =   0.0050000
        k(  130) = (   0.1000000   0.1638119  -0.1972180), wk =   0.0025000
        k(  131) = (   0.1000000   0.2184159   0.0000000), wk =   0.0025000
        k(  132) = (   0.1000000   0.2184159   0.0493045), wk =   0.0050000
        k(  133) = (   0.1000000   0.2184159   0.0986090), wk =   0.0050000
        k(  134) = (   0.1000000   0.2184159   0.1479135), wk =   0.0050000
        k(  135) = (   0.1000000   0.2184159  -0.1972180), wk =   0.0025000
        k(  136) = (   0.1000000   0.2730198   0.0000000), wk =   0.0025000
        k(  137) = (   0.1000000   0.2730198   0.0493045), wk =   0.0050000
        k(  138) = (   0.1000000   0.2730198   0.0986090), wk =   0.0050000
        k(  139) = (   0.1000000   0.2730198   0.1479135), wk =   0.0050000
        k(  140) = (   0.1000000   0.2730198  -0.1972180), wk =   0.0025000
        k(  141) = (   0.1000000   0.3276238   0.0000000), wk =   0.0025000
        k(  142) = (   0.1000000   0.3276238   0.0493045), wk =   0.0050000
        k(  143) = (   0.1000000   0.3276238   0.0986090), wk =   0.0050000
        k(  144) = (   0.1000000   0.3276238   0.1479135), wk =   0.0050000
        k(  145) = (   0.1000000   0.3276238  -0.1972180), wk =   0.0025000
        k(  146) = (   0.1000000   0.3822278   0.0000000), wk =   0.0025000
        k(  147) = (   0.1000000   0.3822278   0.0493045), wk =   0.0050000
        k(  148) = (   0.1000000   0.3822278   0.0986090), wk =   0.0050000
        k(  149) = (   0.1000000   0.3822278   0.1479135), wk =   0.0050000
        k(  150) = (   0.1000000   0.3822278  -0.1972180), wk =   0.0025000
        k(  151) = (   0.1000000   0.4368318   0.0000000), wk =   0.0025000
        k(  152) = (   0.1000000   0.4368318   0.0493045), wk =   0.0050000
        k(  153) = (   0.1000000   0.4368318   0.0986090), wk =   0.0050000
        k(  154) = (   0.1000000   0.4368318   0.1479135), wk =   0.0050000
        k(  155) = (   0.1000000   0.4368318  -0.1972180), wk =   0.0025000
        k(  156) = (   0.1000000   0.4914357   0.0000000), wk =   0.0025000
        k(  157) = (   0.1000000   0.4914357   0.0493045), wk =   0.0050000
        k(  158) = (   0.1000000   0.4914357   0.0986090), wk =   0.0050000
        k(  159) = (   0.1000000   0.4914357   0.1479135), wk =   0.0050000
        k(  160) = (   0.1000000   0.4914357  -0.1972180), wk =   0.0025000
        k(  161) = (   0.1000000  -0.5460397   0.0000000), wk =   0.0012500
        k(  162) = (   0.1000000  -0.5460397   0.0493045), wk =   0.0025000
        k(  163) = (   0.1000000  -0.5460397   0.0986090), wk =   0.0025000
        k(  164) = (   0.1000000  -0.5460397   0.1479135), wk =   0.0025000
        k(  165) = (   0.1000000  -0.5460397  -0.1972180), wk =   0.0012500
        k(  166) = (   0.1500000   0.0000000   0.0000000), wk =   0.0012500
        k(  167) = (   0.1500000   0.0000000   0.0493045), wk =   0.0025000
        k(  168) = (   0.1500000   0.0000000   0.0986090), wk =   0.0025000
        k(  169) = (   0.1500000   0.0000000   0.1479135), wk =   0.0025000
        k(  170) = (   0.1500000   0.0000000  -0.1972180), wk =   0.0012500
        k(  171) = (   0.1500000   0.0546040   0.0000000), wk =   0.0025000
        k(  172) = (   0.1500000   0.0546040   0.0493045), wk =   0.0050000
        k(  173) = (   0.1500000   0.0546040   0.0986090), wk =   0.0050000
        k(  174) = (   0.1500000   0.0546040   0.1479135), wk =   0.0050000
        k(  175) = (   0.1500000   0.0546040  -0.1972180), wk =   0.0025000
        k(  176) = (   0.1500000   0.1092079   0.0000000), wk =   0.0025000
        k(  177) = (   0.1500000   0.1092079   0.0493045), wk =   0.0050000
        k(  178) = (   0.1500000   0.1092079   0.0986090), wk =   0.0050000
        k(  179) = (   0.1500000   0.1092079   0.1479135), wk =   0.0050000
        k(  180) = (   0.1500000   0.1092079  -0.1972180), wk =   0.0025000
        k(  181) = (   0.1500000   0.1638119   0.0000000), wk =   0.0025000
        k(  182) = (   0.1500000   0.1638119   0.0493045), wk =   0.0050000
        k(  183) = (   0.1500000   0.1638119   0.0986090), wk =   0.0050000
        k(  184) = (   0.1500000   0.1638119   0.1479135), wk =   0.0050000
        k(  185) = (   0.1500000   0.1638119  -0.1972180), wk =   0.0025000
        k(  186) = (   0.1500000   0.2184159   0.0000000), wk =   0.0025000
        k(  187) = (   0.1500000   0.2184159   0.0493045), wk =   0.0050000
        k(  188) = (   0.1500000   0.2184159   0.0986090), wk =   0.0050000
        k(  189) = (   0.1500000   0.2184159   0.1479135), wk =   0.0050000
        k(  190) = (   0.1500000   0.2184159  -0.1972180), wk =   0.0025000
        k(  191) = (   0.1500000   0.2730198   0.0000000), wk =   0.0025000
        k(  192) = (   0.1500000   0.2730198   0.0493045), wk =   0.0050000
        k(  193) = (   0.1500000   0.2730198   0.0986090), wk =   0.0050000
        k(  194) = (   0.1500000   0.2730198   0.1479135), wk =   0.0050000
        k(  195) = (   0.1500000   0.2730198  -0.1972180), wk =   0.0025000
        k(  196) = (   0.1500000   0.3276238   0.0000000), wk =   0.0025000
        k(  197) = (   0.1500000   0.3276238   0.0493045), wk =   0.0050000
        k(  198) = (   0.1500000   0.3276238   0.0986090), wk =   0.0050000
        k(  199) = (   0.1500000   0.3276238   0.1479135), wk =   0.0050000
        k(  200) = (   0.1500000   0.3276238  -0.1972180), wk =   0.0025000
        k(  201) = (   0.1500000   0.3822278   0.0000000), wk =   0.0025000
        k(  202) = (   0.1500000   0.3822278   0.0493045), wk =   0.0050000
        k(  203) = (   0.1500000   0.3822278   0.0986090), wk =   0.0050000
        k(  204) = (   0.1500000   0.3822278   0.1479135), wk =   0.0050000
        k(  205) = (   0.1500000   0.3822278  -0.1972180), wk =   0.0025000
        k(  206) = (   0.1500000   0.4368318   0.0000000), wk =   0.0025000
        k(  207) = (   0.1500000   0.4368318   0.0493045), wk =   0.0050000
        k(  208) = (   0.1500000   0.4368318   0.0986090), wk =   0.0050000
        k(  209) = (   0.1500000   0.4368318   0.1479135), wk =   0.0050000
        k(  210) = (   0.1500000   0.4368318  -0.1972180), wk =   0.0025000
        k(  211) = (   0.1500000   0.4914357   0.0000000), wk =   0.0025000
        k(  212) = (   0.1500000   0.4914357   0.0493045), wk =   0.0050000
        k(  213) = (   0.1500000   0.4914357   0.0986090), wk =   0.0050000
        k(  214) = (   0.1500000   0.4914357   0.1479135), wk =   0.0050000
        k(  215) = (   0.1500000   0.4914357  -0.1972180), wk =   0.0025000
        k(  216) = (   0.1500000  -0.5460397   0.0000000), wk =   0.0012500
        k(  217) = (   0.1500000  -0.5460397   0.0493045), wk =   0.0025000
        k(  218) = (   0.1500000  -0.5460397   0.0986090), wk =   0.0025000
        k(  219) = (   0.1500000  -0.5460397   0.1479135), wk =   0.0025000
        k(  220) = (   0.1500000  -0.5460397  -0.1972180), wk =   0.0012500
        k(  221) = (   0.2000000   0.0000000   0.0000000), wk =   0.0012500
        k(  222) = (   0.2000000   0.0000000   0.0493045), wk =   0.0025000
        k(  223) = (   0.2000000   0.0000000   0.0986090), wk =   0.0025000
        k(  224) = (   0.2000000   0.0000000   0.1479135), wk =   0.0025000
        k(  225) = (   0.2000000   0.0000000  -0.1972180), wk =   0.0012500
        k(  226) = (   0.2000000   0.0546040   0.0000000), wk =   0.0025000
        k(  227) = (   0.2000000   0.0546040   0.0493045), wk =   0.0050000
        k(  228) = (   0.2000000   0.0546040   0.0986090), wk =   0.0050000
        k(  229) = (   0.2000000   0.0546040   0.1479135), wk =   0.0050000
        k(  230) = (   0.2000000   0.0546040  -0.1972180), wk =   0.0025000
        k(  231) = (   0.2000000   0.1092079   0.0000000), wk =   0.0025000
        k(  232) = (   0.2000000   0.1092079   0.0493045), wk =   0.0050000
        k(  233) = (   0.2000000   0.1092079   0.0986090), wk =   0.0050000
        k(  234) = (   0.2000000   0.1092079   0.1479135), wk =   0.0050000
        k(  235) = (   0.2000000   0.1092079  -0.1972180), wk =   0.0025000
        k(  236) = (   0.2000000   0.1638119   0.0000000), wk =   0.0025000
        k(  237) = (   0.2000000   0.1638119   0.0493045), wk =   0.0050000
        k(  238) = (   0.2000000   0.1638119   0.0986090), wk =   0.0050000
        k(  239) = (   0.2000000   0.1638119   0.1479135), wk =   0.0050000
        k(  240) = (   0.2000000   0.1638119  -0.1972180), wk =   0.0025000
        k(  241) = (   0.2000000   0.2184159   0.0000000), wk =   0.0025000
        k(  242) = (   0.2000000   0.2184159   0.0493045), wk =   0.0050000
        k(  243) = (   0.2000000   0.2184159   0.0986090), wk =   0.0050000
        k(  244) = (   0.2000000   0.2184159   0.1479135), wk =   0.0050000
        k(  245) = (   0.2000000   0.2184159  -0.1972180), wk =   0.0025000
        k(  246) = (   0.2000000   0.2730198   0.0000000), wk =   0.0025000
        k(  247) = (   0.2000000   0.2730198   0.0493045), wk =   0.0050000
        k(  248) = (   0.2000000   0.2730198   0.0986090), wk =   0.0050000
        k(  249) = (   0.2000000   0.2730198   0.1479135), wk =   0.0050000
        k(  250) = (   0.2000000   0.2730198  -0.1972180), wk =   0.0025000
        k(  251) = (   0.2000000   0.3276238   0.0000000), wk =   0.0025000
        k(  252) = (   0.2000000   0.3276238   0.0493045), wk =   0.0050000
        k(  253) = (   0.2000000   0.3276238   0.0986090), wk =   0.0050000
        k(  254) = (   0.2000000   0.3276238   0.1479135), wk =   0.0050000
        k(  255) = (   0.2000000   0.3276238  -0.1972180), wk =   0.0025000
        k(  256) = (   0.2000000   0.3822278   0.0000000), wk =   0.0025000
        k(  257) = (   0.2000000   0.3822278   0.0493045), wk =   0.0050000
        k(  258) = (   0.2000000   0.3822278   0.0986090), wk =   0.0050000
        k(  259) = (   0.2000000   0.3822278   0.1479135), wk =   0.0050000
        k(  260) = (   0.2000000   0.3822278  -0.1972180), wk =   0.0025000
        k(  261) = (   0.2000000   0.4368318   0.0000000), wk =   0.0025000
        k(  262) = (   0.2000000   0.4368318   0.0493045), wk =   0.0050000
        k(  263) = (   0.2000000   0.4368318   0.0986090), wk =   0.0050000
        k(  264) = (   0.2000000   0.4368318   0.1479135), wk =   0.0050000
        k(  265) = (   0.2000000   0.4368318  -0.1972180), wk =   0.0025000
        k(  266) = (   0.2000000   0.4914357   0.0000000), wk =   0.0025000
        k(  267) = (   0.2000000   0.4914357   0.0493045), wk =   0.0050000
        k(  268) = (   0.2000000   0.4914357   0.0986090), wk =   0.0050000
        k(  269) = (   0.2000000   0.4914357   0.1479135), wk =   0.0050000
        k(  270) = (   0.2000000   0.4914357  -0.1972180), wk =   0.0025000
        k(  271) = (   0.2000000  -0.5460397   0.0000000), wk =   0.0012500
        k(  272) = (   0.2000000  -0.5460397   0.0493045), wk =   0.0025000
        k(  273) = (   0.2000000  -0.5460397   0.0986090), wk =   0.0025000
        k(  274) = (   0.2000000  -0.5460397   0.1479135), wk =   0.0025000
        k(  275) = (   0.2000000  -0.5460397  -0.1972180), wk =   0.0012500
        k(  276) = (   0.2500000   0.0000000   0.0000000), wk =   0.0012500
        k(  277) = (   0.2500000   0.0000000   0.0493045), wk =   0.0025000
        k(  278) = (   0.2500000   0.0000000   0.0986090), wk =   0.0025000
        k(  279) = (   0.2500000   0.0000000   0.1479135), wk =   0.0025000
        k(  280) = (   0.2500000   0.0000000  -0.1972180), wk =   0.0012500
        k(  281) = (   0.2500000   0.0546040   0.0000000), wk =   0.0025000
        k(  282) = (   0.2500000   0.0546040   0.0493045), wk =   0.0050000
        k(  283) = (   0.2500000   0.0546040   0.0986090), wk =   0.0050000
        k(  284) = (   0.2500000   0.0546040   0.1479135), wk =   0.0050000
        k(  285) = (   0.2500000   0.0546040  -0.1972180), wk =   0.0025000
        k(  286) = (   0.2500000   0.1092079   0.0000000), wk =   0.0025000
        k(  287) = (   0.2500000   0.1092079   0.0493045), wk =   0.0050000
        k(  288) = (   0.2500000   0.1092079   0.0986090), wk =   0.0050000
        k(  289) = (   0.2500000   0.1092079   0.1479135), wk =   0.0050000
        k(  290) = (   0.2500000   0.1092079  -0.1972180), wk =   0.0025000
        k(  291) = (   0.2500000   0.1638119   0.0000000), wk =   0.0025000
        k(  292) = (   0.2500000   0.1638119   0.0493045), wk =   0.0050000
        k(  293) = (   0.2500000   0.1638119   0.0986090), wk =   0.0050000
        k(  294) = (   0.2500000   0.1638119   0.1479135), wk =   0.0050000
        k(  295) = (   0.2500000   0.1638119  -0.1972180), wk =   0.0025000
        k(  296) = (   0.2500000   0.2184159   0.0000000), wk =   0.0025000
        k(  297) = (   0.2500000   0.2184159   0.0493045), wk =   0.0050000
        k(  298) = (   0.2500000   0.2184159   0.0986090), wk =   0.0050000
        k(  299) = (   0.2500000   0.2184159   0.1479135), wk =   0.0050000
        k(  300) = (   0.2500000   0.2184159  -0.1972180), wk =   0.0025000
        k(  301) = (   0.2500000   0.2730198   0.0000000), wk =   0.0025000
        k(  302) = (   0.2500000   0.2730198   0.0493045), wk =   0.0050000
        k(  303) = (   0.2500000   0.2730198   0.0986090), wk =   0.0050000
        k(  304) = (   0.2500000   0.2730198   0.1479135), wk =   0.0050000
        k(  305) = (   0.2500000   0.2730198  -0.1972180), wk =   0.0025000
        k(  306) = (   0.2500000   0.3276238   0.0000000), wk =   0.0025000
        k(  307) = (   0.2500000   0.3276238   0.0493045), wk =   0.0050000
        k(  308) = (   0.2500000   0.3276238   0.0986090), wk =   0.0050000
        k(  309) = (   0.2500000   0.3276238   0.1479135), wk =   0.0050000
        k(  310) = (   0.2500000   0.3276238  -0.1972180), wk =   0.0025000
        k(  311) = (   0.2500000   0.3822278   0.0000000), wk =   0.0025000
        k(  312) = (   0.2500000   0.3822278   0.0493045), wk =   0.0050000
        k(  313) = (   0.2500000   0.3822278   0.0986090), wk =   0.0050000
        k(  314) = (   0.2500000   0.3822278   0.1479135), wk =   0.0050000
        k(  315) = (   0.2500000   0.3822278  -0.1972180), wk =   0.0025000
        k(  316) = (   0.2500000   0.4368318   0.0000000), wk =   0.0025000
        k(  317) = (   0.2500000   0.4368318   0.0493045), wk =   0.0050000
        k(  318) = (   0.2500000   0.4368318   0.0986090), wk =   0.0050000
        k(  319) = (   0.2500000   0.4368318   0.1479135), wk =   0.0050000
        k(  320) = (   0.2500000   0.4368318  -0.1972180), wk =   0.0025000
        k(  321) = (   0.2500000   0.4914357   0.0000000), wk =   0.0025000
        k(  322) = (   0.2500000   0.4914357   0.0493045), wk =   0.0050000
        k(  323) = (   0.2500000   0.4914357   0.0986090), wk =   0.0050000
        k(  324) = (   0.2500000   0.4914357   0.1479135), wk =   0.0050000
        k(  325) = (   0.2500000   0.4914357  -0.1972180), wk =   0.0025000
        k(  326) = (   0.2500000  -0.5460397   0.0000000), wk =   0.0012500
        k(  327) = (   0.2500000  -0.5460397   0.0493045), wk =   0.0025000
        k(  328) = (   0.2500000  -0.5460397   0.0986090), wk =   0.0025000
        k(  329) = (   0.2500000  -0.5460397   0.1479135), wk =   0.0025000
        k(  330) = (   0.2500000  -0.5460397  -0.1972180), wk =   0.0012500
        k(  331) = (   0.3000000   0.0000000   0.0000000), wk =   0.0012500
        k(  332) = (   0.3000000   0.0000000   0.0493045), wk =   0.0025000
        k(  333) = (   0.3000000   0.0000000   0.0986090), wk =   0.0025000
        k(  334) = (   0.3000000   0.0000000   0.1479135), wk =   0.0025000
        k(  335) = (   0.3000000   0.0000000  -0.1972180), wk =   0.0012500
        k(  336) = (   0.3000000   0.0546040   0.0000000), wk =   0.0025000
        k(  337) = (   0.3000000   0.0546040   0.0493045), wk =   0.0050000
        k(  338) = (   0.3000000   0.0546040   0.0986090), wk =   0.0050000
        k(  339) = (   0.3000000   0.0546040   0.1479135), wk =   0.0050000
        k(  340) = (   0.3000000   0.0546040  -0.1972180), wk =   0.0025000
        k(  341) = (   0.3000000   0.1092079   0.0000000), wk =   0.0025000
        k(  342) = (   0.3000000   0.1092079   0.0493045), wk =   0.0050000
        k(  343) = (   0.3000000   0.1092079   0.0986090), wk =   0.0050000
        k(  344) = (   0.3000000   0.1092079   0.1479135), wk =   0.0050000
        k(  345) = (   0.3000000   0.1092079  -0.1972180), wk =   0.0025000
        k(  346) = (   0.3000000   0.1638119   0.0000000), wk =   0.0025000
        k(  347) = (   0.3000000   0.1638119   0.0493045), wk =   0.0050000
        k(  348) = (   0.3000000   0.1638119   0.0986090), wk =   0.0050000
        k(  349) = (   0.3000000   0.1638119   0.1479135), wk =   0.0050000
        k(  350) = (   0.3000000   0.1638119  -0.1972180), wk =   0.0025000
        k(  351) = (   0.3000000   0.2184159   0.0000000), wk =   0.0025000
        k(  352) = (   0.3000000   0.2184159   0.0493045), wk =   0.0050000
        k(  353) = (   0.3000000   0.2184159   0.0986090), wk =   0.0050000
        k(  354) = (   0.3000000   0.2184159   0.1479135), wk =   0.0050000
        k(  355) = (   0.3000000   0.2184159  -0.1972180), wk =   0.0025000
        k(  356) = (   0.3000000   0.2730198   0.0000000), wk =   0.0025000
        k(  357) = (   0.3000000   0.2730198   0.0493045), wk =   0.0050000
        k(  358) = (   0.3000000   0.2730198   0.0986090), wk =   0.0050000
        k(  359) = (   0.3000000   0.2730198   0.1479135), wk =   0.0050000
        k(  360) = (   0.3000000   0.2730198  -0.1972180), wk =   0.0025000
        k(  361) = (   0.3000000   0.3276238   0.0000000), wk =   0.0025000
        k(  362) = (   0.3000000   0.3276238   0.0493045), wk =   0.0050000
        k(  363) = (   0.3000000   0.3276238   0.0986090), wk =   0.0050000
        k(  364) = (   0.3000000   0.3276238   0.1479135), wk =   0.0050000
        k(  365) = (   0.3000000   0.3276238  -0.1972180), wk =   0.0025000
        k(  366) = (   0.3000000   0.3822278   0.0000000), wk =   0.0025000
        k(  367) = (   0.3000000   0.3822278   0.0493045), wk =   0.0050000
        k(  368) = (   0.3000000   0.3822278   0.0986090), wk =   0.0050000
        k(  369) = (   0.3000000   0.3822278   0.1479135), wk =   0.0050000
        k(  370) = (   0.3000000   0.3822278  -0.1972180), wk =   0.0025000
        k(  371) = (   0.3000000   0.4368318   0.0000000), wk =   0.0025000
        k(  372) = (   0.3000000   0.4368318   0.0493045), wk =   0.0050000
        k(  373) = (   0.3000000   0.4368318   0.0986090), wk =   0.0050000
        k(  374) = (   0.3000000   0.4368318   0.1479135), wk =   0.0050000
        k(  375) = (   0.3000000   0.4368318  -0.1972180), wk =   0.0025000
        k(  376) = (   0.3000000   0.4914357   0.0000000), wk =   0.0025000
        k(  377) = (   0.3000000   0.4914357   0.0493045), wk =   0.0050000
        k(  378) = (   0.3000000   0.4914357   0.0986090), wk =   0.0050000
        k(  379) = (   0.3000000   0.4914357   0.1479135), wk =   0.0050000
        k(  380) = (   0.3000000   0.4914357  -0.1972180), wk =   0.0025000
        k(  381) = (   0.3000000  -0.5460397   0.0000000), wk =   0.0012500
        k(  382) = (   0.3000000  -0.5460397   0.0493045), wk =   0.0025000
        k(  383) = (   0.3000000  -0.5460397   0.0986090), wk =   0.0025000
        k(  384) = (   0.3000000  -0.5460397   0.1479135), wk =   0.0025000
        k(  385) = (   0.3000000  -0.5460397  -0.1972180), wk =   0.0012500
        k(  386) = (   0.3500000   0.0000000   0.0000000), wk =   0.0012500
        k(  387) = (   0.3500000   0.0000000   0.0493045), wk =   0.0025000
        k(  388) = (   0.3500000   0.0000000   0.0986090), wk =   0.0025000
        k(  389) = (   0.3500000   0.0000000   0.1479135), wk =   0.0025000
        k(  390) = (   0.3500000   0.0000000  -0.1972180), wk =   0.0012500
        k(  391) = (   0.3500000   0.0546040   0.0000000), wk =   0.0025000
        k(  392) = (   0.3500000   0.0546040   0.0493045), wk =   0.0050000
        k(  393) = (   0.3500000   0.0546040   0.0986090), wk =   0.0050000
        k(  394) = (   0.3500000   0.0546040   0.1479135), wk =   0.0050000
        k(  395) = (   0.3500000   0.0546040  -0.1972180), wk =   0.0025000
        k(  396) = (   0.3500000   0.1092079   0.0000000), wk =   0.0025000
        k(  397) = (   0.3500000   0.1092079   0.0493045), wk =   0.0050000
        k(  398) = (   0.3500000   0.1092079   0.0986090), wk =   0.0050000
        k(  399) = (   0.3500000   0.1092079   0.1479135), wk =   0.0050000
        k(  400) = (   0.3500000   0.1092079  -0.1972180), wk =   0.0025000
        k(  401) = (   0.3500000   0.1638119   0.0000000), wk =   0.0025000
        k(  402) = (   0.3500000   0.1638119   0.0493045), wk =   0.0050000
        k(  403) = (   0.3500000   0.1638119   0.0986090), wk =   0.0050000
        k(  404) = (   0.3500000   0.1638119   0.1479135), wk =   0.0050000
        k(  405) = (   0.3500000   0.1638119  -0.1972180), wk =   0.0025000
        k(  406) = (   0.3500000   0.2184159   0.0000000), wk =   0.0025000
        k(  407) = (   0.3500000   0.2184159   0.0493045), wk =   0.0050000
        k(  408) = (   0.3500000   0.2184159   0.0986090), wk =   0.0050000
        k(  409) = (   0.3500000   0.2184159   0.1479135), wk =   0.0050000
        k(  410) = (   0.3500000   0.2184159  -0.1972180), wk =   0.0025000
        k(  411) = (   0.3500000   0.2730198   0.0000000), wk =   0.0025000
        k(  412) = (   0.3500000   0.2730198   0.0493045), wk =   0.0050000
        k(  413) = (   0.3500000   0.2730198   0.0986090), wk =   0.0050000
        k(  414) = (   0.3500000   0.2730198   0.1479135), wk =   0.0050000
        k(  415) = (   0.3500000   0.2730198  -0.1972180), wk =   0.0025000
        k(  416) = (   0.3500000   0.3276238   0.0000000), wk =   0.0025000
        k(  417) = (   0.3500000   0.3276238   0.0493045), wk =   0.0050000
        k(  418) = (   0.3500000   0.3276238   0.0986090), wk =   0.0050000
        k(  419) = (   0.3500000   0.3276238   0.1479135), wk =   0.0050000
        k(  420) = (   0.3500000   0.3276238  -0.1972180), wk =   0.0025000
        k(  421) = (   0.3500000   0.3822278   0.0000000), wk =   0.0025000
        k(  422) = (   0.3500000   0.3822278   0.0493045), wk =   0.0050000
        k(  423) = (   0.3500000   0.3822278   0.0986090), wk =   0.0050000
        k(  424) = (   0.3500000   0.3822278   0.1479135), wk =   0.0050000
        k(  425) = (   0.3500000   0.3822278  -0.1972180), wk =   0.0025000
        k(  426) = (   0.3500000   0.4368318   0.0000000), wk =   0.0025000
        k(  427) = (   0.3500000   0.4368318   0.0493045), wk =   0.0050000
        k(  428) = (   0.3500000   0.4368318   0.0986090), wk =   0.0050000
        k(  429) = (   0.3500000   0.4368318   0.1479135), wk =   0.0050000
        k(  430) = (   0.3500000   0.4368318  -0.1972180), wk =   0.0025000
        k(  431) = (   0.3500000   0.4914357   0.0000000), wk =   0.0025000
        k(  432) = (   0.3500000   0.4914357   0.0493045), wk =   0.0050000
        k(  433) = (   0.3500000   0.4914357   0.0986090), wk =   0.0050000
        k(  434) = (   0.3500000   0.4914357   0.1479135), wk =   0.0050000
        k(  435) = (   0.3500000   0.4914357  -0.1972180), wk =   0.0025000
        k(  436) = (   0.3500000  -0.5460397   0.0000000), wk =   0.0012500
        k(  437) = (   0.3500000  -0.5460397   0.0493045), wk =   0.0025000
        k(  438) = (   0.3500000  -0.5460397   0.0986090), wk =   0.0025000
        k(  439) = (   0.3500000  -0.5460397   0.1479135), wk =   0.0025000
        k(  440) = (   0.3500000  -0.5460397  -0.1972180), wk =   0.0012500
        k(  441) = (   0.4000000   0.0000000   0.0000000), wk =   0.0012500
        k(  442) = (   0.4000000   0.0000000   0.0493045), wk =   0.0025000
        k(  443) = (   0.4000000   0.0000000   0.0986090), wk =   0.0025000
        k(  444) = (   0.4000000   0.0000000   0.1479135), wk =   0.0025000
        k(  445) = (   0.4000000   0.0000000  -0.1972180), wk =   0.0012500
        k(  446) = (   0.4000000   0.0546040   0.0000000), wk =   0.0025000
        k(  447) = (   0.4000000   0.0546040   0.0493045), wk =   0.0050000
        k(  448) = (   0.4000000   0.0546040   0.0986090), wk =   0.0050000
        k(  449) = (   0.4000000   0.0546040   0.1479135), wk =   0.0050000
        k(  450) = (   0.4000000   0.0546040  -0.1972180), wk =   0.0025000
        k(  451) = (   0.4000000   0.1092079   0.0000000), wk =   0.0025000
        k(  452) = (   0.4000000   0.1092079   0.0493045), wk =   0.0050000
        k(  453) = (   0.4000000   0.1092079   0.0986090), wk =   0.0050000
        k(  454) = (   0.4000000   0.1092079   0.1479135), wk =   0.0050000
        k(  455) = (   0.4000000   0.1092079  -0.1972180), wk =   0.0025000
        k(  456) = (   0.4000000   0.1638119   0.0000000), wk =   0.0025000
        k(  457) = (   0.4000000   0.1638119   0.0493045), wk =   0.0050000
        k(  458) = (   0.4000000   0.1638119   0.0986090), wk =   0.0050000
        k(  459) = (   0.4000000   0.1638119   0.1479135), wk =   0.0050000
        k(  460) = (   0.4000000   0.1638119  -0.1972180), wk =   0.0025000
        k(  461) = (   0.4000000   0.2184159   0.0000000), wk =   0.0025000
        k(  462) = (   0.4000000   0.2184159   0.0493045), wk =   0.0050000
        k(  463) = (   0.4000000   0.2184159   0.0986090), wk =   0.0050000
        k(  464) = (   0.4000000   0.2184159   0.1479135), wk =   0.0050000
        k(  465) = (   0.4000000   0.2184159  -0.1972180), wk =   0.0025000
        k(  466) = (   0.4000000   0.2730198   0.0000000), wk =   0.0025000
        k(  467) = (   0.4000000   0.2730198   0.0493045), wk =   0.0050000
        k(  468) = (   0.4000000   0.2730198   0.0986090), wk =   0.0050000
        k(  469) = (   0.4000000   0.2730198   0.1479135), wk =   0.0050000
        k(  470) = (   0.4000000   0.2730198  -0.1972180), wk =   0.0025000
        k(  471) = (   0.4000000   0.3276238   0.0000000), wk =   0.0025000
        k(  472) = (   0.4000000   0.3276238   0.0493045), wk =   0.0050000
        k(  473) = (   0.4000000   0.3276238   0.0986090), wk =   0.0050000
        k(  474) = (   0.4000000   0.3276238   0.1479135), wk =   0.0050000
        k(  475) = (   0.4000000   0.3276238  -0.1972180), wk =   0.0025000
        k(  476) = (   0.4000000   0.3822278   0.0000000), wk =   0.0025000
        k(  477) = (   0.4000000   0.3822278   0.0493045), wk =   0.0050000
        k(  478) = (   0.4000000   0.3822278   0.0986090), wk =   0.0050000
        k(  479) = (   0.4000000   0.3822278   0.1479135), wk =   0.0050000
        k(  480) = (   0.4000000   0.3822278  -0.1972180), wk =   0.0025000
        k(  481) = (   0.4000000   0.4368318   0.0000000), wk =   0.0025000
        k(  482) = (   0.4000000   0.4368318   0.0493045), wk =   0.0050000
        k(  483) = (   0.4000000   0.4368318   0.0986090), wk =   0.0050000
        k(  484) = (   0.4000000   0.4368318   0.1479135), wk =   0.0050000
        k(  485) = (   0.4000000   0.4368318  -0.1972180), wk =   0.0025000
        k(  486) = (   0.4000000   0.4914357   0.0000000), wk =   0.0025000
        k(  487) = (   0.4000000   0.4914357   0.0493045), wk =   0.0050000
        k(  488) = (   0.4000000   0.4914357   0.0986090), wk =   0.0050000
        k(  489) = (   0.4000000   0.4914357   0.1479135), wk =   0.0050000
        k(  490) = (   0.4000000   0.4914357  -0.1972180), wk =   0.0025000
        k(  491) = (   0.4000000  -0.5460397   0.0000000), wk =   0.0012500
        k(  492) = (   0.4000000  -0.5460397   0.0493045), wk =   0.0025000
        k(  493) = (   0.4000000  -0.5460397   0.0986090), wk =   0.0025000
        k(  494) = (   0.4000000  -0.5460397   0.1479135), wk =   0.0025000
        k(  495) = (   0.4000000  -0.5460397  -0.1972180), wk =   0.0012500
        k(  496) = (   0.4500000   0.0000000   0.0000000), wk =   0.0012500
        k(  497) = (   0.4500000   0.0000000   0.0493045), wk =   0.0025000
        k(  498) = (   0.4500000   0.0000000   0.0986090), wk =   0.0025000
        k(  499) = (   0.4500000   0.0000000   0.1479135), wk =   0.0025000
        k(  500) = (   0.4500000   0.0000000  -0.1972180), wk =   0.0012500
        k(  501) = (   0.4500000   0.0546040   0.0000000), wk =   0.0025000
        k(  502) = (   0.4500000   0.0546040   0.0493045), wk =   0.0050000
        k(  503) = (   0.4500000   0.0546040   0.0986090), wk =   0.0050000
        k(  504) = (   0.4500000   0.0546040   0.1479135), wk =   0.0050000
        k(  505) = (   0.4500000   0.0546040  -0.1972180), wk =   0.0025000
        k(  506) = (   0.4500000   0.1092079   0.0000000), wk =   0.0025000
        k(  507) = (   0.4500000   0.1092079   0.0493045), wk =   0.0050000
        k(  508) = (   0.4500000   0.1092079   0.0986090), wk =   0.0050000
        k(  509) = (   0.4500000   0.1092079   0.1479135), wk =   0.0050000
        k(  510) = (   0.4500000   0.1092079  -0.1972180), wk =   0.0025000
        k(  511) = (   0.4500000   0.1638119   0.0000000), wk =   0.0025000
        k(  512) = (   0.4500000   0.1638119   0.0493045), wk =   0.0050000
        k(  513) = (   0.4500000   0.1638119   0.0986090), wk =   0.0050000
        k(  514) = (   0.4500000   0.1638119   0.1479135), wk =   0.0050000
        k(  515) = (   0.4500000   0.1638119  -0.1972180), wk =   0.0025000
        k(  516) = (   0.4500000   0.2184159   0.0000000), wk =   0.0025000
        k(  517) = (   0.4500000   0.2184159   0.0493045), wk =   0.0050000
        k(  518) = (   0.4500000   0.2184159   0.0986090), wk =   0.0050000
        k(  519) = (   0.4500000   0.2184159   0.1479135), wk =   0.0050000
        k(  520) = (   0.4500000   0.2184159  -0.1972180), wk =   0.0025000
        k(  521) = (   0.4500000   0.2730198   0.0000000), wk =   0.0025000
        k(  522) = (   0.4500000   0.2730198   0.0493045), wk =   0.0050000
        k(  523) = (   0.4500000   0.2730198   0.0986090), wk =   0.0050000
        k(  524) = (   0.4500000   0.2730198   0.1479135), wk =   0.0050000
        k(  525) = (   0.4500000   0.2730198  -0.1972180), wk =   0.0025000
        k(  526) = (   0.4500000   0.3276238   0.0000000), wk =   0.0025000
        k(  527) = (   0.4500000   0.3276238   0.0493045), wk =   0.0050000
        k(  528) = (   0.4500000   0.3276238   0.0986090), wk =   0.0050000
        k(  529) = (   0.4500000   0.3276238   0.1479135), wk =   0.0050000
        k(  530) = (   0.4500000   0.3276238  -0.1972180), wk =   0.0025000
        k(  531) = (   0.4500000   0.3822278   0.0000000), wk =   0.0025000
        k(  532) = (   0.4500000   0.3822278   0.0493045), wk =   0.0050000
        k(  533) = (   0.4500000   0.3822278   0.0986090), wk =   0.0050000
        k(  534) = (   0.4500000   0.3822278   0.1479135), wk =   0.0050000
        k(  535) = (   0.4500000   0.3822278  -0.1972180), wk =   0.0025000
        k(  536) = (   0.4500000   0.4368318   0.0000000), wk =   0.0025000
        k(  537) = (   0.4500000   0.4368318   0.0493045), wk =   0.0050000
        k(  538) = (   0.4500000   0.4368318   0.0986090), wk =   0.0050000
        k(  539) = (   0.4500000   0.4368318   0.1479135), wk =   0.0050000
        k(  540) = (   0.4500000   0.4368318  -0.1972180), wk =   0.0025000
        k(  541) = (   0.4500000   0.4914357   0.0000000), wk =   0.0025000
        k(  542) = (   0.4500000   0.4914357   0.0493045), wk =   0.0050000
        k(  543) = (   0.4500000   0.4914357   0.0986090), wk =   0.0050000
        k(  544) = (   0.4500000   0.4914357   0.1479135), wk =   0.0050000
        k(  545) = (   0.4500000   0.4914357  -0.1972180), wk =   0.0025000
        k(  546) = (   0.4500000  -0.5460397   0.0000000), wk =   0.0012500
        k(  547) = (   0.4500000  -0.5460397   0.0493045), wk =   0.0025000
        k(  548) = (   0.4500000  -0.5460397   0.0986090), wk =   0.0025000
        k(  549) = (   0.4500000  -0.5460397   0.1479135), wk =   0.0025000
        k(  550) = (   0.4500000  -0.5460397  -0.1972180), wk =   0.0012500
        k(  551) = (  -0.5000000   0.0000000   0.0000000), wk =   0.0006250
        k(  552) = (  -0.5000000   0.0000000   0.0493045), wk =   0.0012500
        k(  553) = (  -0.5000000   0.0000000   0.0986090), wk =   0.0012500
        k(  554) = (  -0.5000000   0.0000000   0.1479135), wk =   0.0012500
        k(  555) = (  -0.5000000   0.0000000  -0.1972180), wk =   0.0006250
        k(  556) = (  -0.5000000   0.0546040   0.0000000), wk =   0.0012500
        k(  557) = (  -0.5000000   0.0546040   0.0493045), wk =   0.0025000
        k(  558) = (  -0.5000000   0.0546040   0.0986090), wk =   0.0025000
        k(  559) = (  -0.5000000   0.0546040   0.1479135), wk =   0.0025000
        k(  560) = (  -0.5000000   0.0546040  -0.1972180), wk =   0.0012500
        k(  561) = (  -0.5000000   0.1092079   0.0000000), wk =   0.0012500
        k(  562) = (  -0.5000000   0.1092079   0.0493045), wk =   0.0025000
        k(  563) = (  -0.5000000   0.1092079   0.0986090), wk =   0.0025000
        k(  564) = (  -0.5000000   0.1092079   0.1479135), wk =   0.0025000
        k(  565) = (  -0.5000000   0.1092079  -0.1972180), wk =   0.0012500
        k(  566) = (  -0.5000000   0.1638119   0.0000000), wk =   0.0012500
        k(  567) = (  -0.5000000   0.1638119   0.0493045), wk =   0.0025000
        k(  568) = (  -0.5000000   0.1638119   0.0986090), wk =   0.0025000
        k(  569) = (  -0.5000000   0.1638119   0.1479135), wk =   0.0025000
        k(  570) = (  -0.5000000   0.1638119  -0.1972180), wk =   0.0012500
        k(  571) = (  -0.5000000   0.2184159   0.0000000), wk =   0.0012500
        k(  572) = (  -0.5000000   0.2184159   0.0493045), wk =   0.0025000
        k(  573) = (  -0.5000000   0.2184159   0.0986090), wk =   0.0025000
        k(  574) = (  -0.5000000   0.2184159   0.1479135), wk =   0.0025000
        k(  575) = (  -0.5000000   0.2184159  -0.1972180), wk =   0.0012500
        k(  576) = (  -0.5000000   0.2730198   0.0000000), wk =   0.0012500
        k(  577) = (  -0.5000000   0.2730198   0.0493045), wk =   0.0025000
        k(  578) = (  -0.5000000   0.2730198   0.0986090), wk =   0.0025000
        k(  579) = (  -0.5000000   0.2730198   0.1479135), wk =   0.0025000
        k(  580) = (  -0.5000000   0.2730198  -0.1972180), wk =   0.0012500
        k(  581) = (  -0.5000000   0.3276238   0.0000000), wk =   0.0012500
        k(  582) = (  -0.5000000   0.3276238   0.0493045), wk =   0.0025000
        k(  583) = (  -0.5000000   0.3276238   0.0986090), wk =   0.0025000
        k(  584) = (  -0.5000000   0.3276238   0.1479135), wk =   0.0025000
        k(  585) = (  -0.5000000   0.3276238  -0.1972180), wk =   0.0012500
        k(  586) = (  -0.5000000   0.3822278   0.0000000), wk =   0.0012500
        k(  587) = (  -0.5000000   0.3822278   0.0493045), wk =   0.0025000
        k(  588) = (  -0.5000000   0.3822278   0.0986090), wk =   0.0025000
        k(  589) = (  -0.5000000   0.3822278   0.1479135), wk =   0.0025000
        k(  590) = (  -0.5000000   0.3822278  -0.1972180), wk =   0.0012500
        k(  591) = (  -0.5000000   0.4368318   0.0000000), wk =   0.0012500
        k(  592) = (  -0.5000000   0.4368318   0.0493045), wk =   0.0025000
        k(  593) = (  -0.5000000   0.4368318   0.0986090), wk =   0.0025000
        k(  594) = (  -0.5000000   0.4368318   0.1479135), wk =   0.0025000
        k(  595) = (  -0.5000000   0.4368318  -0.1972180), wk =   0.0012500
        k(  596) = (  -0.5000000   0.4914357   0.0000000), wk =   0.0012500
        k(  597) = (  -0.5000000   0.4914357   0.0493045), wk =   0.0025000
        k(  598) = (  -0.5000000   0.4914357   0.0986090), wk =   0.0025000
        k(  599) = (  -0.5000000   0.4914357   0.1479135), wk =   0.0025000
        k(  600) = (  -0.5000000   0.4914357  -0.1972180), wk =   0.0012500
        k(  601) = (  -0.5000000  -0.5460397   0.0000000), wk =   0.0006250
        k(  602) = (  -0.5000000  -0.5460397   0.0493045), wk =   0.0012500
        k(  603) = (  -0.5000000  -0.5460397   0.0986090), wk =   0.0012500
        k(  604) = (  -0.5000000  -0.5460397   0.1479135), wk =   0.0012500
        k(  605) = (  -0.5000000  -0.5460397  -0.1972180), wk =   0.0006250

                       cryst. coord.
        k(    1) = (   0.0000000   0.0000000   0.0000000), wk =   0.0006250
        k(    2) = (   0.0000000   0.0000000   0.1250000), wk =   0.0012500
        k(    3) = (   0.0000000   0.0000000   0.2500000), wk =   0.0012500
        k(    4) = (   0.0000000   0.0000000   0.3750000), wk =   0.0012500
        k(    5) = (   0.0000000   0.0000000  -0.5000000), wk =   0.0006250
        k(    6) = (   0.0000000   0.0500000   0.0000000), wk =   0.0012500
        k(    7) = (   0.0000000   0.0500000   0.1250000), wk =   0.0025000
        k(    8) = (   0.0000000   0.0500000   0.2500000), wk =   0.0025000
        k(    9) = (   0.0000000   0.0500000   0.3750000), wk =   0.0025000
        k(   10) = (   0.0000000   0.0500000  -0.5000000), wk =   0.0012500
        k(   11) = (   0.0000000   0.1000000   0.0000000), wk =   0.0012500
        k(   12) = (   0.0000000   0.1000000   0.1250000), wk =   0.0025000
        k(   13) = (   0.0000000   0.1000000   0.2500000), wk =   0.0025000
        k(   14) = (   0.0000000   0.1000000   0.3750000), wk =   0.0025000
        k(   15) = (   0.0000000   0.1000000  -0.5000000), wk =   0.0012500
        k(   16) = (   0.0000000   0.1500000   0.0000000), wk =   0.0012500
        k(   17) = (   0.0000000   0.1500000   0.1250000), wk =   0.0025000
        k(   18) = (   0.0000000   0.1500000   0.2500000), wk =   0.0025000
        k(   19) = (   0.0000000   0.1500000   0.3750000), wk =   0.0025000
        k(   20) = (   0.0000000   0.1500000  -0.5000000), wk =   0.0012500
        k(   21) = (   0.0000000   0.2000000   0.0000000), wk =   0.0012500
        k(   22) = (   0.0000000   0.2000000   0.1250000), wk =   0.0025000
        k(   23) = (   0.0000000   0.2000000   0.2500000), wk =   0.0025000
        k(   24) = (   0.0000000   0.2000000   0.3750000), wk =   0.0025000
        k(   25) = (   0.0000000   0.2000000  -0.5000000), wk =   0.0012500
        k(   26) = (   0.0000000   0.2500000   0.0000000), wk =   0.0012500
        k(   27) = (   0.0000000   0.2500000   0.1250000), wk =   0.0025000
        k(   28) = (   0.0000000   0.2500000   0.2500000), wk =   0.0025000
        k(   29) = (   0.0000000   0.2500000   0.3750000), wk =   0.0025000
        k(   30) = (   0.0000000   0.2500000  -0.5000000), wk =   0.0012500
        k(   31) = (   0.0000000   0.3000000   0.0000000), wk =   0.0012500
        k(   32) = (   0.0000000   0.3000000   0.1250000), wk =   0.0025000
        k(   33) = (   0.0000000   0.3000000   0.2500000), wk =   0.0025000
        k(   34) = (   0.0000000   0.3000000   0.3750000), wk =   0.0025000
        k(   35) = (   0.0000000   0.3000000  -0.5000000), wk =   0.0012500
        k(   36) = (   0.0000000   0.3500000   0.0000000), wk =   0.0012500
        k(   37) = (   0.0000000   0.3500000   0.1250000), wk =   0.0025000
        k(   38) = (   0.0000000   0.3500000   0.2500000), wk =   0.0025000
        k(   39) = (   0.0000000   0.3500000   0.3750000), wk =   0.0025000
        k(   40) = (   0.0000000   0.3500000  -0.5000000), wk =   0.0012500
        k(   41) = (   0.0000000   0.4000000   0.0000000), wk =   0.0012500
        k(   42) = (   0.0000000   0.4000000   0.1250000), wk =   0.0025000
        k(   43) = (   0.0000000   0.4000000   0.2500000), wk =   0.0025000
        k(   44) = (   0.0000000   0.4000000   0.3750000), wk =   0.0025000
        k(   45) = (   0.0000000   0.4000000  -0.5000000), wk =   0.0012500
        k(   46) = (   0.0000000   0.4500000   0.0000000), wk =   0.0012500
        k(   47) = (   0.0000000   0.4500000   0.1250000), wk =   0.0025000
        k(   48) = (   0.0000000   0.4500000   0.2500000), wk =   0.0025000
        k(   49) = (   0.0000000   0.4500000   0.3750000), wk =   0.0025000
        k(   50) = (   0.0000000   0.4500000  -0.5000000), wk =   0.0012500
        k(   51) = (   0.0000000  -0.5000000   0.0000000), wk =   0.0006250
        k(   52) = (   0.0000000  -0.5000000   0.1250000), wk =   0.0012500
        k(   53) = (   0.0000000  -0.5000000   0.2500000), wk =   0.0012500
        k(   54) = (   0.0000000  -0.5000000   0.3750000), wk =   0.0012500
        k(   55) = (   0.0000000  -0.5000000  -0.5000000), wk =   0.0006250
        k(   56) = (   0.0500000   0.0000000   0.0000000), wk =   0.0012500
        k(   57) = (   0.0500000   0.0000000   0.1250000), wk =   0.0025000
        k(   58) = (   0.0500000   0.0000000   0.2500000), wk =   0.0025000
        k(   59) = (   0.0500000   0.0000000   0.3750000), wk =   0.0025000
        k(   60) = (   0.0500000   0.0000000  -0.5000000), wk =   0.0012500
        k(   61) = (   0.0500000   0.0500000   0.0000000), wk =   0.0025000
        k(   62) = (   0.0500000   0.0500000   0.1250000), wk =   0.0050000
        k(   63) = (   0.0500000   0.0500000   0.2500000), wk =   0.0050000
        k(   64) = (   0.0500000   0.0500000   0.3750000), wk =   0.0050000
        k(   65) = (   0.0500000   0.0500000  -0.5000000), wk =   0.0025000
        k(   66) = (   0.0500000   0.1000000   0.0000000), wk =   0.0025000
        k(   67) = (   0.0500000   0.1000000   0.1250000), wk =   0.0050000
        k(   68) = (   0.0500000   0.1000000   0.2500000), wk =   0.0050000
        k(   69) = (   0.0500000   0.1000000   0.3750000), wk =   0.0050000
        k(   70) = (   0.0500000   0.1000000  -0.5000000), wk =   0.0025000
        k(   71) = (   0.0500000   0.1500000   0.0000000), wk =   0.0025000
        k(   72) = (   0.0500000   0.1500000   0.1250000), wk =   0.0050000
        k(   73) = (   0.0500000   0.1500000   0.2500000), wk =   0.0050000
        k(   74) = (   0.0500000   0.1500000   0.3750000), wk =   0.0050000
        k(   75) = (   0.0500000   0.1500000  -0.5000000), wk =   0.0025000
        k(   76) = (   0.0500000   0.2000000   0.0000000), wk =   0.0025000
        k(   77) = (   0.0500000   0.2000000   0.1250000), wk =   0.0050000
        k(   78) = (   0.0500000   0.2000000   0.2500000), wk =   0.0050000
        k(   79) = (   0.0500000   0.2000000   0.3750000), wk =   0.0050000
        k(   80) = (   0.0500000   0.2000000  -0.5000000), wk =   0.0025000
        k(   81) = (   0.0500000   0.2500000   0.0000000), wk =   0.0025000
        k(   82) = (   0.0500000   0.2500000   0.1250000), wk =   0.0050000
        k(   83) = (   0.0500000   0.2500000   0.2500000), wk =   0.0050000
        k(   84) = (   0.0500000   0.2500000   0.3750000), wk =   0.0050000
        k(   85) = (   0.0500000   0.2500000  -0.5000000), wk =   0.0025000
        k(   86) = (   0.0500000   0.3000000   0.0000000), wk =   0.0025000
        k(   87) = (   0.0500000   0.3000000   0.1250000), wk =   0.0050000
        k(   88) = (   0.0500000   0.3000000   0.2500000), wk =   0.0050000
        k(   89) = (   0.0500000   0.3000000   0.3750000), wk =   0.0050000
        k(   90) = (   0.0500000   0.3000000  -0.5000000), wk =   0.0025000
        k(   91) = (   0.0500000   0.3500000   0.0000000), wk =   0.0025000
        k(   92) = (   0.0500000   0.3500000   0.1250000), wk =   0.0050000
        k(   93) = (   0.0500000   0.3500000   0.2500000), wk =   0.0050000
        k(   94) = (   0.0500000   0.3500000   0.3750000), wk =   0.0050000
        k(   95) = (   0.0500000   0.3500000  -0.5000000), wk =   0.0025000
        k(   96) = (   0.0500000   0.4000000   0.0000000), wk =   0.0025000
        k(   97) = (   0.0500000   0.4000000   0.1250000), wk =   0.0050000
        k(   98) = (   0.0500000   0.4000000   0.2500000), wk =   0.0050000
        k(   99) = (   0.0500000   0.4000000   0.3750000), wk =   0.0050000
        k(  100) = (   0.0500000   0.4000000  -0.5000000), wk =   0.0025000
        k(  101) = (   0.0500000   0.4500000   0.0000000), wk =   0.0025000
        k(  102) = (   0.0500000   0.4500000   0.1250000), wk =   0.0050000
        k(  103) = (   0.0500000   0.4500000   0.2500000), wk =   0.0050000
        k(  104) = (   0.0500000   0.4500000   0.3750000), wk =   0.0050000
        k(  105) = (   0.0500000   0.4500000  -0.5000000), wk =   0.0025000
        k(  106) = (   0.0500000  -0.5000000   0.0000000), wk =   0.0012500
        k(  107) = (   0.0500000  -0.5000000   0.1250000), wk =   0.0025000
        k(  108) = (   0.0500000  -0.5000000   0.2500000), wk =   0.0025000
        k(  109) = (   0.0500000  -0.5000000   0.3750000), wk =   0.0025000
        k(  110) = (   0.0500000  -0.5000000  -0.5000000), wk =   0.0012500
        k(  111) = (   0.1000000   0.0000000   0.0000000), wk =   0.0012500
        k(  112) = (   0.1000000   0.0000000   0.1250000), wk =   0.0025000
        k(  113) = (   0.1000000   0.0000000   0.2500000), wk =   0.0025000
        k(  114) = (   0.1000000   0.0000000   0.3750000), wk =   0.0025000
        k(  115) = (   0.1000000   0.0000000  -0.5000000), wk =   0.0012500
        k(  116) = (   0.1000000   0.0500000   0.0000000), wk =   0.0025000
        k(  117) = (   0.1000000   0.0500000   0.1250000), wk =   0.0050000
        k(  118) = (   0.1000000   0.0500000   0.2500000), wk =   0.0050000
        k(  119) = (   0.1000000   0.0500000   0.3750000), wk =   0.0050000
        k(  120) = (   0.1000000   0.0500000  -0.5000000), wk =   0.0025000
        k(  121) = (   0.1000000   0.1000000   0.0000000), wk =   0.0025000
        k(  122) = (   0.1000000   0.1000000   0.1250000), wk =   0.0050000
        k(  123) = (   0.1000000   0.1000000   0.2500000), wk =   0.0050000
        k(  124) = (   0.1000000   0.1000000   0.3750000), wk =   0.0050000
        k(  125) = (   0.1000000   0.1000000  -0.5000000), wk =   0.0025000
        k(  126) = (   0.1000000   0.1500000   0.0000000), wk =   0.0025000
        k(  127) = (   0.1000000   0.1500000   0.1250000), wk =   0.0050000
        k(  128) = (   0.1000000   0.1500000   0.2500000), wk =   0.0050000
        k(  129) = (   0.1000000   0.1500000   0.3750000), wk =   0.0050000
        k(  130) = (   0.1000000   0.1500000  -0.5000000), wk =   0.0025000
        k(  131) = (   0.1000000   0.2000000   0.0000000), wk =   0.0025000
        k(  132) = (   0.1000000   0.2000000   0.1250000), wk =   0.0050000
        k(  133) = (   0.1000000   0.2000000   0.2500000), wk =   0.0050000
        k(  134) = (   0.1000000   0.2000000   0.3750000), wk =   0.0050000
        k(  135) = (   0.1000000   0.2000000  -0.5000000), wk =   0.0025000
        k(  136) = (   0.1000000   0.2500000   0.0000000), wk =   0.0025000
        k(  137) = (   0.1000000   0.2500000   0.1250000), wk =   0.0050000
        k(  138) = (   0.1000000   0.2500000   0.2500000), wk =   0.0050000
        k(  139) = (   0.1000000   0.2500000   0.3750000), wk =   0.0050000
        k(  140) = (   0.1000000   0.2500000  -0.5000000), wk =   0.0025000
        k(  141) = (   0.1000000   0.3000000   0.0000000), wk =   0.0025000
        k(  142) = (   0.1000000   0.3000000   0.1250000), wk =   0.0050000
        k(  143) = (   0.1000000   0.3000000   0.2500000), wk =   0.0050000
        k(  144) = (   0.1000000   0.3000000   0.3750000), wk =   0.0050000
        k(  145) = (   0.1000000   0.3000000  -0.5000000), wk =   0.0025000
        k(  146) = (   0.1000000   0.3500000   0.0000000), wk =   0.0025000
        k(  147) = (   0.1000000   0.3500000   0.1250000), wk =   0.0050000
        k(  148) = (   0.1000000   0.3500000   0.2500000), wk =   0.0050000
        k(  149) = (   0.1000000   0.3500000   0.3750000), wk =   0.0050000
        k(  150) = (   0.1000000   0.3500000  -0.5000000), wk =   0.0025000
        k(  151) = (   0.1000000   0.4000000   0.0000000), wk =   0.0025000
        k(  152) = (   0.1000000   0.4000000   0.1250000), wk =   0.0050000
        k(  153) = (   0.1000000   0.4000000   0.2500000), wk =   0.0050000
        k(  154) = (   0.1000000   0.4000000   0.3750000), wk =   0.0050000
        k(  155) = (   0.1000000   0.4000000  -0.5000000), wk =   0.0025000
        k(  156) = (   0.1000000   0.4500000   0.0000000), wk =   0.0025000
        k(  157) = (   0.1000000   0.4500000   0.1250000), wk =   0.0050000
        k(  158) = (   0.1000000   0.4500000   0.2500000), wk =   0.0050000
        k(  159) = (   0.1000000   0.4500000   0.3750000), wk =   0.0050000
        k(  160) = (   0.1000000   0.4500000  -0.5000000), wk =   0.0025000
        k(  161) = (   0.1000000  -0.5000000   0.0000000), wk =   0.0012500
        k(  162) = (   0.1000000  -0.5000000   0.1250000), wk =   0.0025000
        k(  163) = (   0.1000000  -0.5000000   0.2500000), wk =   0.0025000
        k(  164) = (   0.1000000  -0.5000000   0.3750000), wk =   0.0025000
        k(  165) = (   0.1000000  -0.5000000  -0.5000000), wk =   0.0012500
        k(  166) = (   0.1500000   0.0000000   0.0000000), wk =   0.0012500
        k(  167) = (   0.1500000   0.0000000   0.1250000), wk =   0.0025000
        k(  168) = (   0.1500000   0.0000000   0.2500000), wk =   0.0025000
        k(  169) = (   0.1500000   0.0000000   0.3750000), wk =   0.0025000
        k(  170) = (   0.1500000   0.0000000  -0.5000000), wk =   0.0012500
        k(  171) = (   0.1500000   0.0500000   0.0000000), wk =   0.0025000
        k(  172) = (   0.1500000   0.0500000   0.1250000), wk =   0.0050000
        k(  173) = (   0.1500000   0.0500000   0.2500000), wk =   0.0050000
        k(  174) = (   0.1500000   0.0500000   0.3750000), wk =   0.0050000
        k(  175) = (   0.1500000   0.0500000  -0.5000000), wk =   0.0025000
        k(  176) = (   0.1500000   0.1000000   0.0000000), wk =   0.0025000
        k(  177) = (   0.1500000   0.1000000   0.1250000), wk =   0.0050000
        k(  178) = (   0.1500000   0.1000000   0.2500000), wk =   0.0050000
        k(  179) = (   0.1500000   0.1000000   0.3750000), wk =   0.0050000
        k(  180) = (   0.1500000   0.1000000  -0.5000000), wk =   0.0025000
        k(  181) = (   0.1500000   0.1500000   0.0000000), wk =   0.0025000
        k(  182) = (   0.1500000   0.1500000   0.1250000), wk =   0.0050000
        k(  183) = (   0.1500000   0.1500000   0.2500000), wk =   0.0050000
        k(  184) = (   0.1500000   0.1500000   0.3750000), wk =   0.0050000
        k(  185) = (   0.1500000   0.1500000  -0.5000000), wk =   0.0025000
        k(  186) = (   0.1500000   0.2000000   0.0000000), wk =   0.0025000
        k(  187) = (   0.1500000   0.2000000   0.1250000), wk =   0.0050000
        k(  188) = (   0.1500000   0.2000000   0.2500000), wk =   0.0050000
        k(  189) = (   0.1500000   0.2000000   0.3750000), wk =   0.0050000
        k(  190) = (   0.1500000   0.2000000  -0.5000000), wk =   0.0025000
        k(  191) = (   0.1500000   0.2500000   0.0000000), wk =   0.0025000
        k(  192) = (   0.1500000   0.2500000   0.1250000), wk =   0.0050000
        k(  193) = (   0.1500000   0.2500000   0.2500000), wk =   0.0050000
        k(  194) = (   0.1500000   0.2500000   0.3750000), wk =   0.0050000
        k(  195) = (   0.1500000   0.2500000  -0.5000000), wk =   0.0025000
        k(  196) = (   0.1500000   0.3000000   0.0000000), wk =   0.0025000
        k(  197) = (   0.1500000   0.3000000   0.1250000), wk =   0.0050000
        k(  198) = (   0.1500000   0.3000000   0.2500000), wk =   0.0050000
        k(  199) = (   0.1500000   0.3000000   0.3750000), wk =   0.0050000
        k(  200) = (   0.1500000   0.3000000  -0.5000000), wk =   0.0025000
        k(  201) = (   0.1500000   0.3500000   0.0000000), wk =   0.0025000
        k(  202) = (   0.1500000   0.3500000   0.1250000), wk =   0.0050000
        k(  203) = (   0.1500000   0.3500000   0.2500000), wk =   0.0050000
        k(  204) = (   0.1500000   0.3500000   0.3750000), wk =   0.0050000
        k(  205) = (   0.1500000   0.3500000  -0.5000000), wk =   0.0025000
        k(  206) = (   0.1500000   0.4000000   0.0000000), wk =   0.0025000
        k(  207) = (   0.1500000   0.4000000   0.1250000), wk =   0.0050000
        k(  208) = (   0.1500000   0.4000000   0.2500000), wk =   0.0050000
        k(  209) = (   0.1500000   0.4000000   0.3750000), wk =   0.0050000
        k(  210) = (   0.1500000   0.4000000  -0.5000000), wk =   0.0025000
        k(  211) = (   0.1500000   0.4500000   0.0000000), wk =   0.0025000
        k(  212) = (   0.1500000   0.4500000   0.1250000), wk =   0.0050000
        k(  213) = (   0.1500000   0.4500000   0.2500000), wk =   0.0050000
        k(  214) = (   0.1500000   0.4500000   0.3750000), wk =   0.0050000
        k(  215) = (   0.1500000   0.4500000  -0.5000000), wk =   0.0025000
        k(  216) = (   0.1500000  -0.5000000   0.0000000), wk =   0.0012500
        k(  217) = (   0.1500000  -0.5000000   0.1250000), wk =   0.0025000
        k(  218) = (   0.1500000  -0.5000000   0.2500000), wk =   0.0025000
        k(  219) = (   0.1500000  -0.5000000   0.3750000), wk =   0.0025000
        k(  220) = (   0.1500000  -0.5000000  -0.5000000), wk =   0.0012500
        k(  221) = (   0.2000000   0.0000000   0.0000000), wk =   0.0012500
        k(  222) = (   0.2000000   0.0000000   0.1250000), wk =   0.0025000
        k(  223) = (   0.2000000   0.0000000   0.2500000), wk =   0.0025000
        k(  224) = (   0.2000000   0.0000000   0.3750000), wk =   0.0025000
        k(  225) = (   0.2000000   0.0000000  -0.5000000), wk =   0.0012500
        k(  226) = (   0.2000000   0.0500000   0.0000000), wk =   0.0025000
        k(  227) = (   0.2000000   0.0500000   0.1250000), wk =   0.0050000
        k(  228) = (   0.2000000   0.0500000   0.2500000), wk =   0.0050000
        k(  229) = (   0.2000000   0.0500000   0.3750000), wk =   0.0050000
        k(  230) = (   0.2000000   0.0500000  -0.5000000), wk =   0.0025000
        k(  231) = (   0.2000000   0.1000000   0.0000000), wk =   0.0025000
        k(  232) = (   0.2000000   0.1000000   0.1250000), wk =   0.0050000
        k(  233) = (   0.2000000   0.1000000   0.2500000), wk =   0.0050000
        k(  234) = (   0.2000000   0.1000000   0.3750000), wk =   0.0050000
        k(  235) = (   0.2000000   0.1000000  -0.5000000), wk =   0.0025000
        k(  236) = (   0.2000000   0.1500000   0.0000000), wk =   0.0025000
        k(  237) = (   0.2000000   0.1500000   0.1250000), wk =   0.0050000
        k(  238) = (   0.2000000   0.1500000   0.2500000), wk =   0.0050000
        k(  239) = (   0.2000000   0.1500000   0.3750000), wk =   0.0050000
        k(  240) = (   0.2000000   0.1500000  -0.5000000), wk =   0.0025000
        k(  241) = (   0.2000000   0.2000000   0.0000000), wk =   0.0025000
        k(  242) = (   0.2000000   0.2000000   0.1250000), wk =   0.0050000
        k(  243) = (   0.2000000   0.2000000   0.2500000), wk =   0.0050000
        k(  244) = (   0.2000000   0.2000000   0.3750000), wk =   0.0050000
        k(  245) = (   0.2000000   0.2000000  -0.5000000), wk =   0.0025000
        k(  246) = (   0.2000000   0.2500000   0.0000000), wk =   0.0025000
        k(  247) = (   0.2000000   0.2500000   0.1250000), wk =   0.0050000
        k(  248) = (   0.2000000   0.2500000   0.2500000), wk =   0.0050000
        k(  249) = (   0.2000000   0.2500000   0.3750000), wk =   0.0050000
        k(  250) = (   0.2000000   0.2500000  -0.5000000), wk =   0.0025000
        k(  251) = (   0.2000000   0.3000000   0.0000000), wk =   0.0025000
        k(  252) = (   0.2000000   0.3000000   0.1250000), wk =   0.0050000
        k(  253) = (   0.2000000   0.3000000   0.2500000), wk =   0.0050000
        k(  254) = (   0.2000000   0.3000000   0.3750000), wk =   0.0050000
        k(  255) = (   0.2000000   0.3000000  -0.5000000), wk =   0.0025000
        k(  256) = (   0.2000000   0.3500000   0.0000000), wk =   0.0025000
        k(  257) = (   0.2000000   0.3500000   0.1250000), wk =   0.0050000
        k(  258) = (   0.2000000   0.3500000   0.2500000), wk =   0.0050000
        k(  259) = (   0.2000000   0.3500000   0.3750000), wk =   0.0050000
        k(  260) = (   0.2000000   0.3500000  -0.5000000), wk =   0.0025000
        k(  261) = (   0.2000000   0.4000000   0.0000000), wk =   0.0025000
        k(  262) = (   0.2000000   0.4000000   0.1250000), wk =   0.0050000
        k(  263) = (   0.2000000   0.4000000   0.2500000), wk =   0.0050000
        k(  264) = (   0.2000000   0.4000000   0.3750000), wk =   0.0050000
        k(  265) = (   0.2000000   0.4000000  -0.5000000), wk =   0.0025000
        k(  266) = (   0.2000000   0.4500000   0.0000000), wk =   0.0025000
        k(  267) = (   0.2000000   0.4500000   0.1250000), wk =   0.0050000
        k(  268) = (   0.2000000   0.4500000   0.2500000), wk =   0.0050000
        k(  269) = (   0.2000000   0.4500000   0.3750000), wk =   0.0050000
        k(  270) = (   0.2000000   0.4500000  -0.5000000), wk =   0.0025000
        k(  271) = (   0.2000000  -0.5000000   0.0000000), wk =   0.0012500
        k(  272) = (   0.2000000  -0.5000000   0.1250000), wk =   0.0025000
        k(  273) = (   0.2000000  -0.5000000   0.2500000), wk =   0.0025000
        k(  274) = (   0.2000000  -0.5000000   0.3750000), wk =   0.0025000
        k(  275) = (   0.2000000  -0.5000000  -0.5000000), wk =   0.0012500
        k(  276) = (   0.2500000   0.0000000   0.0000000), wk =   0.0012500
        k(  277) = (   0.2500000   0.0000000   0.1250000), wk =   0.0025000
        k(  278) = (   0.2500000   0.0000000   0.2500000), wk =   0.0025000
        k(  279) = (   0.2500000   0.0000000   0.3750000), wk =   0.0025000
        k(  280) = (   0.2500000   0.0000000  -0.5000000), wk =   0.0012500
        k(  281) = (   0.2500000   0.0500000   0.0000000), wk =   0.0025000
[...]
     1.0000   1.0000   1.0000   1.0000   1.0000   1.0000   1.0000   1.0000
     0.0000   0.0000   0.0000   0.0000   0.0000   0.0000   0.0000   0.0000
     0.0000   0.0000   0.0000   0.0000   0.0000   0.0000   0.0000   0.0000
     0.0000   0.0000   0.0000   0.0000   0.0000   0.0000   0.0000   0.0000
     0.0000   0.0000   0.0000   0.0000   0.0000   0.0000

          k =-0.5000 0.4368 0.1479 (  4096 PWs)   bands (ev):

   -13.7571 -13.7571 -13.7536 -13.7536 -13.7343 -13.7343 -13.7310 -13.7310
   -13.7233 -13.7233 -13.7171 -13.7171 -13.7011 -13.7011 -13.6946 -13.6946
   -13.6789 -13.6789 -13.6729 -13.6729  -4.8934  -4.8934  -4.7899  -4.7899
     0.5816   0.5816   1.0940   1.0940   3.0824   3.0824   3.3670   3.3670
     4.0921   4.0921   4.5342   4.5342   5.8624   5.8624   6.3066   6.3066
     9.8126   9.8126  10.4754  10.4754  11.9426  11.9426  12.0435  12.0435
    13.4641  13.4641  13.7289  13.7289  14.1417  14.1417  14.8698  14.8698
    16.7885  16.7885  17.5790  17.5790  18.1756  18.1756  18.4744  18.4744
    18.9102  18.9102  19.1759  19.1759  20.0817  20.0817

     occupation numbers 
     1.0000   1.0000   1.0000   1.0000   1.0000   1.0000   1.0000   1.0000
     1.0000   1.0000   1.0000   1.0000   1.0000   1.0000   1.0000   1.0000
     1.0000   1.0000   1.0000   1.0000   1.0000   1.0000   1.0000   1.0000
     1.0000   1.0000   1.0000   1.0000   1.0000   1.0000   1.0000   1.0000
     1.0000   1.0000   1.0000   1.0000   1.0000   1.0000   1.0000   1.0000
     0.0000   0.0000   0.0000   0.0000   0.0000   0.0000   0.0000   0.0000
     0.0000   0.0000   0.0000   0.0000   0.0000   0.0000   0.0000   0.0000
     0.0000   0.0000   0.0000   0.0000   0.0000   0.0000   0.0000   0.0000
     0.0000   0.0000   0.0000   0.0000   0.0000   0.0000

          k =-0.5000 0.4368-0.1972 (  4100 PWs)   bands (ev):

   -13.7568 -13.7568 -13.7540 -13.7540 -13.7341 -13.7341 -13.7314 -13.7314
   -13.7230 -13.7230 -13.7173 -13.7173 -13.7007 -13.7007 -13.6949 -13.6949
   -13.6788 -13.6788 -13.6729 -13.6729  -4.8932  -4.8932  -4.7901  -4.7901
     0.5843   0.5843   1.0884   1.0884   3.1864   3.1864   3.2536   3.2536
     4.1745   4.1745   4.4126   4.4126   6.0169   6.0169   6.2168   6.2168
     9.8638   9.8638  10.3621  10.3621  11.9264  11.9264  12.0193  12.0193
    13.5163  13.5163  13.7214  13.7214  14.4986  14.4986  14.6353  14.6353
    16.8516  16.8516  17.4145  17.4145  18.1807  18.1807  18.4339  18.4339
    18.8469  18.8469  19.1773  19.1773  20.1654  20.1654

     occupation numbers 
     1.0000   1.0000   1.0000   1.0000   1.0000   1.0000   1.0000   1.0000
     1.0000   1.0000   1.0000   1.0000   1.0000   1.0000   1.0000   1.0000
     1.0000   1.0000   1.0000   1.0000   1.0000   1.0000   1.0000   1.0000
     1.0000   1.0000   1.0000   1.0000   1.0000   1.0000   1.0000   1.0000
     1.0000   1.0000   1.0000   1.0000   1.0000   1.0000   1.0000   1.0000
     0.0000   0.0000   0.0000   0.0000   0.0000   0.0000   0.0000   0.0000
     0.0000   0.0000   0.0000   0.0000   0.0000   0.0000   0.0000   0.0000
     0.0000   0.0000   0.0000   0.0000   0.0000   0.0000   0.0000   0.0000
     0.0000   0.0000   0.0000   0.0000   0.0000   0.0000

          k =-0.5000 0.4914 0.0000 (  4080 PWs)   bands (ev):

   -13.7593 -13.7593 -13.7535 -13.7535 -13.7347 -13.7347 -13.7276 -13.7276
   -13.7242 -13.7242 -13.7169 -13.7169 -13.7023 -13.7023 -13.6939 -13.6939
   -13.6783 -13.6783 -13.6729 -13.6729  -4.8397  -4.8397  -4.7850  -4.7850
     0.7173   0.7173   1.0293   1.0293   2.8240   2.8240   3.4158   3.4158
     4.0461   4.0461   4.6966   4.6966   5.3705   5.3705   6.2773   6.2773
    10.0078  10.0078  10.6884  10.6884  12.1286  12.1286  12.3022  12.3022
    12.9997  12.9997  13.8321  13.8321  14.0170  14.0170  14.6453  14.6453
    17.2247  17.2247  17.6824  17.6824  17.9505  17.9505  19.3482  19.3482
    19.3753  19.3753  19.7671  19.7671  20.1290  20.1290

     occupation numbers 
     1.0000   1.0000   1.0000   1.0000   1.0000   1.0000   1.0000   1.0000
     1.0000   1.0000   1.0000   1.0000   1.0000   1.0000   1.0000   1.0000
     1.0000   1.0000   1.0000   1.0000   1.0000   1.0000   1.0000   1.0000
     1.0000   1.0000   1.0000   1.0000   1.0000   1.0000   1.0000   1.0000
     1.0000   1.0000   1.0000   1.0000   1.0000   1.0000   1.0000   1.0000
     0.0000   0.0000   0.0000   0.0000   0.0000   0.0000   0.0000   0.0000
     0.0000   0.0000   0.0000   0.0000   0.0000   0.0000   0.0000   0.0000
     0.0000   0.0000   0.0000   0.0000   0.0000   0.0000   0.0000   0.0000
     0.0000   0.0000   0.0000   0.0000   0.0000   0.0000

          k =-0.5000 0.4914 0.0493 (  4088 PWs)   bands (ev):

   -13.7591 -13.7591 -13.7537 -13.7537 -13.7346 -13.7346 -13.7283 -13.7283
   -13.7237 -13.7237 -13.7171 -13.7171 -13.7019 -13.7019 -13.6942 -13.6942
   -13.6782 -13.6782 -13.6730 -13.6730  -4.8396  -4.8396  -4.7852  -4.7852
     0.7192   0.7192   1.0241   1.0241   2.8498   2.8498   3.4318   3.4318
     3.9868   3.9868   4.6383   4.6383   5.4584   5.4584   6.2954   6.2954
     9.9747   9.9747  10.6230  10.6230  12.1207  12.1207  12.2678  12.2678
    13.1344  13.1344  13.8522  13.8522  14.0169  14.0169  14.7202  14.7202
    17.1106  17.1106  17.6681  17.6681  17.9842  17.9842  19.2369  19.2369
    19.3501  19.3501  19.6654  19.6654  20.0437  20.0437

     occupation numbers 
     1.0000   1.0000   1.0000   1.0000   1.0000   1.0000   1.0000   1.0000
     1.0000   1.0000   1.0000   1.0000   1.0000   1.0000   1.0000   1.0000
     1.0000   1.0000   1.0000   1.0000   1.0000   1.0000   1.0000   1.0000
     1.0000   1.0000   1.0000   1.0000   1.0000   1.0000   1.0000   1.0000
     1.0000   1.0000   1.0000   1.0000   1.0000   1.0000   1.0000   1.0000
     0.0000   0.0000   0.0000   0.0000   0.0000   0.0000   0.0000   0.0000
     0.0000   0.0000   0.0000   0.0000   0.0000   0.0000   0.0000   0.0000
     0.0000   0.0000   0.0000   0.0000   0.0000   0.0000   0.0000   0.0000
     0.0000   0.0000   0.0000   0.0000   0.0000   0.0000

          k =-0.5000 0.4914 0.0986 (  4088 PWs)   bands (ev):

   -13.7585 -13.7585 -13.7543 -13.7543 -13.7342 -13.7342 -13.7295 -13.7295
   -13.7227 -13.7227 -13.7176 -13.7176 -13.7010 -13.7010 -13.6949 -13.6949
   -13.6777 -13.6777 -13.6734 -13.6734  -4.8393  -4.8393  -4.7855  -4.7855
     0.7241   0.7241   1.0114   1.0114   2.9256   2.9256   3.4444   3.4444
     3.8907   3.8907   4.4868   4.4868   5.6695   5.6695   6.3160   6.3160
     9.9135   9.9135  10.4581  10.4581  12.1031  12.1031  12.2056  12.2056
    13.4550  13.4550  13.9225  13.9225  14.0063  14.0063  14.8663  14.8663
    16.8954  16.8954  17.6137  17.6137  18.0369  18.0369  18.8440  18.8440
    19.2942  19.2942  19.5575  19.5575  19.9887  19.9887

     occupation numbers 
     1.0000   1.0000   1.0000   1.0000   1.0000   1.0000   1.0000   1.0000
     1.0000   1.0000   1.0000   1.0000   1.0000   1.0000   1.0000   1.0000
     1.0000   1.0000   1.0000   1.0000   1.0000   1.0000   1.0000   1.0000
     1.0000   1.0000   1.0000   1.0000   1.0000   1.0000   1.0000   1.0000
     1.0000   1.0000   1.0000   1.0000   1.0000   1.0000   1.0000   1.0000
     0.0000   0.0000   0.0000   0.0000   0.0000   0.0000   0.0000   0.0000
     0.0000   0.0000   0.0000   0.0000   0.0000   0.0000   0.0000   0.0000
     0.0000   0.0000   0.0000   0.0000   0.0000   0.0000   0.0000   0.0000
     0.0000   0.0000   0.0000   0.0000   0.0000   0.0000

          k =-0.5000 0.4914 0.1479 (  4088 PWs)   bands (ev):

   -13.7577 -13.7577 -13.7551 -13.7551 -13.7335 -13.7335 -13.7308 -13.7308
   -13.7217 -13.7217 -13.7182 -13.7182 -13.6999 -13.6999 -13.6958 -13.6958
   -13.6772 -13.6772 -13.6738 -13.6738  -4.8390  -4.8390  -4.7858  -4.7858
     0.7294   0.7294   0.9984   0.9984   3.0451   3.0451   3.3637   3.3637
     3.9077   3.9077   4.2957   4.2957   5.9141   5.9141   6.2780   6.2780
     9.8924   9.8924  10.2666  10.2666  12.0855  12.0855  12.1628  12.1628
    13.7404  13.7404  13.9584  13.9584  14.1619  14.1619  14.8578  14.8578
    16.8421  16.8421  17.4551  17.4551  18.0856  18.0856  18.4141  18.4141
    19.2477  19.2477  19.5254  19.5254  20.0352  20.0352

     occupation numbers 
     1.0000   1.0000   1.0000   1.0000   1.0000   1.0000   1.0000   1.0000
     1.0000   1.0000   1.0000   1.0000   1.0000   1.0000   1.0000   1.0000
     1.0000   1.0000   1.0000   1.0000   1.0000   1.0000   1.0000   1.0000
     1.0000   1.0000   1.0000   1.0000   1.0000   1.0000   1.0000   1.0000
     1.0000   1.0000   1.0000   1.0000   1.0000   1.0000   1.0000   1.0000
     0.0000   0.0000   0.0000   0.0000   0.0000   0.0000   0.0000   0.0000
     0.0000   0.0000   0.0000   0.0000   0.0000   0.0000   0.0000   0.0000
     0.0000   0.0000   0.0000   0.0000   0.0000   0.0000   0.0000   0.0000
     0.0000   0.0000   0.0000   0.0000   0.0000   0.0000

          k =-0.5000 0.4914-0.1972 (  4080 PWs)   bands (ev):

   -13.7571 -13.7571 -13.7557 -13.7557 -13.7330 -13.7330 -13.7315 -13.7315
   -13.7213 -13.7213 -13.7185 -13.7185 -13.6993 -13.6993 -13.6964 -13.6964
   -13.6769 -13.6769 -13.6740 -13.6740  -4.8389  -4.8389  -4.7859  -4.7859
     0.7317   0.7317   0.9928   0.9928   3.1664   3.1664   3.2408   3.2408
     3.9900   3.9900   4.1641   4.1641   6.0866   6.0866   6.1854   6.1854
     9.9102   9.9102  10.1642  10.1642  12.0779  12.0779  12.1492  12.1492
    13.8301  13.8301  13.9275  13.9275  14.5108  14.5108  14.6119  14.6119
    16.9859  16.9859  17.2423  17.2423  18.1544  18.1544  18.2021  18.2021
    19.2322  19.2322  19.5188  19.5188  20.1070  20.1070

     occupation numbers 
     1.0000   1.0000   1.0000   1.0000   1.0000   1.0000   1.0000   1.0000
     1.0000   1.0000   1.0000   1.0000   1.0000   1.0000   1.0000   1.0000
     1.0000   1.0000   1.0000   1.0000   1.0000   1.0000   1.0000   1.0000
     1.0000   1.0000   1.0000   1.0000   1.0000   1.0000   1.0000   1.0000
     1.0000   1.0000   1.0000   1.0000   1.0000   1.0000   1.0000   1.0000
     0.0000   0.0000   0.0000   0.0000   0.0000   0.0000   0.0000   0.0000
     0.0000   0.0000   0.0000   0.0000   0.0000   0.0000   0.0000   0.0000
     0.0000   0.0000   0.0000   0.0000   0.0000   0.0000   0.0000   0.0000
     0.0000   0.0000   0.0000   0.0000   0.0000   0.0000

          k =-0.5000-0.5460 0.0000 (  4060 PWs)   bands (ev):

   -13.7596 -13.7596 -13.7539 -13.7539 -13.7345 -13.7345 -13.7273 -13.7273
   -13.7237 -13.7237 -13.7174 -13.7174 -13.7020 -13.7020 -13.6942 -13.6942
   -13.6778 -13.6778 -13.6731 -13.6731  -4.8069  -4.8069  -4.7974  -4.7974
     0.8097   0.8097   0.9542   0.9542   2.8054   2.8054   3.3737   3.3737
     4.0581   4.0581   4.5956   4.5956   5.3847   5.3847   6.2430   6.2430
    10.1764  10.1764  10.5216  10.5216  12.1542  12.1542  12.2796  12.2796
    13.0684  13.0684  13.9098  13.9098  14.0945  14.0945  14.6685  14.6685
    17.2216  17.2216  17.5975  17.5975  17.8927  17.8927  19.6053  19.6053
    19.6880  19.6880  20.0011  20.0011  20.1325  20.1325

     occupation numbers 
     1.0000   1.0000   1.0000   1.0000   1.0000   1.0000   1.0000   1.0000
     1.0000   1.0000   1.0000   1.0000   1.0000   1.0000   1.0000   1.0000
     1.0000   1.0000   1.0000   1.0000   1.0000   1.0000   1.0000   1.0000
     1.0000   1.0000   1.0000   1.0000   1.0000   1.0000   1.0000   1.0000
     1.0000   1.0000   1.0000   1.0000   1.0000   1.0000   1.0000   1.0000
     0.0000   0.0000   0.0000   0.0000   0.0000   0.0000   0.0000   0.0000
     0.0000   0.0000   0.0000   0.0000   0.0000   0.0000   0.0000   0.0000
     0.0000   0.0000   0.0000   0.0000   0.0000   0.0000   0.0000   0.0000
     0.0000   0.0000   0.0000   0.0000   0.0000   0.0000

          k =-0.5000-0.5460 0.0493 (  4072 PWs)   bands (ev):

   -13.7594 -13.7594 -13.7541 -13.7541 -13.7344 -13.7344 -13.7280 -13.7280
   -13.7231 -13.7231 -13.7176 -13.7176 -13.7017 -13.7017 -13.6944 -13.6944
   -13.6776 -13.6776 -13.6733 -13.6733  -4.8066  -4.8066  -4.7978  -4.7978
     0.8136   0.8136   0.9468   0.9468   2.8333   2.8333   3.3934   3.3934
     3.9913   3.9913   4.5365   4.5365   5.4761   5.4761   6.2638   6.2638
    10.1235  10.1235  10.4672  10.4672  12.1577  12.1577  12.2565  12.2565
    13.1921  13.1921  13.9274  13.9274  14.0970  14.0970  14.7373  14.7373
    17.1072  17.1072  17.5898  17.5898  17.9280  17.9280  19.4044  19.4044
    19.6302  19.6302  19.9030  19.9030  20.1244  20.1244

     occupation numbers 
     1.0000   1.0000   1.0000   1.0000   1.0000   1.0000   1.0000   1.0000
     1.0000   1.0000   1.0000   1.0000   1.0000   1.0000   1.0000   1.0000
     1.0000   1.0000   1.0000   1.0000   1.0000   1.0000   1.0000   1.0000
     1.0000   1.0000   1.0000   1.0000   1.0000   1.0000   1.0000   1.0000
     1.0000   1.0000   1.0000   1.0000   1.0000   1.0000   1.0000   1.0000
     0.0000   0.0000   0.0000   0.0000   0.0000   0.0000   0.0000   0.0000
     0.0000   0.0000   0.0000   0.0000   0.0000   0.0000   0.0000   0.0000
     0.0000   0.0000   0.0000   0.0000   0.0000   0.0000   0.0000   0.0000
     0.0000   0.0000   0.0000   0.0000   0.0000   0.0000

          k =-0.5000-0.5460 0.0986 (  4088 PWs)   bands (ev):

   -13.7588 -13.7588 -13.7548 -13.7548 -13.7340 -13.7340 -13.7293 -13.7293
   -13.7220 -13.7220 -13.7181 -13.7181 -13.7007 -13.7007 -13.6952 -13.6952
   -13.6770 -13.6770 -13.6738 -13.6738  -4.8055  -4.8055  -4.7988  -4.7988
     0.8252   0.8252   0.9267   0.9267   2.9151   2.9151   3.4231   3.4231
     3.8698   3.8698   4.3842   4.3842   5.6915   5.6915   6.2926   6.2926
    10.0197  10.0197  10.3246  10.3246  12.1600  12.1600  12.2106  12.2106
    13.5093  13.5093  13.9896  13.9896  14.0843  14.0843  14.8727  14.8727
    16.8987  16.8987  17.5508  17.5508  17.9810  17.9810  18.8654  18.8654
    19.5537  19.5537  19.7917  19.7917  20.1039  20.1039

     occupation numbers 
     1.0000   1.0000   1.0000   1.0000   1.0000   1.0000   1.0000   1.0000
     1.0000   1.0000   1.0000   1.0000   1.0000   1.0000   1.0000   1.0000
     1.0000   1.0000   1.0000   1.0000   1.0000   1.0000   1.0000   1.0000
     1.0000   1.0000   1.0000   1.0000   1.0000   1.0000   1.0000   1.0000
     1.0000   1.0000   1.0000   1.0000   1.0000   1.0000   1.0000   1.0000
     0.0000   0.0000   0.0000   0.0000   0.0000   0.0000   0.0000   0.0000
     0.0000   0.0000   0.0000   0.0000   0.0000   0.0000   0.0000   0.0000
     0.0000   0.0000   0.0000   0.0000   0.0000   0.0000   0.0000   0.0000
     0.0000   0.0000   0.0000   0.0000   0.0000   0.0000

          k =-0.5000-0.5460 0.1479 (  4068 PWs)   bands (ev):

   -13.7579 -13.7579 -13.7557 -13.7557 -13.7332 -13.7332 -13.7308 -13.7308
   -13.7209 -13.7209 -13.7189 -13.7189 -13.6993 -13.6993 -13.6964 -13.6964
   -13.6762 -13.6762 -13.6745 -13.6745  -4.8040  -4.8040  -4.8004  -4.8004
     0.8445   0.8445   0.8991   0.8991   3.0441   3.0441   3.3616   3.3616
     3.8610   3.8610   4.1887   4.1887   5.9374   5.9374   6.2656   6.2656
     9.9635   9.9635  10.1490  10.1490  12.1578  12.1578  12.1750  12.1750
    13.8329  13.8329  14.0426  14.0426  14.1795  14.1795  14.8564  14.8564
    16.8625  16.8625  17.4126  17.4126  18.0234  18.0234  18.3587  18.3587
    19.5466  19.5466  19.6961  19.6961  20.1123  20.1123

     occupation numbers 
     1.0000   1.0000   1.0000   1.0000   1.0000   1.0000   1.0000   1.0000
     1.0000   1.0000   1.0000   1.0000   1.0000   1.0000   1.0000   1.0000
     1.0000   1.0000   1.0000   1.0000   1.0000   1.0000   1.0000   1.0000
     1.0000   1.0000   1.0000   1.0000   1.0000   1.0000   1.0000   1.0000
     1.0000   1.0000   1.0000   1.0000   1.0000   1.0000   1.0000   1.0000
     0.0000   0.0000   0.0000   0.0000   0.0000   0.0000   0.0000   0.0000
     0.0000   0.0000   0.0000   0.0000   0.0000   0.0000   0.0000   0.0000
     0.0000   0.0000   0.0000   0.0000   0.0000   0.0000   0.0000   0.0000
     0.0000   0.0000   0.0000   0.0000   0.0000   0.0000

          k =-0.5000-0.5460-0.1972 (  4088 PWs)   bands (ev):

   -13.7568 -13.7568 -13.7568 -13.7568 -13.7321 -13.7321 -13.7321 -13.7321
   -13.7198 -13.7198 -13.7198 -13.7198 -13.6978 -13.6978 -13.6978 -13.6978
   -13.6753 -13.6753 -13.6753 -13.6753  -4.8022  -4.8022  -4.8022  -4.8022
     0.8701   0.8701   0.8701   0.8701   3.2055   3.2055   3.2055   3.2055
     3.9965   3.9965   3.9965   3.9965   6.1441   6.1441   6.1441   6.1441
    10.0100  10.0100  10.0100  10.0100  12.1594  12.1594  12.1594  12.1594
    13.9720  13.9720  13.9720  13.9720  14.5629  14.5629  14.5629  14.5629
    17.1127  17.1127  17.1127  17.1127  18.1042  18.1042  18.1042  18.1042
    19.6051  19.6051  19.6051  19.6051  20.1315  20.1315

     occupation numbers 
     1.0000   1.0000   1.0000   1.0000   1.0000   1.0000   1.0000   1.0000
     1.0000   1.0000   1.0000   1.0000   1.0000   1.0000   1.0000   1.0000
     1.0000   1.0000   1.0000   1.0000   1.0000   1.0000   1.0000   1.0000
     1.0000   1.0000   1.0000   1.0000   1.0000   1.0000   1.0000   1.0000
     1.0000   1.0000   1.0000   1.0000   1.0000   1.0000   1.0000   1.0000
     0.0000   0.0000   0.0000   0.0000   0.0000   0.0000   0.0000   0.0000
     0.0000   0.0000   0.0000   0.0000   0.0000   0.0000   0.0000   0.0000
     0.0000   0.0000   0.0000   0.0000   0.0000   0.0000   0.0000   0.0000
     0.0000   0.0000   0.0000   0.0000   0.0000   0.0000

     the Fermi energy is     7.5453 ev
     (compare with:     8.1444 eV, computed in scf)

     Writing all to output data dir ./tmp/SnSe_pnma.save/ :
     XML data file, pseudopotentials, collected wavefunctions
 
     init_run     :      0.77s CPU      1.88s WALL (       1 calls)
     electrons    :   1110.50s CPU   2565.61s WALL (       1 calls)

     Called by init_run:
     wfcinit      :      0.00s CPU      0.01s WALL (       1 calls)
     wfcinit:atom :      0.08s CPU      0.11s WALL (     152 calls)
     wfcinit:wfcr :     20.40s CPU     49.74s WALL (     152 calls)
     potinit      :      0.16s CPU      0.35s WALL (       1 calls)
     hinit0       :      0.20s CPU      0.50s WALL (       1 calls)

     Called by electrons:
     c_bands      :   1109.61s CPU   2563.83s WALL (       1 calls)
     v_of_rho     :      0.11s CPU      0.26s WALL (       1 calls)
     v_h          :      0.00s CPU      0.00s WALL (       1 calls)
     v_xc         :      0.11s CPU      0.26s WALL (       1 calls)
     newd         :      0.14s CPU      0.37s WALL (       1 calls)

     Called by c_bands:
     init_us_2    :      0.22s CPU      0.34s WALL (     152 calls)
     cegterg      :    976.47s CPU   2285.79s WALL (     612 calls)

     Called by sum_band:

     Called by *egterg:
     cdiaghg      :     97.49s CPU    212.98s WALL (   10887 calls)
     cegterg:over :     86.41s CPU    202.70s WALL (   10735 calls)
     cegterg:upda :     21.76s CPU     36.74s WALL (   10735 calls)
     cegterg:last :     62.58s CPU    114.72s WALL (    6877 calls)
     h_psi        :    649.46s CPU   1575.31s WALL (   11499 calls)
     s_psi        :     22.67s CPU     47.45s WALL (   11499 calls)
     g_psi        :      1.32s CPU      2.07s WALL (   10735 calls)

     Called by h_psi:
     h_psi:calbec :     51.94s CPU    122.22s WALL (   11499 calls)
     vloc_psi     :    572.56s CPU   1409.19s WALL (   11499 calls)
     add_vuspsi   :     22.81s CPU     41.03s WALL (   11499 calls)

     General routines
     calbec       :     51.89s CPU    122.14s WALL (   11499 calls)
     fft          :      0.06s CPU      0.19s WALL (      13 calls)
     ffts         :      0.00s CPU      0.00s WALL (       1 calls)
     fftw         :    506.43s CPU   1285.08s WALL (  905870 calls)
     interpolate  :      0.01s CPU      0.03s WALL (       1 calls)
     davcio       :      0.19s CPU      0.55s WALL (     304 calls)
 
     Parallel routines
 
     PWSCF        :  18m53.58s CPU  43m37.76s WALL

 
   This run was terminated on:  18:43:33  24May2026            

=------------------------------------------------------------------------------=
   JOB DONE.
=------------------------------------------------------------------------------=
