
     Program PWSCF v.7.3.1 starts on 24May2026 at 17:47: 8 

     This program is part of the open-source Quantum ESPRESSO suite
     for quantum simulation of materials; please cite
         "P. Giannozzi et al., J. Phys.:Condens. Matter 21 395502 (2009);
         "P. Giannozzi et al., J. Phys.:Condens. Matter 29 465901 (2017);
         "P. Giannozzi et al., J. Chem. Phys. 152 154105 (2020);
          URL http://www.quantum-espresso.org", 
     in publications or presentations arising from this work. More details at
     http://www.quantum-espresso.org/quote

     Parallel version (MPI & OpenMP), running on       8 processor cores
     Number of MPI processes:                 8
     Threads/MPI process:                     1

     MPI processes distributed on     1 nodes
     7533 MiB available memory on the printing compute node when the environment starts
 
     Waiting for input...
     Reading input from standard input

     Current dimensions of program PWSCF are:
     Max number of different atomic species (ntypx) = 10
     Max number of k-points (npk) =  40000
     Max angular momentum in pseudopotentials (lmaxx) =  4

     Atomic positions and unit cell read from directory:
     ./tmp/SnSe_pnma.save/
 
 
     K-points division:     npool     =       8
     Subspace diagonalization in iterative solution of the eigenvalue problem:
     a serial algorithm will be used

 
     G-vector sticks info
     --------------------
     sticks:   dense  smooth     PW     G-vecs:    dense   smooth      PW
     Sum        1629     641    203               130013    32833    5523
 
     Using Slab Decomposition
 


     bravais-lattice index     =            8
     lattice parameter (alat)  =       8.6086  a.u.
     unit-cell volume          =    1481.0643 (a.u.)^3
     number of atoms/cell      =            8
     number of atomic types    =            2
     number of electrons       =        80.00
     number of Kohn-Sham states=           70
     kinetic-energy cutoff     =      30.0000  Ry
     charge density cutoff     =     300.0000  Ry
     Exchange-correlation= SLA  PW   PBE  PBE
                           (   1   4   3   4   0   0   0)

     celldm(1)=   8.608647  celldm(2)=   0.915684  celldm(3)=   2.535265
     celldm(4)=   0.000000  celldm(5)=   0.000000  celldm(6)=   0.000000

     crystal axes: (cart. coord. in units of alat)
               a(1) = (   1.000000   0.000000   0.000000 )  
               a(2) = (   0.000000   0.915684   0.000000 )  
               a(3) = (   0.000000   0.000000   2.535265 )  

     reciprocal axes: (cart. coord. in units 2 pi/alat)
               b(1) = (  1.000000  0.000000  0.000000 )  
               b(2) = (  0.000000  1.092079  0.000000 )  
               b(3) = (  0.000000  0.000000  0.394436 )  


     PseudoPot. # 1 for Sn read from file:
     ../pseudo/Sn_pbe_v1.uspp.F.UPF
     MD5 check sum: 4cf58ce39ec5d5d420df3dd08604eb00
     Pseudo is Ultrasoft + core correction, Zval = 14.0
     Generated by new atomic code, or converted to UPF format
     Using radial grid of  891 points,  6 beta functions with: 
                l(1) =   0
                l(2) =   0
                l(3) =   1
                l(4) =   1
                l(5) =   2
                l(6) =   2
     Q(r) pseudized with  6 coefficients,  rinner =    1.200   1.200   1.200
                                                       1.200   1.200

     PseudoPot. # 2 for Se read from file:
     ../pseudo/Se_pbe_v1.uspp.F.UPF
     MD5 check sum: 1b3568f3a8ae88f9a2a0ad0698632c85
     Pseudo is Ultrasoft + core correction, Zval =  6.0
     Generated by new atomic code, or converted to UPF format
     Using radial grid of  877 points,  6 beta functions with: 
                l(1) =   0
                l(2) =   0
                l(3) =   1
                l(4) =   1
                l(5) =   2
                l(6) =   2
     Q(r) pseudized with  8 coefficients,  rinner =    1.300   1.300   1.300
                                                       1.300   1.300

     atomic species   valence    mass     pseudopotential
     Sn               14.00   118.71000     Sn( 1.00)
     Se                6.00    78.97100     Se( 1.00)

      8 Sym. Ops., with inversion, found ( 6 have fractional translation)


                                    s                        frac. trans.

      isym =  1     identity                                     

 cryst.   s( 1) = (     1          0          0      )
                  (     0          1          0      )
                  (     0          0          1      )

 cart.    s( 1) = (  1.0000000  0.0000000  0.0000000 )
                  (  0.0000000  1.0000000  0.0000000 )
                  (  0.0000000  0.0000000  1.0000000 )


      isym =  2     180 deg rotation - cart. axis [0,0,1]        

 cryst.   s( 2) = (    -1          0          0      )    f =(  0.5000000 )
                  (     0         -1          0      )       (  0.5000000 )
                  (     0          0          1      )       (  0.5000000 )

 cart.    s( 2) = ( -1.0000000  0.0000000  0.0000000 )    f =(  0.5000000 )
                  (  0.0000000 -1.0000000  0.0000000 )       (  0.4578422 )
                  (  0.0000000  0.0000000  1.0000000 )       (  1.2676325 )


      isym =  3     180 deg rotation - cart. axis [0,1,0]        

 cryst.   s( 3) = (    -1          0          0      )    f =( -0.0000000 )
                  (     0          1          0      )       (  0.5000000 )
                  (     0          0         -1      )       ( -0.0000000 )

 cart.    s( 3) = ( -1.0000000  0.0000000  0.0000000 )    f =( -0.0000000 )
                  (  0.0000000  1.0000000  0.0000000 )       (  0.4578422 )
                  (  0.0000000  0.0000000 -1.0000000 )       ( -0.0000000 )


      isym =  4     180 deg rotation - cart. axis [1,0,0]        

 cryst.   s( 4) = (     1          0          0      )    f =( -0.5000000 )
                  (     0         -1          0      )       ( -0.0000000 )
                  (     0          0         -1      )       (  0.5000000 )

 cart.    s( 4) = (  1.0000000  0.0000000  0.0000000 )    f =( -0.5000000 )
                  (  0.0000000 -1.0000000  0.0000000 )       ( -0.0000000 )
                  (  0.0000000  0.0000000 -1.0000000 )       (  1.2676325 )


      isym =  5     inversion                                    

 cryst.   s( 5) = (    -1          0          0      )
                  (     0         -1          0      )
                  (     0          0         -1      )

 cart.    s( 5) = ( -1.0000000  0.0000000  0.0000000 )
                  (  0.0000000 -1.0000000  0.0000000 )
                  (  0.0000000  0.0000000 -1.0000000 )


      isym =  6     inv. 180 deg rotation - cart. axis [0,0,1]   

 cryst.   s( 6) = (     1          0          0      )    f =( -0.5000000 )
                  (     0          1          0      )       (  0.5000000 )
                  (     0          0         -1      )       (  0.5000000 )

 cart.    s( 6) = (  1.0000000  0.0000000  0.0000000 )    f =( -0.5000000 )
                  (  0.0000000  1.0000000  0.0000000 )       (  0.4578422 )
                  (  0.0000000  0.0000000 -1.0000000 )       (  1.2676325 )


      isym =  7     inv. 180 deg rotation - cart. axis [0,1,0]   

 cryst.   s( 7) = (     1          0          0      )    f =(  0.0000000 )
                  (     0         -1          0      )       (  0.5000000 )
                  (     0          0          1      )       (  0.0000000 )

 cart.    s( 7) = (  1.0000000  0.0000000  0.0000000 )    f =(  0.0000000 )
                  (  0.0000000 -1.0000000  0.0000000 )       (  0.4578422 )
                  (  0.0000000  0.0000000  1.0000000 )       (  0.0000000 )


      isym =  8     inv. 180 deg rotation - cart. axis [1,0,0]   

 cryst.   s( 8) = (    -1          0          0      )    f =(  0.5000000 )
                  (     0          1          0      )       (  0.0000000 )
                  (     0          0          1      )       (  0.5000000 )

 cart.    s( 8) = ( -1.0000000  0.0000000  0.0000000 )    f =(  0.5000000 )
                  (  0.0000000  1.0000000  0.0000000 )       (  0.0000000 )
                  (  0.0000000  0.0000000  1.0000000 )       (  1.2676325 )


     point group D_2h (mmm) 
     there are  8 classes
     the character table:

       E     C2    C2'   C2''  i     s_v   s_v'  s_v''
A_g    1.00  1.00  1.00  1.00  1.00  1.00  1.00  1.00
B_1g   1.00  1.00 -1.00 -1.00  1.00  1.00 -1.00 -1.00
B_2g   1.00 -1.00  1.00 -1.00  1.00 -1.00  1.00 -1.00
B_3g   1.00 -1.00 -1.00  1.00  1.00 -1.00 -1.00  1.00
A_u    1.00  1.00  1.00  1.00 -1.00 -1.00 -1.00 -1.00
B_1u   1.00  1.00 -1.00 -1.00 -1.00 -1.00  1.00  1.00
B_2u   1.00 -1.00  1.00 -1.00 -1.00  1.00 -1.00  1.00
B_3u   1.00 -1.00 -1.00  1.00 -1.00  1.00  1.00 -1.00

     the symmetry operations in each class and the name of the first element:

     E        1
          identity                                               
     C2       2
          180 deg rotation - cart. axis [0,0,1]                  
     C2'      4
          180 deg rotation - cart. axis [1,0,0]                  
     C2''     3
          180 deg rotation - cart. axis [0,1,0]                  
     i        5
          inversion                                              
     s_v      6
          inv. 180 deg rotation - cart. axis [0,0,1]             
     s_v'     8
          inv. 180 deg rotation - cart. axis [1,0,0]             
     s_v''    7
          inv. 180 deg rotation - cart. axis [0,1,0]             

   Cartesian axes

     site n.     atom                  positions (alat units)
         1        Se     tau(   1) = (   0.4832481   0.6867633   2.1675410  )
         2        Sn     tau(   2) = (   0.1122870   0.6867633   0.2954585  )
         3        Se     tau(   3) = (   0.9832481   0.2289211   1.6353566  )
         4        Sn     tau(   4) = (   0.6122870   0.2289211   0.9721740  )
         5        Se     tau(   5) = (   0.0167519   0.6867633   0.8999084  )
         6        Sn     tau(   6) = (   0.3877130   0.6867633   1.5630911  )
         7        Se     tau(   7) = (   0.5167519   0.2289211   0.3677241  )
         8        Sn     tau(   8) = (   0.8877130   0.2289211   2.2398065  )

     --------------------------------------------
     DFT-D3 Dispersion Correction (3-body terms):
     --------------------------------------------
       Reference C6 values for interpolation: 

         atom   Coordination number   C6
         Se         0.000           427.35
         Se         0.990           427.57
         Se         1.981           421.05
         Sn         0.000          1255.14
         Sn         0.951          1084.09
         Sn         1.950          1010.83
         Sn         2.926           818.29
         Sn         3.912           672.20

       Values used:

         atom   Coordination number  R0_AB[au]  C6      C8
         Se         3.412            3.332    421.05  29958.36
         Sn         4.106            3.957    672.80  84444.47
         Se         3.412            3.332    421.05  29958.36
         Sn         4.106            3.957    672.80  84444.47
         Se         3.412            3.332    421.05  29958.36
         Sn         4.106            3.957    672.80  84444.47
         Se         3.412            3.332    421.05  29958.36
         Sn         4.106            3.957    672.80  84444.47

         Molecular C6 ( Ry / a.u.^6 ) =     34513.28


   Crystallographic axes

     site n.     atom                  positions (cryst. coord.)
         1        Se     tau(   1) = (  0.4832481  0.7500000  0.8549563  )
         2        Sn     tau(   2) = (  0.1122870  0.7500000  0.1165395  )
         3        Se     tau(   3) = (  0.9832481  0.2500000  0.6450437  )
         4        Sn     tau(   4) = (  0.6122870  0.2500000  0.3834605  )
         5        Se     tau(   5) = (  0.0167519  0.7500000  0.3549563  )
         6        Sn     tau(   6) = (  0.3877130  0.7500000  0.6165395  )
         7        Se     tau(   7) = (  0.5167519  0.2500000  0.1450437  )
         8        Sn     tau(   8) = (  0.8877130  0.2500000  0.8834605  )

     number of k points=   108 (tetrahedron method)
                       cart. coord. in units 2pi/alat
        k(    1) = (   0.0000000   0.0000000   0.0000000), wk =   0.0050000
        k(    2) = (   0.0000000   0.0000000   0.0986090), wk =   0.0100000
        k(    3) = (   0.0000000   0.0000000  -0.1972180), wk =   0.0050000
        k(    4) = (   0.0000000   0.1092079   0.0000000), wk =   0.0100000
        k(    5) = (   0.0000000   0.1092079   0.0986090), wk =   0.0200000
        k(    6) = (   0.0000000   0.1092079  -0.1972180), wk =   0.0100000
        k(    7) = (   0.0000000   0.2184159   0.0000000), wk =   0.0100000
        k(    8) = (   0.0000000   0.2184159   0.0986090), wk =   0.0200000
        k(    9) = (   0.0000000   0.2184159  -0.1972180), wk =   0.0100000
        k(   10) = (   0.0000000   0.3276238   0.0000000), wk =   0.0100000
        k(   11) = (   0.0000000   0.3276238   0.0986090), wk =   0.0200000
        k(   12) = (   0.0000000   0.3276238  -0.1972180), wk =   0.0100000
        k(   13) = (   0.0000000   0.4368318   0.0000000), wk =   0.0100000
        k(   14) = (   0.0000000   0.4368318   0.0986090), wk =   0.0200000
        k(   15) = (   0.0000000   0.4368318  -0.1972180), wk =   0.0100000
        k(   16) = (   0.0000000  -0.5460397   0.0000000), wk =   0.0050000
        k(   17) = (   0.0000000  -0.5460397   0.0986090), wk =   0.0100000
        k(   18) = (   0.0000000  -0.5460397  -0.1972180), wk =   0.0050000
        k(   19) = (   0.1000000   0.0000000   0.0000000), wk =   0.0100000
        k(   20) = (   0.1000000   0.0000000   0.0986090), wk =   0.0200000
        k(   21) = (   0.1000000   0.0000000  -0.1972180), wk =   0.0100000
        k(   22) = (   0.1000000   0.1092079   0.0000000), wk =   0.0200000
        k(   23) = (   0.1000000   0.1092079   0.0986090), wk =   0.0400000
        k(   24) = (   0.1000000   0.1092079  -0.1972180), wk =   0.0200000
        k(   25) = (   0.1000000   0.2184159   0.0000000), wk =   0.0200000
        k(   26) = (   0.1000000   0.2184159   0.0986090), wk =   0.0400000
        k(   27) = (   0.1000000   0.2184159  -0.1972180), wk =   0.0200000
        k(   28) = (   0.1000000   0.3276238   0.0000000), wk =   0.0200000
        k(   29) = (   0.1000000   0.3276238   0.0986090), wk =   0.0400000
        k(   30) = (   0.1000000   0.3276238  -0.1972180), wk =   0.0200000
        k(   31) = (   0.1000000   0.4368318   0.0000000), wk =   0.0200000
        k(   32) = (   0.1000000   0.4368318   0.0986090), wk =   0.0400000
        k(   33) = (   0.1000000   0.4368318  -0.1972180), wk =   0.0200000
        k(   34) = (   0.1000000  -0.5460397   0.0000000), wk =   0.0100000
        k(   35) = (   0.1000000  -0.5460397   0.0986090), wk =   0.0200000
        k(   36) = (   0.1000000  -0.5460397  -0.1972180), wk =   0.0100000
        k(   37) = (   0.2000000   0.0000000   0.0000000), wk =   0.0100000
        k(   38) = (   0.2000000   0.0000000   0.0986090), wk =   0.0200000
        k(   39) = (   0.2000000   0.0000000  -0.1972180), wk =   0.0100000
        k(   40) = (   0.2000000   0.1092079   0.0000000), wk =   0.0200000
        k(   41) = (   0.2000000   0.1092079   0.0986090), wk =   0.0400000
        k(   42) = (   0.2000000   0.1092079  -0.1972180), wk =   0.0200000
        k(   43) = (   0.2000000   0.2184159   0.0000000), wk =   0.0200000
        k(   44) = (   0.2000000   0.2184159   0.0986090), wk =   0.0400000
        k(   45) = (   0.2000000   0.2184159  -0.1972180), wk =   0.0200000
        k(   46) = (   0.2000000   0.3276238   0.0000000), wk =   0.0200000
        k(   47) = (   0.2000000   0.3276238   0.0986090), wk =   0.0400000
        k(   48) = (   0.2000000   0.3276238  -0.1972180), wk =   0.0200000
        k(   49) = (   0.2000000   0.4368318   0.0000000), wk =   0.0200000
        k(   50) = (   0.2000000   0.4368318   0.0986090), wk =   0.0400000
        k(   51) = (   0.2000000   0.4368318  -0.1972180), wk =   0.0200000
        k(   52) = (   0.2000000  -0.5460397   0.0000000), wk =   0.0100000
        k(   53) = (   0.2000000  -0.5460397   0.0986090), wk =   0.0200000
        k(   54) = (   0.2000000  -0.5460397  -0.1972180), wk =   0.0100000
        k(   55) = (   0.3000000   0.0000000   0.0000000), wk =   0.0100000
        k(   56) = (   0.3000000   0.0000000   0.0986090), wk =   0.0200000
        k(   57) = (   0.3000000   0.0000000  -0.1972180), wk =   0.0100000
        k(   58) = (   0.3000000   0.1092079   0.0000000), wk =   0.0200000
        k(   59) = (   0.3000000   0.1092079   0.0986090), wk =   0.0400000
        k(   60) = (   0.3000000   0.1092079  -0.1972180), wk =   0.0200000
        k(   61) = (   0.3000000   0.2184159   0.0000000), wk =   0.0200000
        k(   62) = (   0.3000000   0.2184159   0.0986090), wk =   0.0400000
        k(   63) = (   0.3000000   0.2184159  -0.1972180), wk =   0.0200000
        k(   64) = (   0.3000000   0.3276238   0.0000000), wk =   0.0200000
        k(   65) = (   0.3000000   0.3276238   0.0986090), wk =   0.0400000
        k(   66) = (   0.3000000   0.3276238  -0.1972180), wk =   0.0200000
        k(   67) = (   0.3000000   0.4368318   0.0000000), wk =   0.0200000
        k(   68) = (   0.3000000   0.4368318   0.0986090), wk =   0.0400000
        k(   69) = (   0.3000000   0.4368318  -0.1972180), wk =   0.0200000
        k(   70) = (   0.3000000  -0.5460397   0.0000000), wk =   0.0100000
        k(   71) = (   0.3000000  -0.5460397   0.0986090), wk =   0.0200000
        k(   72) = (   0.3000000  -0.5460397  -0.1972180), wk =   0.0100000
        k(   73) = (   0.4000000   0.0000000   0.0000000), wk =   0.0100000
        k(   74) = (   0.4000000   0.0000000   0.0986090), wk =   0.0200000
        k(   75) = (   0.4000000   0.0000000  -0.1972180), wk =   0.0100000
        k(   76) = (   0.4000000   0.1092079   0.0000000), wk =   0.0200000
        k(   77) = (   0.4000000   0.1092079   0.0986090), wk =   0.0400000
        k(   78) = (   0.4000000   0.1092079  -0.1972180), wk =   0.0200000
        k(   79) = (   0.4000000   0.2184159   0.0000000), wk =   0.0200000
        k(   80) = (   0.4000000   0.2184159   0.0986090), wk =   0.0400000
        k(   81) = (   0.4000000   0.2184159  -0.1972180), wk =   0.0200000
        k(   82) = (   0.4000000   0.3276238   0.0000000), wk =   0.0200000
        k(   83) = (   0.4000000   0.3276238   0.0986090), wk =   0.0400000
        k(   84) = (   0.4000000   0.3276238  -0.1972180), wk =   0.0200000
        k(   85) = (   0.4000000   0.4368318   0.0000000), wk =   0.0200000
        k(   86) = (   0.4000000   0.4368318   0.0986090), wk =   0.0400000
        k(   87) = (   0.4000000   0.4368318  -0.1972180), wk =   0.0200000
        k(   88) = (   0.4000000  -0.5460397   0.0000000), wk =   0.0100000
        k(   89) = (   0.4000000  -0.5460397   0.0986090), wk =   0.0200000
        k(   90) = (   0.4000000  -0.5460397  -0.1972180), wk =   0.0100000
        k(   91) = (  -0.5000000   0.0000000   0.0000000), wk =   0.0050000
        k(   92) = (  -0.5000000   0.0000000   0.0986090), wk =   0.0100000
        k(   93) = (  -0.5000000   0.0000000  -0.1972180), wk =   0.0050000
        k(   94) = (  -0.5000000   0.1092079   0.0000000), wk =   0.0100000
        k(   95) = (  -0.5000000   0.1092079   0.0986090), wk =   0.0200000
        k(   96) = (  -0.5000000   0.1092079  -0.1972180), wk =   0.0100000
        k(   97) = (  -0.5000000   0.2184159   0.0000000), wk =   0.0100000
        k(   98) = (  -0.5000000   0.2184159   0.0986090), wk =   0.0200000
        k(   99) = (  -0.5000000   0.2184159  -0.1972180), wk =   0.0100000
        k(  100) = (  -0.5000000   0.3276238   0.0000000), wk =   0.0100000
        k(  101) = (  -0.5000000   0.3276238   0.0986090), wk =   0.0200000
        k(  102) = (  -0.5000000   0.3276238  -0.1972180), wk =   0.0100000
        k(  103) = (  -0.5000000   0.4368318   0.0000000), wk =   0.0100000
        k(  104) = (  -0.5000000   0.4368318   0.0986090), wk =   0.0200000
        k(  105) = (  -0.5000000   0.4368318  -0.1972180), wk =   0.0100000
        k(  106) = (  -0.5000000  -0.5460397   0.0000000), wk =   0.0050000
        k(  107) = (  -0.5000000  -0.5460397   0.0986090), wk =   0.0100000
        k(  108) = (  -0.5000000  -0.5460397  -0.1972180), wk =   0.0050000

                       cryst. coord.
        k(    1) = (   0.0000000   0.0000000   0.0000000), wk =   0.0050000
        k(    2) = (   0.0000000   0.0000000   0.2500000), wk =   0.0100000
        k(    3) = (   0.0000000   0.0000000  -0.5000000), wk =   0.0050000
        k(    4) = (   0.0000000   0.1000000   0.0000000), wk =   0.0100000
        k(    5) = (   0.0000000   0.1000000   0.2500000), wk =   0.0200000
        k(    6) = (   0.0000000   0.1000000  -0.5000000), wk =   0.0100000
        k(    7) = (   0.0000000   0.2000000   0.0000000), wk =   0.0100000
        k(    8) = (   0.0000000   0.2000000   0.2500000), wk =   0.0200000
        k(    9) = (   0.0000000   0.2000000  -0.5000000), wk =   0.0100000
        k(   10) = (   0.0000000   0.3000000   0.0000000), wk =   0.0100000
        k(   11) = (   0.0000000   0.3000000   0.2500000), wk =   0.0200000
        k(   12) = (   0.0000000   0.3000000  -0.5000000), wk =   0.0100000
        k(   13) = (   0.0000000   0.4000000   0.0000000), wk =   0.0100000
        k(   14) = (   0.0000000   0.4000000   0.2500000), wk =   0.0200000
        k(   15) = (   0.0000000   0.4000000  -0.5000000), wk =   0.0100000
        k(   16) = (   0.0000000  -0.5000000   0.0000000), wk =   0.0050000
        k(   17) = (   0.0000000  -0.5000000   0.2500000), wk =   0.0100000
        k(   18) = (   0.0000000  -0.5000000  -0.5000000), wk =   0.0050000
        k(   19) = (   0.1000000   0.0000000   0.0000000), wk =   0.0100000
        k(   20) = (   0.1000000   0.0000000   0.2500000), wk =   0.0200000
        k(   21) = (   0.1000000   0.0000000  -0.5000000), wk =   0.0100000
        k(   22) = (   0.1000000   0.1000000   0.0000000), wk =   0.0200000
        k(   23) = (   0.1000000   0.1000000   0.2500000), wk =   0.0400000
        k(   24) = (   0.1000000   0.1000000  -0.5000000), wk =   0.0200000
        k(   25) = (   0.1000000   0.2000000   0.0000000), wk =   0.0200000
        k(   26) = (   0.1000000   0.2000000   0.2500000), wk =   0.0400000
        k(   27) = (   0.1000000   0.2000000  -0.5000000), wk =   0.0200000
        k(   28) = (   0.1000000   0.3000000   0.0000000), wk =   0.0200000
        k(   29) = (   0.1000000   0.3000000   0.2500000), wk =   0.0400000
        k(   30) = (   0.1000000   0.3000000  -0.5000000), wk =   0.0200000
        k(   31) = (   0.1000000   0.4000000   0.0000000), wk =   0.0200000
        k(   32) = (   0.1000000   0.4000000   0.2500000), wk =   0.0400000
        k(   33) = (   0.1000000   0.4000000  -0.5000000), wk =   0.0200000
        k(   34) = (   0.1000000  -0.5000000   0.0000000), wk =   0.0100000
        k(   35) = (   0.1000000  -0.5000000   0.2500000), wk =   0.0200000
        k(   36) = (   0.1000000  -0.5000000  -0.5000000), wk =   0.0100000
        k(   37) = (   0.2000000   0.0000000   0.0000000), wk =   0.0100000
        k(   38) = (   0.2000000   0.0000000   0.2500000), wk =   0.0200000
        k(   39) = (   0.2000000   0.0000000  -0.5000000), wk =   0.0100000
        k(   40) = (   0.2000000   0.1000000   0.0000000), wk =   0.0200000
        k(   41) = (   0.2000000   0.1000000   0.2500000), wk =   0.0400000
        k(   42) = (   0.2000000   0.1000000  -0.5000000), wk =   0.0200000
        k(   43) = (   0.2000000   0.2000000   0.0000000), wk =   0.0200000
        k(   44) = (   0.2000000   0.2000000   0.2500000), wk =   0.0400000
        k(   45) = (   0.2000000   0.2000000  -0.5000000), wk =   0.0200000
        k(   46) = (   0.2000000   0.3000000   0.0000000), wk =   0.0200000
        k(   47) = (   0.2000000   0.3000000   0.2500000), wk =   0.0400000
        k(   48) = (   0.2000000   0.3000000  -0.5000000), wk =   0.0200000
        k(   49) = (   0.2000000   0.4000000   0.0000000), wk =   0.0200000
        k(   50) = (   0.2000000   0.4000000   0.2500000), wk =   0.0400000
        k(   51) = (   0.2000000   0.4000000  -0.5000000), wk =   0.0200000
        k(   52) = (   0.2000000  -0.5000000   0.0000000), wk =   0.0100000
        k(   53) = (   0.2000000  -0.5000000   0.2500000), wk =   0.0200000
        k(   54) = (   0.2000000  -0.5000000  -0.5000000), wk =   0.0100000
        k(   55) = (   0.3000000   0.0000000   0.0000000), wk =   0.0100000
        k(   56) = (   0.3000000   0.0000000   0.2500000), wk =   0.0200000
        k(   57) = (   0.3000000   0.0000000  -0.5000000), wk =   0.0100000
        k(   58) = (   0.3000000   0.1000000   0.0000000), wk =   0.0200000
        k(   59) = (   0.3000000   0.1000000   0.2500000), wk =   0.0400000
        k(   60) = (   0.3000000   0.1000000  -0.5000000), wk =   0.0200000
        k(   61) = (   0.3000000   0.2000000   0.0000000), wk =   0.0200000
        k(   62) = (   0.3000000   0.2000000   0.2500000), wk =   0.0400000
        k(   63) = (   0.3000000   0.2000000  -0.5000000), wk =   0.0200000
        k(   64) = (   0.3000000   0.3000000   0.0000000), wk =   0.0200000
        k(   65) = (   0.3000000   0.3000000   0.2500000), wk =   0.0400000
        k(   66) = (   0.3000000   0.3000000  -0.5000000), wk =   0.0200000
        k(   67) = (   0.3000000   0.4000000   0.0000000), wk =   0.0200000
        k(   68) = (   0.3000000   0.4000000   0.2500000), wk =   0.0400000
        k(   69) = (   0.3000000   0.4000000  -0.5000000), wk =   0.0200000
        k(   70) = (   0.3000000  -0.5000000   0.0000000), wk =   0.0100000
        k(   71) = (   0.3000000  -0.5000000   0.2500000), wk =   0.0200000
        k(   72) = (   0.3000000  -0.5000000  -0.5000000), wk =   0.0100000
        k(   73) = (   0.4000000   0.0000000   0.0000000), wk =   0.0100000
        k(   74) = (   0.4000000   0.0000000   0.2500000), wk =   0.0200000
        k(   75) = (   0.4000000   0.0000000  -0.5000000), wk =   0.0100000
        k(   76) = (   0.4000000   0.1000000   0.0000000), wk =   0.0200000
        k(   77) = (   0.4000000   0.1000000   0.2500000), wk =   0.0400000
        k(   78) = (   0.4000000   0.1000000  -0.5000000), wk =   0.0200000
        k(   79) = (   0.4000000   0.2000000   0.0000000), wk =   0.0200000
        k(   80) = (   0.4000000   0.2000000   0.2500000), wk =   0.0400000
        k(   81) = (   0.4000000   0.2000000  -0.5000000), wk =   0.0200000
        k(   82) = (   0.4000000   0.3000000   0.0000000), wk =   0.0200000
        k(   83) = (   0.4000000   0.3000000   0.2500000), wk =   0.0400000
        k(   84) = (   0.4000000   0.3000000  -0.5000000), wk =   0.0200000
        k(   85) = (   0.4000000   0.4000000   0.0000000), wk =   0.0200000
        k(   86) = (   0.4000000   0.4000000   0.2500000), wk =   0.0400000
        k(   87) = (   0.4000000   0.4000000  -0.5000000), wk =   0.0200000
        k(   88) = (   0.4000000  -0.5000000   0.0000000), wk =   0.0100000
        k(   89) = (   0.4000000  -0.5000000   0.2500000), wk =   0.0200000
        k(   90) = (   0.4000000  -0.5000000  -0.5000000), wk =   0.0100000
        k(   91) = (  -0.5000000   0.0000000   0.0000000), wk =   0.0050000
        k(   92) = (  -0.5000000   0.0000000   0.2500000), wk =   0.0100000
        k(   93) = (  -0.5000000   0.0000000  -0.5000000), wk =   0.0050000
        k(   94) = (  -0.5000000   0.1000000   0.0000000), wk =   0.0100000
        k(   95) = (  -0.5000000   0.1000000   0.2500000), wk =   0.0200000
        k(   96) = (  -0.5000000   0.1000000  -0.5000000), wk =   0.0100000
        k(   97) = (  -0.5000000   0.2000000   0.0000000), wk =   0.0100000
        k(   98) = (  -0.5000000   0.2000000   0.2500000), wk =   0.0200000
        k(   99) = (  -0.5000000   0.2000000  -0.5000000), wk =   0.0100000
        k(  100) = (  -0.5000000   0.3000000   0.0000000), wk =   0.0100000
        k(  101) = (  -0.5000000   0.3000000   0.2500000), wk =   0.0200000
        k(  102) = (  -0.5000000   0.3000000  -0.5000000), wk =   0.0100000
        k(  103) = (  -0.5000000   0.4000000   0.0000000), wk =   0.0100000
        k(  104) = (  -0.5000000   0.4000000   0.2500000), wk =   0.0200000
        k(  105) = (  -0.5000000   0.4000000  -0.5000000), wk =   0.0100000
        k(  106) = (  -0.5000000  -0.5000000   0.0000000), wk =   0.0050000
        k(  107) = (  -0.5000000  -0.5000000   0.2500000), wk =   0.0100000
        k(  108) = (  -0.5000000  -0.5000000  -0.5000000), wk =   0.0050000

     Dense  grid:   130013 G-vectors     FFT dimensions: (  48,  48, 128)

     Smooth grid:    32833 G-vectors     FFT dimensions: (  32,  30,  80)

     Dynamical RAM for                 wfc:       4.39 MB

     Dynamical RAM for     wfc (w. buffer):       4.39 MB

     Dynamical RAM for           str. fact:       3.97 MB

     Dynamical RAM for           local pot:       0.00 MB

     Dynamical RAM for          nlocal pot:       9.03 MB

     Dynamical RAM for                qrad:       2.78 MB

     Dynamical RAM for          rho,v,vnew:      12.70 MB

     Dynamical RAM for           G-vectors:       7.69 MB

     Dynamical RAM for          h,s,v(r/c):       0.90 MB

     Dynamical RAM for          <psi|beta>:       0.15 MB

     Dynamical RAM for                 psi:       8.78 MB

     Dynamical RAM for                hpsi:       8.78 MB

     Dynamical RAM for                spsi:       8.78 MB

     Dynamical RAM for      wfcinit/wfcrot:       8.89 MB

     Dynamical RAM for           addusdens:      48.85 MB

     Estimated static dynamical RAM per process >      57.76 MB

     Estimated max dynamical RAM per process >     106.61 MB

     Estimated total dynamical RAM >     852.90 MB

     The potential is recalculated from file :
     ./tmp/SnSe_pnma.save/charge-density

     Starting wfcs are   52 randomized atomic wfcs +   18 random wfcs

     Band Structure Calculation
     Davidson diagonalization with overlap

     Computing kpt #:     1  of    14 on this pool
     total cpu time spent up to now is       10.0 secs

     Computing kpt #:     2  of    14 on this pool
     total cpu time spent up to now is       19.1 secs

     Computing kpt #:     3  of    14 on this pool
     total cpu time spent up to now is       27.7 secs

     Computing kpt #:     4  of    14 on this pool
     total cpu time spent up to now is       36.7 secs

     Computing kpt #:     5  of    14 on this pool
     total cpu time spent up to now is       44.9 secs

     Computing kpt #:     6  of    14 on this pool
     total cpu time spent up to now is       53.6 secs

     Computing kpt #:     7  of    14 on this pool
     total cpu time spent up to now is       62.5 secs

     Computing kpt #:     8  of    14 on this pool
     total cpu time spent up to now is       71.3 secs

     Computing kpt #:     9  of    14 on this pool
     total cpu time spent up to now is       79.3 secs

     Computing kpt #:    10  of    14 on this pool
     c_bands:  1 eigenvalues not converged
     total cpu time spent up to now is       88.1 secs

     Computing kpt #:    11  of    14 on this pool
     total cpu time spent up to now is       97.2 secs

     Computing kpt #:    12  of    14 on this pool
     total cpu time spent up to now is      105.5 secs

     Computing kpt #:    13  of    14 on this pool
     total cpu time spent up to now is      114.9 secs

     Computing kpt #:    14  of    14 on this pool
     total cpu time spent up to now is      122.7 secs

     ethr =  1.25E-11,  avg # of iterations = 71.1

     total cpu time spent up to now is      123.2 secs

     End of band structure calculation

          k = 0.0000 0.0000 0.0000 (  4129 PWs)   bands (ev):

   -13.7590 -13.7478 -13.7458 -13.7415 -13.7404 -13.7377 -13.7343 -13.7332
   -13.7262 -13.7233 -13.7218 -13.7216 -13.7118 -13.7080 -13.6918 -13.6878
   -13.6844 -13.6815 -13.6747 -13.6681  -6.0326  -5.6990  -5.0731  -4.6158
     0.4122   1.4682   1.9732   2.5890   2.9238   4.3421   4.4184   4.4252
     4.6972   4.9083   5.4427   5.7917   6.1054   6.5556   6.8493   7.1459
     8.3724  10.2511  10.5145  10.5214  10.6921  10.9585  11.4753  12.0273
    12.1233  12.3152  12.9290  13.4278  13.6098  13.6963  13.9793  14.5855
    14.6265  15.5713  16.0153  16.1341  16.1366  16.1981  16.4602  16.6693
    17.1258  17.3369  17.8981  18.0006  18.1853  18.2964

     occupation numbers 
     1.0000   1.0000   1.0000   1.0000   1.0000   1.0000   1.0000   1.0000
     1.0000   1.0000   1.0000   1.0000   1.0000   1.0000   1.0000   1.0000
     1.0000   1.0000   1.0000   1.0000   1.0000   1.0000   1.0000   1.0000
     1.0000   1.0000   1.0000   1.0000   1.0000   1.0000   1.0000   1.0000
     1.0000   1.0000   1.0000   1.0000   1.0000   1.0000   1.0000   1.0000
     0.0000   0.0000   0.0000   0.0000   0.0000   0.0000   0.0000   0.0000
     0.0000   0.0000   0.0000   0.0000   0.0000   0.0000   0.0000   0.0000
     0.0000   0.0000   0.0000   0.0000   0.0000   0.0000   0.0000   0.0000
     0.0000   0.0000   0.0000   0.0000   0.0000   0.0000

          k = 0.0000 0.0000 0.0986 (  4128 PWs)   bands (ev):

   -13.7577 -13.7503 -13.7447 -13.7420 -13.7401 -13.7383 -13.7338 -13.7330
   -13.7258 -13.7227 -13.7225 -13.7218 -13.7114 -13.7087 -13.6911 -13.6884
   -13.6839 -13.6819 -13.6736 -13.6690  -5.9979  -5.7721  -4.9820  -4.6687
     0.4934   1.1269   2.2717   2.5629   3.0955   4.0830   4.4649   4.5509
     4.7851   4.8595   5.5904   5.6861   6.0084   6.0328   6.9184   7.1314
     9.0938  10.1407  10.2950  10.5665  10.9568  11.0326  11.5424  11.6103
    12.4221  12.5437  12.5745  13.3158  13.3539  13.5136  14.0751  14.5172
    14.8003  15.2806  15.8324  15.8828  16.2719  16.2831  16.2925  16.7318
    17.2485  17.4344  17.7059  18.0922  18.1398  18.6118

     occupation numbers 
     1.0000   1.0000   1.0000   1.0000   1.0000   1.0000   1.0000   1.0000
     1.0000   1.0000   1.0000   1.0000   1.0000   1.0000   1.0000   1.0000
     1.0000   1.0000   1.0000   1.0000   1.0000   1.0000   1.0000   1.0000
     1.0000   1.0000   1.0000   1.0000   1.0000   1.0000   1.0000   1.0000
     1.0000   1.0000   1.0000   1.0000   1.0000   1.0000   1.0000   1.0000
     0.0000   0.0000   0.0000   0.0000   0.0000   0.0000   0.0000   0.0000
     0.0000   0.0000   0.0000   0.0000   0.0000   0.0000   0.0000   0.0000
     0.0000   0.0000   0.0000   0.0000   0.0000   0.0000   0.0000   0.0000
     0.0000   0.0000   0.0000   0.0000   0.0000   0.0000

          k = 0.0000 0.0000-0.1972 (  4114 PWs)   bands (ev):

   -13.7543 -13.7543 -13.7432 -13.7432 -13.7393 -13.7393 -13.7331 -13.7331
   -13.7243 -13.7243 -13.7219 -13.7219 -13.7101 -13.7101 -13.6897 -13.6897
   -13.6829 -13.6829 -13.6712 -13.6712  -5.9010  -5.9010  -4.8094  -4.8094
     0.7368   0.7368   2.4810   2.4810   3.5883   3.5883   4.5972   4.5972
     4.8644   4.8644   5.5466   5.5466   5.8387   5.8387   7.0508   7.0508
    10.0890  10.0890  10.1754  10.1754  11.2533  11.2533  11.3679  11.3679
    12.3284  12.3284  13.0114  13.0114  13.2118  13.2118  14.3056  14.3056
    15.2692  15.2692  15.5572  15.5572  16.0319  16.0319  16.5239  16.5239
    17.6916  17.6916  17.7578  17.7578  18.3115  18.3115

     occupation numbers 
     1.0000   1.0000   1.0000   1.0000   1.0000   1.0000   1.0000   1.0000
     1.0000   1.0000   1.0000   1.0000   1.0000   1.0000   1.0000   1.0000
     1.0000   1.0000   1.0000   1.0000   1.0000   1.0000   1.0000   1.0000
     1.0000   1.0000   1.0000   1.0000   1.0000   1.0000   1.0000   1.0000
     1.0000   1.0000   1.0000   1.0000   1.0000   1.0000   1.0000   1.0000
     0.0000   0.0000   0.0000   0.0000   0.0000   0.0000   0.0000   0.0000
     0.0000   0.0000   0.0000   0.0000   0.0000   0.0000   0.0000   0.0000
     0.0000   0.0000   0.0000   0.0000   0.0000   0.0000   0.0000   0.0000
     0.0000   0.0000   0.0000   0.0000   0.0000   0.0000

          k = 0.0000 0.1092 0.0000 (  4127 PWs)   bands (ev):

   -13.7569 -13.7469 -13.7440 -13.7414 -13.7403 -13.7386 -13.7357 -13.7338
   -13.7273 -13.7229 -13.7228 -13.7204 -13.7106 -13.7083 -13.6908 -13.6885
   -13.6837 -13.6828 -13.6746 -13.6686  -5.9797  -5.6539  -5.0466  -4.6119
     0.3498   1.3361   1.9243   2.3165   2.9298   4.2834   4.4093   4.6408
     4.7517   4.8503   5.5533   5.8232   6.0443   6.6970   6.8632   7.1062
     8.4516  10.0987  10.3417  10.6593  10.7215  10.8686  11.4161  11.6945
    11.7328  12.4347  12.8549  13.1119  13.5456  13.5664  13.8622  14.3322
    14.3495  15.8004  15.9085  15.9852  16.6692  16.7770  16.9190  16.9989
    17.4620  17.6249  17.7910  17.9817  18.3769  18.7485

     occupation numbers 
     1.0000   1.0000   1.0000   1.0000   1.0000   1.0000   1.0000   1.0000
     1.0000   1.0000   1.0000   1.0000   1.0000   1.0000   1.0000   1.0000
     1.0000   1.0000   1.0000   1.0000   1.0000   1.0000   1.0000   1.0000
     1.0000   1.0000   1.0000   1.0000   1.0000   1.0000   1.0000   1.0000
     1.0000   1.0000   1.0000   1.0000   1.0000   1.0000   1.0000   1.0000
     0.0000   0.0000   0.0000   0.0000   0.0000   0.0000   0.0000   0.0000
     0.0000   0.0000   0.0000   0.0000   0.0000   0.0000   0.0000   0.0000
     0.0000   0.0000   0.0000   0.0000   0.0000   0.0000   0.0000   0.0000
     0.0000   0.0000   0.0000   0.0000   0.0000   0.0000

          k = 0.0000 0.1092 0.0986 (  4108 PWs)   bands (ev):

   -13.7557 -13.7488 -13.7433 -13.7413 -13.7406 -13.7392 -13.7350 -13.7338
   -13.7268 -13.7236 -13.7222 -13.7205 -13.7104 -13.7088 -13.6902 -13.6886
   -13.6837 -13.6830 -13.6736 -13.6694  -5.9457  -5.7251  -4.9594  -4.6618
     0.4296   1.0393   2.1386   2.3094   3.1255   4.1436   4.3454   4.7426
     4.7576   4.9278   5.6014   5.7202   5.9771   6.1748   6.9523   7.1226
     9.1595  10.1617  10.3110  10.5564  10.6791  10.9469  11.1586  11.6089
    12.1249  12.5695  12.6323  13.0115  13.3591  13.4816  13.7446  14.1991
    14.4310  15.5840  15.6150  16.0891  16.6941  16.7175  16.7726  16.9784
    17.7979  17.9490  17.9646  18.1754  18.6040  18.7086

     occupation numbers 
     1.0000   1.0000   1.0000   1.0000   1.0000   1.0000   1.0000   1.0000
     1.0000   1.0000   1.0000   1.0000   1.0000   1.0000   1.0000   1.0000
     1.0000   1.0000   1.0000   1.0000   1.0000   1.0000   1.0000   1.0000
     1.0000   1.0000   1.0000   1.0000   1.0000   1.0000   1.0000   1.0000
     1.0000   1.0000   1.0000   1.0000   1.0000   1.0000   1.0000   1.0000
     0.0000   0.0000   0.0000   0.0000   0.0000   0.0000   0.0000   0.0000
     0.0000   0.0000   0.0000   0.0000   0.0000   0.0000   0.0000   0.0000
     0.0000   0.0000   0.0000   0.0000   0.0000   0.0000   0.0000   0.0000
     0.0000   0.0000   0.0000   0.0000   0.0000   0.0000

          k = 0.0000 0.1092-0.1972 (  4090 PWs)   bands (ev):

   -13.7525 -13.7525 -13.7421 -13.7421 -13.7402 -13.7402 -13.7341 -13.7341
   -13.7254 -13.7254 -13.7210 -13.7210 -13.7098 -13.7098 -13.6892 -13.6892
   -13.6835 -13.6835 -13.6714 -13.6714  -5.8509  -5.8509  -4.7951  -4.7951
     0.6672   0.6672   2.2752   2.2752   3.6402   3.6402   4.5196   4.5196
     5.0071   5.0071   5.5976   5.5976   5.8414   5.8414   7.0862   7.0862
    10.1196  10.1196  10.2716  10.2716  10.8250  10.8250  11.2319  11.2319
    12.4493  12.4493  12.7292  12.7292  13.2443  13.2443  13.9275  13.9275
    14.9140  14.9140  15.7459  15.7459  16.5991  16.5991  17.1094  17.1094
    17.9280  17.9280  18.3075  18.3075  18.5237  18.5237

     occupation numbers 
     1.0000   1.0000   1.0000   1.0000   1.0000   1.0000   1.0000   1.0000
     1.0000   1.0000   1.0000   1.0000   1.0000   1.0000   1.0000   1.0000
     1.0000   1.0000   1.0000   1.0000   1.0000   1.0000   1.0000   1.0000
     1.0000   1.0000   1.0000   1.0000   1.0000   1.0000   1.0000   1.0000
     1.0000   1.0000   1.0000   1.0000   1.0000   1.0000   1.0000   1.0000
     0.0000   0.0000   0.0000   0.0000   0.0000   0.0000   0.0000   0.0000
     0.0000   0.0000   0.0000   0.0000   0.0000   0.0000   0.0000   0.0000
     0.0000   0.0000   0.0000   0.0000   0.0000   0.0000   0.0000   0.0000
     0.0000   0.0000   0.0000   0.0000   0.0000   0.0000

          k = 0.0000 0.2184 0.0000 (  4126 PWs)   bands (ev):

   -13.7514 -13.7463 -13.7435 -13.7393 -13.7391 -13.7389 -13.7377 -13.7359
   -13.7288 -13.7253 -13.7222 -13.7173 -13.7094 -13.7081 -13.6906 -13.6881
   -13.6865 -13.6819 -13.6741 -13.6697  -5.8264  -5.5260  -4.9795  -4.6144
     0.1840   1.0193   1.6943   1.7176   3.0247   4.3057   4.6055   4.7902
     4.8545   4.9095   5.7680   5.8988   5.9753   6.8806   6.9457   7.0545
     8.6451   9.0497  10.1376  10.3867  10.4635  10.8354  11.1217  11.2721
    11.8669  12.3907  12.5279  12.5321  13.1893  13.3110  14.0715  14.3193
    14.5705  15.4889  16.2551  16.3194  16.9291  17.0977  17.2108  17.5898
    17.6790  18.3373  18.4832  18.9940  19.0683  19.2972

     occupation numbers 
     1.0000   1.0000   1.0000   1.0000   1.0000   1.0000   1.0000   1.0000
     1.0000   1.0000   1.0000   1.0000   1.0000   1.0000   1.0000   1.0000
     1.0000   1.0000   1.0000   1.0000   1.0000   1.0000   1.0000   1.0000
     1.0000   1.0000   1.0000   1.0000   1.0000   1.0000   1.0000   1.0000
     1.0000   1.0000   1.0000   1.0000   1.0000   1.0000   1.0000   1.0000
     0.0000   0.0000   0.0000   0.0000   0.0000   0.0000   0.0000   0.0000
     0.0000   0.0000   0.0000   0.0000   0.0000   0.0000   0.0000   0.0000
     0.0000   0.0000   0.0000   0.0000   0.0000   0.0000   0.0000   0.0000
     0.0000   0.0000   0.0000   0.0000   0.0000   0.0000

          k = 0.0000 0.2184 0.0986 (  4112 PWs)   bands (ev):

   -13.7506 -13.7470 -13.7432 -13.7405 -13.7394 -13.7381 -13.7377 -13.7360
   -13.7283 -13.7259 -13.7212 -13.7179 -13.7093 -13.7084 -13.6902 -13.6886
   -13.6856 -13.6825 -13.6734 -13.6703  -5.7947  -5.5909  -4.9047  -4.6552
     0.2599   0.8059   1.7201   1.7796   3.2565   4.3270   4.3620   4.7163
     4.9900   5.0956   5.6814   5.8073   5.9130   6.4568   7.0315   7.0673
     9.0829   9.4619   9.9991  10.2679  10.4886  10.8291  10.9806  11.5329
    11.7795  12.3312  12.3881  12.4357  13.2117  13.2165  14.0641  14.1098
    14.4545  15.4158  16.1628  16.2632  17.0512  17.4016  17.4347  17.8595
    18.0362  18.2094  18.7062  18.7937  19.0795  19.6430

     occupation numbers 
     1.0000   1.0000   1.0000   1.0000   1.0000   1.0000   1.0000   1.0000
     1.0000   1.0000   1.0000   1.0000   1.0000   1.0000   1.0000   1.0000
     1.0000   1.0000   1.0000   1.0000   1.0000   1.0000   1.0000   1.0000
     1.0000   1.0000   1.0000   1.0000   1.0000   1.0000   1.0000   1.0000
     1.0000   1.0000   1.0000   1.0000   1.0000   1.0000   1.0000   1.0000
     0.0000   0.0000   0.0000   0.0000   0.0000   0.0000   0.0000   0.0000
     0.0000   0.0000   0.0000   0.0000   0.0000   0.0000   0.0000   0.0000
     0.0000   0.0000   0.0000   0.0000   0.0000   0.0000   0.0000   0.0000
     0.0000   0.0000   0.0000   0.0000   0.0000   0.0000

          k = 0.0000 0.2184-0.1972 (  4102 PWs)   bands (ev):

   -13.7487 -13.7487 -13.7421 -13.7421 -13.7390 -13.7390 -13.7365 -13.7365
   -13.7271 -13.7271 -13.7194 -13.7194 -13.7089 -13.7089 -13.6894 -13.6894
   -13.6840 -13.6840 -13.6718 -13.6718  -5.7068  -5.7068  -4.7657  -4.7657
     0.4817   0.4817   1.7742   1.7742   3.8022   3.8022   4.5222   4.5222
     5.2111   5.2111   5.6744   5.6744   5.9291   5.9291   7.1234   7.1234
     9.5288   9.5288  10.2133  10.2133  10.7260  10.7260  11.0447  11.0447
    11.9948  11.9948  12.3789  12.3789  13.1239  13.1239  14.1491  14.1491
    14.6299  14.6299  16.3848  16.3848  17.5058  17.5058  17.6888  17.6888
    18.2033  18.2033  18.7270  18.7270  19.2257  19.2257

     occupation numbers 
     1.0000   1.0000   1.0000   1.0000   1.0000   1.0000   1.0000   1.0000
     1.0000   1.0000   1.0000   1.0000   1.0000   1.0000   1.0000   1.0000
     1.0000   1.0000   1.0000   1.0000   1.0000   1.0000   1.0000   1.0000
     1.0000   1.0000   1.0000   1.0000   1.0000   1.0000   1.0000   1.0000
     1.0000   1.0000   1.0000   1.0000   1.0000   1.0000   1.0000   1.0000
     0.0000   0.0000   0.0000   0.0000   0.0000   0.0000   0.0000   0.0000
     0.0000   0.0000   0.0000   0.0000   0.0000   0.0000   0.0000   0.0000
     0.0000   0.0000   0.0000   0.0000   0.0000   0.0000   0.0000   0.0000
     0.0000   0.0000   0.0000   0.0000   0.0000   0.0000

          k = 0.0000 0.3276 0.0000 (  4104 PWs)   bands (ev):

   -13.7485 -13.7459 -13.7457 -13.7439 -13.7382 -13.7357 -13.7348 -13.7332
   -13.7284 -13.7274 -13.7223 -13.7132 -13.7116 -13.7053 -13.6935 -13.6921
   -13.6843 -13.6793 -13.6734 -13.6711  -5.5904  -5.3383  -4.9092  -4.6611
    -0.0075   0.7005   1.0027   1.3413   3.2903   4.4726   4.8627   4.9335
     4.9731   5.1297   5.8543   5.9819   6.1271   6.7413   6.8517   7.3658
     8.1881   8.8931   9.5314   9.5781   9.8797  10.3076  10.5076  11.1153
    11.6384  11.9445  12.0493  12.5516  13.7610  14.2149  14.2584  15.0014
    15.3149  15.3476  16.0720  16.5624  16.7877  16.8149  17.2951  17.9118
    18.6739  19.3564  19.3812  19.7135  20.0914  20.4243

     occupation numbers 
     1.0000   1.0000   1.0000   1.0000   1.0000   1.0000   1.0000   1.0000
     1.0000   1.0000   1.0000   1.0000   1.0000   1.0000   1.0000   1.0000
     1.0000   1.0000   1.0000   1.0000   1.0000   1.0000   1.0000   1.0000
     1.0000   1.0000   1.0000   1.0000   1.0000   1.0000   1.0000   1.0000
     1.0000   1.0000   1.0000   1.0000   1.0000   1.0000   1.0000   1.0000
     0.0000   0.0000   0.0000   0.0000   0.0000   0.0000   0.0000   0.0000
     0.0000   0.0000   0.0000   0.0000   0.0000   0.0000   0.0000   0.0000
     0.0000   0.0000   0.0000   0.0000   0.0000   0.0000   0.0000   0.0000
     0.0000   0.0000   0.0000   0.0000   0.0000   0.0000

          k = 0.0000 0.3276 0.0986 (  4122 PWs)   bands (ev):

   -13.7485 -13.7474 -13.7440 -13.7436 -13.7381 -13.7357 -13.7350 -13.7343
   -13.7281 -13.7275 -13.7210 -13.7156 -13.7096 -13.7059 -13.6934 -13.6924
   -13.6835 -13.6800 -13.6730 -13.6714  -5.5633  -5.3917  -4.8560  -4.6872
     0.0652   0.5464   1.0552   1.3054   3.5292   4.5341   4.6224   4.8222
     5.1322   5.3346   5.8201   5.8213   5.9992   6.5249   6.8831   7.2195
     8.3892   9.2476   9.5206   9.7574   9.9551  10.3999  10.5358  11.0763
    11.4863  11.8190  11.8677  12.2428  13.8445  14.1765  14.2608  14.9225
    15.3315  15.4728  16.0819  16.6881  16.7757  16.9076  17.9133  18.2439
    18.4451  18.8150  18.8851  19.3294  20.0591  20.1385

     occupation numbers 
     1.0000   1.0000   1.0000   1.0000   1.0000   1.0000   1.0000   1.0000
     1.0000   1.0000   1.0000   1.0000   1.0000   1.0000   1.0000   1.0000
     1.0000   1.0000   1.0000   1.0000   1.0000   1.0000   1.0000   1.0000
     1.0000   1.0000   1.0000   1.0000   1.0000   1.0000   1.0000   1.0000
     1.0000   1.0000   1.0000   1.0000   1.0000   1.0000   1.0000   1.0000
     0.0000   0.0000   0.0000   0.0000   0.0000   0.0000   0.0000   0.0000
     0.0000   0.0000   0.0000   0.0000   0.0000   0.0000   0.0000   0.0000
     0.0000   0.0000   0.0000   0.0000   0.0000   0.0000   0.0000   0.0000
     0.0000   0.0000   0.0000   0.0000   0.0000   0.0000

          k = 0.0000 0.3276-0.1972 (  4118 PWs)   bands (ev):

   -13.7482 -13.7482 -13.7432 -13.7432 -13.7370 -13.7370 -13.7351 -13.7351
   -13.7277 -13.7277 -13.7185 -13.7185 -13.7074 -13.7074 -13.6930 -13.6930
   -13.6816 -13.6816 -13.6722 -13.6722  -5.4885  -5.4885  -4.7601  -4.7601
     0.2710   0.2710   1.1840   1.1840   4.0815   4.0815   4.6767   4.6767
     5.4408   5.4408   5.7146   5.7146   6.0072   6.0072   7.0794   7.0794
     8.8559   8.8559   9.7780   9.7780  10.5277  10.5277  10.8853  10.8853
    11.2121  11.2121  11.8898  11.8898  13.9884  13.9884  14.7158  14.7158
    15.1957  15.1957  16.6591  16.6591  17.2861  17.2861  17.7860  17.7860
    18.3179  18.3179  19.1303  19.1303  19.8777  19.8777

     occupation numbers 
     1.0000   1.0000   1.0000   1.0000   1.0000   1.0000   1.0000   1.0000
     1.0000   1.0000   1.0000   1.0000   1.0000   1.0000   1.0000   1.0000
     1.0000   1.0000   1.0000   1.0000   1.0000   1.0000   1.0000   1.0000
     1.0000   1.0000   1.0000   1.0000   1.0000   1.0000   1.0000   1.0000
     1.0000   1.0000   1.0000   1.0000   1.0000   1.0000   1.0000   1.0000
     0.0000   0.0000   0.0000   0.0000   0.0000   0.0000   0.0000   0.0000
     0.0000   0.0000   0.0000   0.0000   0.0000   0.0000   0.0000   0.0000
     0.0000   0.0000   0.0000   0.0000   0.0000   0.0000   0.0000   0.0000
     0.0000   0.0000   0.0000   0.0000   0.0000   0.0000

          k = 0.0000 0.4368 0.0000 (  4122 PWs)   bands (ev):

   -13.7504 -13.7480 -13.7475 -13.7456 -13.7363 -13.7333 -13.7323 -13.7297
   -13.7274 -13.7252 -13.7233 -13.7152 -13.7086 -13.7026 -13.6982 -13.6967
   -13.6801 -13.6766 -13.6733 -13.6731  -5.3049  -5.1328  -4.8905  -4.7930
    -0.0963   0.4140   0.5463   0.9301   3.6975   4.5275   5.0491   5.0962
     5.3107   5.3551   5.6755   6.1288   6.4040   6.6850   6.7431   6.8885
     8.3457   8.9148   8.9734   9.0645   9.4634   9.7041  10.1049  10.6068
    10.9647  11.3278  12.2096  12.5584  14.2835  14.7632  15.3708  15.5591
    15.6358  15.8233  16.2304  16.7388  17.0973  17.3869  17.8575  18.4786
    19.0412  19.1429  19.2762  19.4988  19.6558  19.9787

     occupation numbers 
     1.0000   1.0000   1.0000   1.0000   1.0000   1.0000   1.0000   1.0000
     1.0000   1.0000   1.0000   1.0000   1.0000   1.0000   1.0000   1.0000
     1.0000   1.0000   1.0000   1.0000   1.0000   1.0000   1.0000   1.0000
     1.0000   1.0000   1.0000   1.0000   1.0000   1.0000   1.0000   1.0000
     1.0000   1.0000   1.0000   1.0000   1.0000   1.0000   1.0000   1.0000
     0.0000   0.0000   0.0000   0.0000   0.0000   0.0000   0.0000   0.0000
     0.0000   0.0000   0.0000   0.0000   0.0000   0.0000   0.0000   0.0000
     0.0000   0.0000   0.0000   0.0000   0.0000   0.0000   0.0000   0.0000
     0.0000   0.0000   0.0000   0.0000   0.0000   0.0000

          k = 0.0000 0.4368 0.0986 (  4130 PWs)   bands (ev):

   -13.7502 -13.7482 -13.7476 -13.7458 -13.7355 -13.7332 -13.7326 -13.7310
   -13.7269 -13.7252 -13.7219 -13.7167 -13.7072 -13.7032 -13.6980 -13.6970
   -13.6796 -13.6771 -13.6732 -13.6731  -5.2854  -5.1674  -4.8668  -4.8016
    -0.0232   0.4221   0.4826   0.8477   3.9276   4.6748   4.9970   5.0529
     5.1473   5.5485   5.6749   5.9493   6.2497   6.3736   6.7867   6.8993
     8.4763   8.7710   9.2351   9.3333   9.7446   9.8357  10.0416  10.5009
    10.8442  11.3197  11.9012  12.1823  14.4623  15.0672  15.4600  15.6338
    15.8066  15.9534  16.2065  16.4013  17.2341  17.2673  17.9465  18.0040
    18.5818  18.7257  19.1518  19.5863  20.2156  20.4072

     occupation numbers 
     1.0000   1.0000   1.0000   1.0000   1.0000   1.0000   1.0000   1.0000
     1.0000   1.0000   1.0000   1.0000   1.0000   1.0000   1.0000   1.0000
     1.0000   1.0000   1.0000   1.0000   1.0000   1.0000   1.0000   1.0000
     1.0000   1.0000   1.0000   1.0000   1.0000   1.0000   1.0000   1.0000
     1.0000   1.0000   1.0000   1.0000   1.0000   1.0000   1.0000   1.0000
     0.0000   0.0000   0.0000   0.0000   0.0000   0.0000   0.0000   0.0000
     0.0000   0.0000   0.0000   0.0000   0.0000   0.0000   0.0000   0.0000
     0.0000   0.0000   0.0000   0.0000   0.0000   0.0000   0.0000   0.0000
     0.0000   0.0000   0.0000   0.0000   0.0000   0.0000

          k = 0.0000 0.4368-0.1972 (  4130 PWs)   bands (ev):

   -13.7494 -13.7494 -13.7466 -13.7466 -13.7337 -13.7337 -13.7327 -13.7327
   -13.7258 -13.7258 -13.7194 -13.7194 -13.7050 -13.7050 -13.6975 -13.6975
   -13.6783 -13.6783 -13.6732 -13.6732  -5.2329  -5.2329  -4.8278  -4.8278
     0.1761   0.1761   0.6576   0.6576   4.4673   4.4673   4.9099   4.9099
     5.5198   5.5198   5.6620   5.6620   6.1058   6.1058   6.8608   6.8608
     8.6864   8.6864   9.4003   9.4003   9.9906   9.9906  10.2841  10.2841
    11.1205  11.1205  11.5661  11.5661  15.0265  15.0265  15.5312  15.5312
    16.0801  16.0801  16.3821  16.3821  17.1201  17.1201  17.4255  17.4255
    18.7088  18.7088  19.5137  19.5137  20.5905  20.5905

     occupation numbers 
     1.0000   1.0000   1.0000   1.0000   1.0000   1.0000   1.0000   1.0000
     1.0000   1.0000   1.0000   1.0000   1.0000   1.0000   1.0000   1.0000
     1.0000   1.0000   1.0000   1.0000   1.0000   1.0000   1.0000   1.0000
     1.0000   1.0000   1.0000   1.0000   1.0000   1.0000   1.0000   1.0000
     1.0000   1.0000   1.0000   1.0000   1.0000   1.0000   1.0000   1.0000
     0.0000   0.0000   0.0000   0.0000   0.0000   0.0000   0.0000   0.0000
     0.0000   0.0000   0.0000   0.0000   0.0000   0.0000   0.0000   0.0000
     0.0000   0.0000   0.0000   0.0000   0.0000   0.0000   0.0000   0.0000
     0.0000   0.0000   0.0000   0.0000   0.0000   0.0000

          k = 0.0000-0.5460 0.0000 (  4146 PWs)   bands (ev):

   -13.7504 -13.7504 -13.7473 -13.7473 -13.7338 -13.7338 -13.7303 -13.7303
   -13.7249 -13.7249 -13.7201 -13.7201 -13.7037 -13.7037 -13.6997 -13.6997
   -13.6762 -13.6762 -13.6744 -13.6744  -5.0198  -5.0198  -4.9669  -4.9669
     0.0320   0.0320   0.6317   0.6317   4.1665   4.1665   5.3047   5.3047
     5.3603   5.3603   5.8783   5.8783   6.6130   6.6130   6.6424   6.6424
     8.6814   8.6814   8.8264   8.8264   9.4124   9.4124  10.1760  10.1760
    10.8746  10.8746  12.4181  12.4181  14.8712  14.8712  14.9038  14.9038
    16.7053  16.7053  17.1307  17.1307  17.6258  17.6258  18.4568  18.4568
    18.7621  18.7621  19.1319  19.1319  19.3168  19.3168

     occupation numbers 
     1.0000   1.0000   1.0000   1.0000   1.0000   1.0000   1.0000   1.0000
     1.0000   1.0000   1.0000   1.0000   1.0000   1.0000   1.0000   1.0000
     1.0000   1.0000   1.0000   1.0000   1.0000   1.0000   1.0000   1.0000
     1.0000   1.0000   1.0000   1.0000   1.0000   1.0000   1.0000   1.0000
     1.0000   1.0000   1.0000   1.0000   1.0000   1.0000   1.0000   1.0000
     0.0000   0.0000   0.0000   0.0000   0.0000   0.0000   0.0000   0.0000
     0.0000   0.0000   0.0000   0.0000   0.0000   0.0000   0.0000   0.0000
     0.0000   0.0000   0.0000   0.0000   0.0000   0.0000   0.0000   0.0000
     0.0000   0.0000   0.0000   0.0000   0.0000   0.0000

          k = 0.0000-0.5460 0.0986 (  4122 PWs)   bands (ev):

   -13.7500 -13.7500 -13.7478 -13.7478 -13.7334 -13.7334 -13.7310 -13.7310
   -13.7239 -13.7239 -13.7206 -13.7206 -13.7031 -13.7031 -13.7003 -13.7003
   -13.6759 -13.6759 -13.6746 -13.6746  -5.0123  -5.0123  -4.9748  -4.9748
     0.1061   0.1061   0.5258   0.5258   4.3801   4.3801   5.2223   5.2223
     5.3914   5.3914   5.7548   5.7548   6.4784   6.4784   6.5783   6.5783
     8.8058   8.8058   8.9970   8.9970   9.5566   9.5566  10.0643  10.0643
    10.8932  10.8932  12.0558  12.0558  15.0738  15.0738  15.2574  15.2574
    16.6744  16.6744  16.8654  16.8654  17.5027  17.5027  17.9130  17.9130
    18.8030  18.8030  19.0139  19.0139  20.0235  20.0235

     occupation numbers 
     1.0000   1.0000   1.0000   1.0000   1.0000   1.0000   1.0000   1.0000
     1.0000   1.0000   1.0000   1.0000   1.0000   1.0000   1.0000   1.0000
     1.0000   1.0000   1.0000   1.0000   1.0000   1.0000   1.0000   1.0000
     1.0000   1.0000   1.0000   1.0000   1.0000   1.0000   1.0000   1.0000
     1.0000   1.0000   1.0000   1.0000   1.0000   1.0000   1.0000   1.0000
     0.0000   0.0000   0.0000   0.0000   0.0000   0.0000   0.0000   0.0000
     0.0000   0.0000   0.0000   0.0000   0.0000   0.0000   0.0000   0.0000
     0.0000   0.0000   0.0000   0.0000   0.0000   0.0000   0.0000   0.0000
     0.0000   0.0000   0.0000   0.0000   0.0000   0.0000

          k = 0.0000-0.5460-0.1972 (  4116 PWs)   bands (ev):

   -13.7490 -13.7490 -13.7490 -13.7490 -13.7323 -13.7323 -13.7323 -13.7323
   -13.7221 -13.7221 -13.7221 -13.7221 -13.7016 -13.7016 -13.7016 -13.7016
   -13.6753 -13.6753 -13.6753 -13.6753  -4.9938  -4.9938  -4.9938  -4.9938
     0.3008   0.3008   0.3008   0.3008   4.8668   4.8668   4.8668   4.8668
     5.5038   5.5038   5.5038   5.5038   6.4664   6.4664   6.4664   6.4664
     9.0222   9.0222   9.0222   9.0222   9.8280   9.8280   9.8280   9.8280
    11.3180  11.3180  11.3180  11.3180  15.6378  15.6378  15.6378  15.6378
    16.3168  16.3168  16.3168  16.3168  17.5643  17.5643  17.5643  17.5643
    19.0236  19.0236  19.0236  19.0236  20.3966  20.3966

     occupation numbers 
     1.0000   1.0000   1.0000   1.0000   1.0000   1.0000   1.0000   1.0000
     1.0000   1.0000   1.0000   1.0000   1.0000   1.0000   1.0000   1.0000
     1.0000   1.0000   1.0000   1.0000   1.0000   1.0000   1.0000   1.0000
     1.0000   1.0000   1.0000   1.0000   1.0000   1.0000   1.0000   1.0000
     1.0000   1.0000   1.0000   1.0000   1.0000   1.0000   1.0000   1.0000
     0.0000   0.0000   0.0000   0.0000   0.0000   0.0000   0.0000   0.0000
     0.0000   0.0000   0.0000   0.0000   0.0000   0.0000   0.0000   0.0000
     0.0000   0.0000   0.0000   0.0000   0.0000   0.0000   0.0000   0.0000
     0.0000   0.0000   0.0000   0.0000   0.0000   0.0000

          k = 0.1000 0.0000 0.0000 (  4103 PWs)   bands (ev):

   -13.7585 -13.7475 -13.7459 -13.7414 -13.7408 -13.7381 -13.7344 -13.7331
   -13.7262 -13.7227 -13.7217 -13.7207 -13.7115 -13.7081 -13.6918 -13.6876
   -13.6847 -13.6817 -13.6745 -13.6682  -5.9944  -5.6642  -5.0688  -4.6259
     0.2717   1.3972   1.7563   2.4164   2.9196   4.3327   4.4771   4.6971
     4.9603   4.9867   5.4792   5.8679   6.1211   6.7202   6.7301   7.1612
     8.3892   9.9032  10.5186  10.6363  10.6486  10.6924  11.5890  11.7700
    11.9264  12.2043  12.8790  13.1723  13.3457  13.7572  13.9691  14.6037
    14.7479  15.6140  15.7929  16.1314  16.4911  16.5073  16.9057  16.9167
    17.4485  17.5039  17.8146  18.1659  18.3668  18.6054

     occupation numbers 
     1.0000   1.0000   1.0000   1.0000   1.0000   1.0000   1.0000   1.0000
     1.0000   1.0000   1.0000   1.0000   1.0000   1.0000   1.0000   1.0000
     1.0000   1.0000   1.0000   1.0000   1.0000   1.0000   1.0000   1.0000
     1.0000   1.0000   1.0000   1.0000   1.0000   1.0000   1.0000   1.0000
     1.0000   1.0000   1.0000   1.0000   1.0000   1.0000   1.0000   1.0000
     0.0000   0.0000   0.0000   0.0000   0.0000   0.0000   0.0000   0.0000
     0.0000   0.0000   0.0000   0.0000   0.0000   0.0000   0.0000   0.0000
     0.0000   0.0000   0.0000   0.0000   0.0000   0.0000   0.0000   0.0000
     0.0000   0.0000   0.0000   0.0000   0.0000   0.0000

          k = 0.1000 0.0000 0.0986 (  4113 PWs)   bands (ev):

   -13.7573 -13.7501 -13.7446 -13.7419 -13.7405 -13.7387 -13.7340 -13.7330
   -13.7257 -13.7225 -13.7221 -13.7208 -13.7111 -13.7087 -13.6912 -13.6882
   -13.6842 -13.6821 -13.6735 -13.6691  -5.9602  -5.7369  -4.9796  -4.6767
     0.3578   1.0224   2.0508   2.3923   3.1310   4.1933   4.5229   4.7005
     4.8387   5.0731   5.6234   5.7532   6.0514   6.2413   6.8243   7.1263
     9.0805   9.9611  10.3633  10.5600  10.7708  10.8226  11.3714  11.5479
    12.3080  12.3482  12.5740  13.0677  13.2921  13.4977  14.0057  14.6018
    14.7848  15.3007  15.8818  15.9679  16.2772  16.6282  16.7108  17.0897
    17.6212  17.7700  18.0098  18.2012  18.3933  18.6155

     occupation numbers 
     1.0000   1.0000   1.0000   1.0000   1.0000   1.0000   1.0000   1.0000
     1.0000   1.0000   1.0000   1.0000   1.0000   1.0000   1.0000   1.0000
     1.0000   1.0000   1.0000   1.0000   1.0000   1.0000   1.0000   1.0000
     1.0000   1.0000   1.0000   1.0000   1.0000   1.0000   1.0000   1.0000
     1.0000   1.0000   1.0000   1.0000   1.0000   1.0000   1.0000   1.0000
     0.0000   0.0000   0.0000   0.0000   0.0000   0.0000   0.0000   0.0000
     0.0000   0.0000   0.0000   0.0000   0.0000   0.0000   0.0000   0.0000
     0.0000   0.0000   0.0000   0.0000   0.0000   0.0000   0.0000   0.0000
     0.0000   0.0000   0.0000   0.0000   0.0000   0.0000

          k = 0.1000 0.0000-0.1972 (  4104 PWs)   bands (ev):

   -13.7540 -13.7540 -13.7431 -13.7431 -13.7397 -13.7397 -13.7333 -13.7333
   -13.7243 -13.7243 -13.7211 -13.7211 -13.7101 -13.7101 -13.6897 -13.6897
   -13.6831 -13.6831 -13.6712 -13.6712  -5.8645  -5.8645  -4.8123  -4.8123
     0.6143   0.6143   2.2751   2.2751   3.6902   3.6902   4.6534   4.6534
     4.9428   4.9428   5.7800   5.7800   5.8642   5.8642   7.0015   7.0015
     9.9213   9.9213  10.3286  10.3286  11.0026  11.0026  11.1826  11.1826
    12.3079  12.3079  12.7743  12.7743  13.2715  13.2715  14.2493  14.2493
    15.2841  15.2841  15.4784  15.4784  16.5277  16.5277  16.8610  16.8610
    17.9379  17.9379  18.2246  18.2246  18.3605  18.3605

     occupation numbers 
     1.0000   1.0000   1.0000   1.0000   1.0000   1.0000   1.0000   1.0000
     1.0000   1.0000   1.0000   1.0000   1.0000   1.0000   1.0000   1.0000
     1.0000   1.0000   1.0000   1.0000   1.0000   1.0000   1.0000   1.0000
     1.0000   1.0000   1.0000   1.0000   1.0000   1.0000   1.0000   1.0000
     1.0000   1.0000   1.0000   1.0000   1.0000   1.0000   1.0000   1.0000
     0.0000   0.0000   0.0000   0.0000   0.0000   0.0000   0.0000   0.0000
     0.0000   0.0000   0.0000   0.0000   0.0000   0.0000   0.0000   0.0000
     0.0000   0.0000   0.0000   0.0000   0.0000   0.0000   0.0000   0.0000
     0.0000   0.0000   0.0000   0.0000   0.0000   0.0000

          k = 0.1000 0.1092 0.0000 (  4121 PWs)   bands (ev):

   -13.7565 -13.7467 -13.7441 -13.7418 -13.7402 -13.7389 -13.7358 -13.7339
   -13.7275 -13.7230 -13.7219 -13.7196 -13.7105 -13.7083 -13.6909 -13.6882
   -13.6840 -13.6829 -13.6744 -13.6687  -5.9420  -5.6197  -5.0423  -4.6211
     0.2356   1.2958   1.7121   2.2286   2.9328   4.1370   4.3124   4.9102
     4.9380   5.1393   5.3900   5.9375   6.1422   6.7465   6.8901   7.1346
     8.4726   9.7306  10.3416  10.5289  10.5525  10.7597  11.2950  11.7329
    11.7840  12.4063  12.7247  12.8969  13.5648  13.7755  13.9660  14.4683
    14.5780  15.8256  15.9201  16.0450  16.4384  16.8221  16.9082  17.1380
    17.4009  17.6769  17.9776  18.3369  18.5575  18.8981

     occupation numbers 
     1.0000   1.0000   1.0000   1.0000   1.0000   1.0000   1.0000   1.0000
     1.0000   1.0000   1.0000   1.0000   1.0000   1.0000   1.0000   1.0000
     1.0000   1.0000   1.0000   1.0000   1.0000   1.0000   1.0000   1.0000
     1.0000   1.0000   1.0000   1.0000   1.0000   1.0000   1.0000   1.0000
     1.0000   1.0000   1.0000   1.0000   1.0000   1.0000   1.0000   1.0000
     0.0000   0.0000   0.0000   0.0000   0.0000   0.0000   0.0000   0.0000
     0.0000   0.0000   0.0000   0.0000   0.0000   0.0000   0.0000   0.0000
     0.0000   0.0000   0.0000   0.0000   0.0000   0.0000   0.0000   0.0000
     0.0000   0.0000   0.0000   0.0000   0.0000   0.0000

          k = 0.1000 0.1092 0.0986 (  4111 PWs)   bands (ev):

   -13.7553 -13.7487 -13.7433 -13.7417 -13.7405 -13.7395 -13.7352 -13.7339
   -13.7269 -13.7237 -13.7213 -13.7197 -13.7103 -13.7087 -13.6903 -13.6884
   -13.6840 -13.6832 -13.6735 -13.6695  -5.9085  -5.6905  -4.9569  -4.6690
     0.3204   0.9639   1.9427   2.2072   3.1629   4.1064   4.3411   4.6379
     5.0112   5.2256   5.4475   5.7703   6.1043   6.4799   6.8657   7.1318
     9.1436   9.7996  10.3068  10.4570  10.5352  10.7482  11.2458  11.6838
    11.9478  12.4180  12.6010  12.7117  13.4659  13.7280  13.8429  14.4065
    14.6211  15.6169  15.7266  16.1874  16.3526  16.7622  16.9971  17.3633
    17.5653  17.7761  18.3666  18.4396  18.6515  18.8389

     occupation numbers 
     1.0000   1.0000   1.0000   1.0000   1.0000   1.0000   1.0000   1.0000
     1.0000   1.0000   1.0000   1.0000   1.0000   1.0000   1.0000   1.0000
     1.0000   1.0000   1.0000   1.0000   1.0000   1.0000   1.0000   1.0000
     1.0000   1.0000   1.0000   1.0000   1.0000   1.0000   1.0000   1.0000
     1.0000   1.0000   1.0000   1.0000   1.0000   1.0000   1.0000   1.0000
     0.0000   0.0000   0.0000   0.0000   0.0000   0.0000   0.0000   0.0000
     0.0000   0.0000   0.0000   0.0000   0.0000   0.0000   0.0000   0.0000
     0.0000   0.0000   0.0000   0.0000   0.0000   0.0000   0.0000   0.0000
     0.0000   0.0000   0.0000   0.0000   0.0000   0.0000

          k = 0.1000 0.1092-0.1972 (  4098 PWs)   bands (ev):

   -13.7523 -13.7523 -13.7422 -13.7422 -13.7404 -13.7404 -13.7343 -13.7343
   -13.7254 -13.7254 -13.7203 -13.7203 -13.7097 -13.7097 -13.6892 -13.6892
   -13.6837 -13.6837 -13.6714 -13.6714  -5.8149  -5.8149  -4.7974  -4.7974
     0.5716   0.5716   2.1201   2.1201   3.7142   3.7142   4.4483   4.4483
     5.1550   5.1550   5.5229   5.5229   6.1653   6.1653   7.0442   7.0442
     9.8279   9.8279  10.4270  10.4270  10.5499  10.5499  11.3208  11.3208
    12.2963  12.2963  12.4499  12.4499  13.5028  13.5028  14.0756  14.0756
    15.0577  15.0577  15.9072  15.9072  16.5216  16.5216  17.3313  17.3313
    17.8435  17.8435  18.4808  18.4808  18.7515  18.7515

     occupation numbers 
     1.0000   1.0000   1.0000   1.0000   1.0000   1.0000   1.0000   1.0000
     1.0000   1.0000   1.0000   1.0000   1.0000   1.0000   1.0000   1.0000
     1.0000   1.0000   1.0000   1.0000   1.0000   1.0000   1.0000   1.0000
     1.0000   1.0000   1.0000   1.0000   1.0000   1.0000   1.0000   1.0000
     1.0000   1.0000   1.0000   1.0000   1.0000   1.0000   1.0000   1.0000
     0.0000   0.0000   0.0000   0.0000   0.0000   0.0000   0.0000   0.0000
     0.0000   0.0000   0.0000   0.0000   0.0000   0.0000   0.0000   0.0000
     0.0000   0.0000   0.0000   0.0000   0.0000   0.0000   0.0000   0.0000
     0.0000   0.0000   0.0000   0.0000   0.0000   0.0000

          k = 0.1000 0.2184 0.0000 (  4112 PWs)   bands (ev):

   -13.7515 -13.7462 -13.7440 -13.7397 -13.7392 -13.7388 -13.7374 -13.7362
   -13.7289 -13.7254 -13.7213 -13.7166 -13.7098 -13.7076 -13.6905 -13.6880
   -13.6866 -13.6822 -13.6740 -13.6697  -5.7905  -5.4938  -4.9747  -4.6204
     0.1309   1.0321   1.5192   1.7374   3.0623   3.9198   4.2389   4.8527
     5.1637   5.3796   5.4003   5.8985   6.2919   6.7811   7.0179   7.1368
     8.6646   9.0161   9.8184   9.8699  10.5540  10.8207  11.4084  11.4538
    11.9476  12.1032  12.2812  12.9689  13.3124  13.8512  14.1947  14.4557
    14.7047  15.6972  16.0375  16.0672  16.3964  17.1135  17.1787  17.3863
    18.1706  18.3864  18.6494  19.0779  19.2210  19.3342

     occupation numbers 
     1.0000   1.0000   1.0000   1.0000   1.0000   1.0000   1.0000   1.0000
     1.0000   1.0000   1.0000   1.0000   1.0000   1.0000   1.0000   1.0000
     1.0000   1.0000   1.0000   1.0000   1.0000   1.0000   1.0000   1.0000
     1.0000   1.0000   1.0000   1.0000   1.0000   1.0000   1.0000   1.0000
     1.0000   1.0000   1.0000   1.0000   1.0000   1.0000   1.0000   1.0000
     0.0000   0.0000   0.0000   0.0000   0.0000   0.0000   0.0000   0.0000
     0.0000   0.0000   0.0000   0.0000   0.0000   0.0000   0.0000   0.0000
     0.0000   0.0000   0.0000   0.0000   0.0000   0.0000   0.0000   0.0000
     0.0000   0.0000   0.0000   0.0000   0.0000   0.0000

          k = 0.1000 0.2184 0.0986 (  4104 PWs)   bands (ev):

   -13.7507 -13.7470 -13.7436 -13.7407 -13.7394 -13.7384 -13.7374 -13.7362
   -13.7283 -13.7259 -13.7205 -13.7172 -13.7095 -13.7079 -13.6901 -13.6885
   -13.6857 -13.6827 -13.6733 -13.6703  -5.7593  -5.5583  -4.9014  -4.6597
     0.2117   0.7914   1.6179   1.7419   3.2967   3.9527   4.2574   4.6566
     5.1023   5.3932   5.5071   5.7400   6.2527   6.6266   6.9867   7.1123
     8.9906   9.3427   9.6811  10.1219  10.6146  10.6805  11.2026  11.5219
    11.7344  12.1169  12.2825  12.7908  13.3659  13.7542  14.2314  14.3356
    14.6135  15.5068  16.1204  16.1707  16.8049  16.9339  17.2892  17.8937
    17.9891  18.4717  18.6598  18.6648  19.2977  19.5421

     occupation numbers 
     1.0000   1.0000   1.0000   1.0000   1.0000   1.0000   1.0000   1.0000
     1.0000   1.0000   1.0000   1.0000   1.0000   1.0000   1.0000   1.0000
     1.0000   1.0000   1.0000   1.0000   1.0000   1.0000   1.0000   1.0000
     1.0000   1.0000   1.0000   1.0000   1.0000   1.0000   1.0000   1.0000
     1.0000   1.0000   1.0000   1.0000   1.0000   1.0000   1.0000   1.0000
     0.0000   0.0000   0.0000   0.0000   0.0000   0.0000   0.0000   0.0000
     0.0000   0.0000   0.0000   0.0000   0.0000   0.0000   0.0000   0.0000
     0.0000   0.0000   0.0000   0.0000   0.0000   0.0000   0.0000   0.0000
     0.0000   0.0000   0.0000   0.0000   0.0000   0.0000

          k = 0.1000 0.2184-0.1972 (  4124 PWs)   bands (ev):

   -13.7488 -13.7488 -13.7424 -13.7424 -13.7390 -13.7390 -13.7366 -13.7366
   -13.7270 -13.7270 -13.7188 -13.7188 -13.7088 -13.7088 -13.6894 -13.6894
   -13.6842 -13.6842 -13.6717 -13.6717  -5.6727  -5.6727  -4.7663  -4.7663
     0.4465   0.4465   1.7063   1.7063   3.7821   3.7821   4.3447   4.3447
     5.2312   5.2312   5.5815   5.5815   6.3243   6.3243   7.1026   7.1026
     9.2417   9.2417  10.3215  10.3215  10.6170  10.6170  11.0467  11.0467
    11.8368  11.8368  12.4708  12.4708  13.5536  13.5536  14.2856  14.2856
    14.8888  14.8888  16.3192  16.3192  17.2708  17.2708  17.3298  17.3298
    18.0982  18.0982  18.8922  18.8922  19.3925  19.3925

     occupation numbers 
     1.0000   1.0000   1.0000   1.0000   1.0000   1.0000   1.0000   1.0000
     1.0000   1.0000   1.0000   1.0000   1.0000   1.0000   1.0000   1.0000
     1.0000   1.0000   1.0000   1.0000   1.0000   1.0000   1.0000   1.0000
     1.0000   1.0000   1.0000   1.0000   1.0000   1.0000   1.0000   1.0000
     1.0000   1.0000   1.0000   1.0000   1.0000   1.0000   1.0000   1.0000
     0.0000   0.0000   0.0000   0.0000   0.0000   0.0000   0.0000   0.0000
     0.0000   0.0000   0.0000   0.0000   0.0000   0.0000   0.0000   0.0000
     0.0000   0.0000   0.0000   0.0000   0.0000   0.0000   0.0000   0.0000
     0.0000   0.0000   0.0000   0.0000   0.0000   0.0000

          k = 0.1000 0.3276 0.0000 (  4117 PWs)   bands (ev):

   -13.7498 -13.7466 -13.7451 -13.7444 -13.7389 -13.7352 -13.7347 -13.7333
   -13.7283 -13.7274 -13.7215 -13.7126 -13.7117 -13.7051 -13.6933 -13.6919
   -13.6843 -13.6796 -13.6733 -13.6711  -5.5579  -5.3098  -4.9028  -4.6610
    -0.0008   0.7425   1.0085   1.3047   3.3398   3.9378   4.3198   4.8886
     5.3741   5.5013   5.5068   5.8594   6.3204   6.7938   6.8272   7.1054
     8.5922   8.8268   9.1629   9.3061  10.3954  10.4572  10.8423  11.0881
    11.8922  11.9564  12.2987  12.6302  13.6586  14.3633  14.4275  15.1841
    15.3441  15.3844  15.5358  16.3518  16.7481  17.4152  17.7973  17.9016
    18.4532  19.0864  19.1402  19.4038  19.9867  20.2734

     occupation numbers 
     1.0000   1.0000   1.0000   1.0000   1.0000   1.0000   1.0000   1.0000
     1.0000   1.0000   1.0000   1.0000   1.0000   1.0000   1.0000   1.0000
     1.0000   1.0000   1.0000   1.0000   1.0000   1.0000   1.0000   1.0000
     1.0000   1.0000   1.0000   1.0000   1.0000   1.0000   1.0000   1.0000
     1.0000   1.0000   1.0000   1.0000   1.0000   1.0000   1.0000   1.0000
     0.0000   0.0000   0.0000   0.0000   0.0000   0.0000   0.0000   0.0000
     0.0000   0.0000   0.0000   0.0000   0.0000   0.0000   0.0000   0.0000
     0.0000   0.0000   0.0000   0.0000   0.0000   0.0000   0.0000   0.0000
     0.0000   0.0000   0.0000   0.0000   0.0000   0.0000

          k = 0.1000 0.3276 0.0986 (  4116 PWs)   bands (ev):

   -13.7496 -13.7476 -13.7447 -13.7436 -13.7386 -13.7354 -13.7347 -13.7342
   -13.7280 -13.7274 -13.7204 -13.7152 -13.7094 -13.7057 -13.6932 -13.6923
   -13.6835 -13.6802 -13.6730 -13.6714  -5.5313  -5.3626  -4.8505  -4.6863
     0.0750   0.5754   1.0633   1.2785   3.5544   3.9813   4.3584   4.7722
     5.2581   5.4688   5.5863   5.8162   6.2723   6.5614   6.8497   7.0276
     8.6641   9.0625   9.4485   9.5440  10.3310  10.4286  10.6934  11.1563
    11.5948  11.9636  12.1674  12.3951  13.8157  14.2644  14.5062  15.1694
    15.3821  15.5082  15.5847  16.5363  16.7220  17.3953  17.8402  18.0674
    18.3609  18.7472  19.0467  19.4347  19.9355  20.1351

     occupation numbers 
     1.0000   1.0000   1.0000   1.0000   1.0000   1.0000   1.0000   1.0000
     1.0000   1.0000   1.0000   1.0000   1.0000   1.0000   1.0000   1.0000
     1.0000   1.0000   1.0000   1.0000   1.0000   1.0000   1.0000   1.0000
     1.0000   1.0000   1.0000   1.0000   1.0000   1.0000   1.0000   1.0000
     1.0000   1.0000   1.0000   1.0000   1.0000   1.0000   1.0000   1.0000
     0.0000   0.0000   0.0000   0.0000   0.0000   0.0000   0.0000   0.0000
     0.0000   0.0000   0.0000   0.0000   0.0000   0.0000   0.0000   0.0000
     0.0000   0.0000   0.0000   0.0000   0.0000   0.0000   0.0000   0.0000
     0.0000   0.0000   0.0000   0.0000   0.0000   0.0000

          k = 0.1000 0.3276-0.1972 (  4116 PWs)   bands (ev):

   -13.7488 -13.7488 -13.7437 -13.7437 -13.7371 -13.7371 -13.7347 -13.7347
   -13.7275 -13.7275 -13.7181 -13.7181 -13.7072 -13.7072 -13.6929 -13.6929
   -13.6818 -13.6818 -13.6722 -13.6722  -5.4579  -5.4579  -4.7571  -4.7571
     0.2887   0.2887   1.1775   1.1775   3.9297   3.9297   4.4908   4.4908
     5.2662   5.2662   5.7522   5.7522   6.2690   6.2690   6.9448   6.9448
     8.9347   8.9347   9.7802   9.7802  10.4697  10.4697  10.8228  10.8228
    11.5105  11.5105  12.1658  12.1658  14.0979  14.0979  14.8672  14.8672
    15.3290  15.3290  16.3659  16.3659  16.9515  16.9515  18.0737  18.0737
    18.4227  18.4227  19.2596  19.2596  19.8695  19.8695

     occupation numbers 
     1.0000   1.0000   1.0000   1.0000   1.0000   1.0000   1.0000   1.0000
     1.0000   1.0000   1.0000   1.0000   1.0000   1.0000   1.0000   1.0000
     1.0000   1.0000   1.0000   1.0000   1.0000   1.0000   1.0000   1.0000
     1.0000   1.0000   1.0000   1.0000   1.0000   1.0000   1.0000   1.0000
     1.0000   1.0000   1.0000   1.0000   1.0000   1.0000   1.0000   1.0000
     0.0000   0.0000   0.0000   0.0000   0.0000   0.0000   0.0000   0.0000
     0.0000   0.0000   0.0000   0.0000   0.0000   0.0000   0.0000   0.0000
     0.0000   0.0000   0.0000   0.0000   0.0000   0.0000   0.0000   0.0000
     0.0000   0.0000   0.0000   0.0000   0.0000   0.0000

          k = 0.1000 0.4368 0.0000 (  4117 PWs)   bands (ev):

   -13.7514 -13.7491 -13.7478 -13.7461 -13.7365 -13.7333 -13.7317 -13.7295
   -13.7273 -13.7254 -13.7224 -13.7151 -13.7082 -13.7027 -13.6976 -13.6964
   -13.6802 -13.6769 -13.6732 -13.6730  -5.2781  -5.1098  -4.8805  -4.7842
    -0.0541   0.4566   0.5913   0.9342   3.7314   4.1602   4.4802   5.0635
     5.2004   5.2577   5.8462   5.9809   6.2003   6.5422   6.7923   6.9381
     8.4217   8.6724   8.9667   9.1732  10.0552  10.2153  10.5554  10.5607
    11.4308  11.6444  12.1548  12.4450  13.8388  14.5238  15.3557  15.6988
    15.9068  15.9413  16.6195  16.7114  16.8558  17.5011  18.1465  18.1670
    18.9822  18.9879  19.2813  19.8202  19.9422  20.3803

     occupation numbers 
     1.0000   1.0000   1.0000   1.0000   1.0000   1.0000   1.0000   1.0000
     1.0000   1.0000   1.0000   1.0000   1.0000   1.0000   1.0000   1.0000
     1.0000   1.0000   1.0000   1.0000   1.0000   1.0000   1.0000   1.0000
     1.0000   1.0000   1.0000   1.0000   1.0000   1.0000   1.0000   1.0000
     1.0000   1.0000   1.0000   1.0000   1.0000   1.0000   1.0000   1.0000
     0.0000   0.0000   0.0000   0.0000   0.0000   0.0000   0.0000   0.0000
     0.0000   0.0000   0.0000   0.0000   0.0000   0.0000   0.0000   0.0000
     0.0000   0.0000   0.0000   0.0000   0.0000   0.0000   0.0000   0.0000
     0.0000   0.0000   0.0000   0.0000   0.0000   0.0000

          k = 0.1000 0.4368 0.0986 (  4136 PWs)   bands (ev):

   -13.7511 -13.7490 -13.7482 -13.7464 -13.7357 -13.7331 -13.7322 -13.7309
   -13.7267 -13.7251 -13.7215 -13.7166 -13.7069 -13.7031 -13.6976 -13.6967
   -13.6796 -13.6773 -13.6732 -13.6731  -5.2591  -5.1439  -4.8570  -4.7927
     0.0194   0.4592   0.5285   0.8598   3.9243   4.2208   4.5790   4.8957
     5.2095   5.3931   5.6245   5.9389   6.2033   6.4639   6.5975   6.8129
     8.6554   8.9041   9.1650   9.2356  10.0450  10.2322  10.5324  10.6435
    11.2467  11.5945  11.9246  12.0931  14.0979  14.8435  15.4639  15.7094
    15.8071  16.0802  16.3947  16.7523  17.1290  17.3934  17.5322  18.4785
    18.6589  18.9437  19.1940  19.7074  20.0971  20.4071

     occupation numbers 
     1.0000   1.0000   1.0000   1.0000   1.0000   1.0000   1.0000   1.0000
     1.0000   1.0000   1.0000   1.0000   1.0000   1.0000   1.0000   1.0000
     1.0000   1.0000   1.0000   1.0000   1.0000   1.0000   1.0000   1.0000
     1.0000   1.0000   1.0000   1.0000   1.0000   1.0000   1.0000   1.0000
     1.0000   1.0000   1.0000   1.0000   1.0000   1.0000   1.0000   1.0000
     0.0000   0.0000   0.0000   0.0000   0.0000   0.0000   0.0000   0.0000
     0.0000   0.0000   0.0000   0.0000   0.0000   0.0000   0.0000   0.0000
     0.0000   0.0000   0.0000   0.0000   0.0000   0.0000   0.0000   0.0000
     0.0000   0.0000   0.0000   0.0000   0.0000   0.0000

          k = 0.1000 0.4368-0.1972 (  4124 PWs)   bands (ev):

   -13.7501 -13.7501 -13.7474 -13.7474 -13.7337 -13.7337 -13.7325 -13.7325
   -13.7255 -13.7255 -13.7192 -13.7192 -13.7046 -13.7046 -13.6973 -13.6973
   -13.6784 -13.6784 -13.6732 -13.6732  -5.2079  -5.2079  -4.8185  -4.8185
     0.2187   0.2187   0.6856   0.6856   4.2285   4.2285   4.7459   4.7459
     5.2376   5.2376   5.6955   5.6955   6.2333   6.2333   6.6668   6.6668
     8.9757   8.9757   9.2900   9.2900  10.1490  10.1490  10.7896  10.7896
    11.2208  11.2208  11.6590  11.6590  14.8236  14.8236  15.6030  15.6030
    15.9244  15.9244  16.3733  16.3733  17.3269  17.3269  17.9492  17.9492
    18.6925  18.6925  19.3236  19.3236  20.4403  20.4403

     occupation numbers 
     1.0000   1.0000   1.0000   1.0000   1.0000   1.0000   1.0000   1.0000
     1.0000   1.0000   1.0000   1.0000   1.0000   1.0000   1.0000   1.0000
     1.0000   1.0000   1.0000   1.0000   1.0000   1.0000   1.0000   1.0000
     1.0000   1.0000   1.0000   1.0000   1.0000   1.0000   1.0000   1.0000
     1.0000   1.0000   1.0000   1.0000   1.0000   1.0000   1.0000   1.0000
     0.0000   0.0000   0.0000   0.0000   0.0000   0.0000   0.0000   0.0000
     0.0000   0.0000   0.0000   0.0000   0.0000   0.0000   0.0000   0.0000
     0.0000   0.0000   0.0000   0.0000   0.0000   0.0000   0.0000   0.0000
     0.0000   0.0000   0.0000   0.0000   0.0000   0.0000

          k = 0.1000-0.5460 0.0000 (  4144 PWs)   bands (ev):

   -13.7513 -13.7513 -13.7479 -13.7479 -13.7340 -13.7340 -13.7298 -13.7298
   -13.7249 -13.7249 -13.7197 -13.7197 -13.7038 -13.7038 -13.6991 -13.6991
   -13.6765 -13.6765 -13.6742 -13.6742  -5.0013  -5.0013  -4.9507  -4.9507
     0.0845   0.0845   0.6633   0.6633   4.1304   4.1304   4.7701   4.7701
     5.1609   5.1609   6.0139   6.0139   6.2846   6.2846   6.8071   6.8071
     8.4447   8.4447   9.1153   9.1153   9.8780   9.8780  10.6997  10.6997
    11.1223  11.1223  12.2970  12.2970  14.0760  14.0760  15.7627  15.7627
    16.5070  16.5070  17.1917  17.1917  17.4320  17.4320  18.7025  18.7025
    18.8239  18.8239  19.1630  19.1630  19.6179  19.6179

     occupation numbers 
     1.0000   1.0000   1.0000   1.0000   1.0000   1.0000   1.0000   1.0000
     1.0000   1.0000   1.0000   1.0000   1.0000   1.0000   1.0000   1.0000
     1.0000   1.0000   1.0000   1.0000   1.0000   1.0000   1.0000   1.0000
     1.0000   1.0000   1.0000   1.0000   1.0000   1.0000   1.0000   1.0000
     1.0000   1.0000   1.0000   1.0000   1.0000   1.0000   1.0000   1.0000
     0.0000   0.0000   0.0000   0.0000   0.0000   0.0000   0.0000   0.0000
     0.0000   0.0000   0.0000   0.0000   0.0000   0.0000   0.0000   0.0000
     0.0000   0.0000   0.0000   0.0000   0.0000   0.0000   0.0000   0.0000
     0.0000   0.0000   0.0000   0.0000   0.0000   0.0000

          k = 0.1000-0.5460 0.0986 (  4134 PWs)   bands (ev):

   -13.7509 -13.7509 -13.7485 -13.7485 -13.7335 -13.7335 -13.7307 -13.7307
   -13.7238 -13.7238 -13.7203 -13.7203 -13.7030 -13.7030 -13.6997 -13.6997
   -13.6761 -13.6761 -13.6745 -13.6745  -4.9941  -4.9941  -4.9583  -4.9583
[...]
     1.0000   1.0000   1.0000   1.0000   1.0000   1.0000   1.0000   1.0000
     0.0000   0.0000   0.0000   0.0000   0.0000   0.0000   0.0000   0.0000
     0.0000   0.0000   0.0000   0.0000   0.0000   0.0000   0.0000   0.0000
     0.0000   0.0000   0.0000   0.0000   0.0000   0.0000   0.0000   0.0000
     0.0000   0.0000   0.0000   0.0000   0.0000   0.0000

          k =-0.5000 0.2184 0.0000 (  4088 PWs)   bands (ev):

   -13.7511 -13.7511 -13.7429 -13.7429 -13.7412 -13.7412 -13.7372 -13.7372
   -13.7268 -13.7268 -13.7121 -13.7121 -13.7072 -13.7072 -13.6881 -13.6881
   -13.6860 -13.6860 -13.6717 -13.6717  -5.1804  -5.1804  -4.9312  -4.9312
    -0.0322  -0.0322   1.1760   1.1760   3.8573   3.8573   4.1675   4.1675
     4.7449   4.7449   5.7385   5.7385   6.4861   6.4861   6.9639   6.9639
     8.8480   8.8480  10.0984  10.0984  10.9989  10.9989  11.5364  11.5364
    11.9183  11.9183  12.8737  12.8737  13.5943  13.5943  15.1647  15.1647
    16.7393  16.7393  17.0089  17.0089  17.4874  17.4874  18.5112  18.5112
    18.6142  18.6142  18.8702  18.8702  19.3667  19.3667

     occupation numbers 
     1.0000   1.0000   1.0000   1.0000   1.0000   1.0000   1.0000   1.0000
     1.0000   1.0000   1.0000   1.0000   1.0000   1.0000   1.0000   1.0000
     1.0000   1.0000   1.0000   1.0000   1.0000   1.0000   1.0000   1.0000
     1.0000   1.0000   1.0000   1.0000   1.0000   1.0000   1.0000   1.0000
     1.0000   1.0000   1.0000   1.0000   1.0000   1.0000   1.0000   1.0000
     0.0000   0.0000   0.0000   0.0000   0.0000   0.0000   0.0000   0.0000
     0.0000   0.0000   0.0000   0.0000   0.0000   0.0000   0.0000   0.0000
     0.0000   0.0000   0.0000   0.0000   0.0000   0.0000   0.0000   0.0000
     0.0000   0.0000   0.0000   0.0000   0.0000   0.0000

          k =-0.5000 0.2184 0.0986 (  4096 PWs)   bands (ev):

   -13.7507 -13.7507 -13.7449 -13.7449 -13.7397 -13.7397 -13.7369 -13.7369
   -13.7267 -13.7267 -13.7126 -13.7126 -13.7069 -13.7069 -13.6883 -13.6883
   -13.6861 -13.6861 -13.6715 -13.6715  -5.1794  -5.1794  -4.9326  -4.9326
    -0.0063  -0.0063   1.1160   1.1160   3.9202   3.9202   4.1786   4.1786
     4.8488   4.8488   5.7411   5.7411   6.2653   6.2653   6.8311   6.8311
     9.2827   9.2827  10.1907  10.1907  10.6626  10.6626  11.4880  11.4880
    11.9397  11.9397  12.6166  12.6166  13.9891  13.9891  15.3651  15.3651
    16.3987  16.3987  17.1482  17.1482  17.3172  17.3172  18.0655  18.0655
    18.4910  18.4910  19.1346  19.1346  19.7472  19.7472

     occupation numbers 
     1.0000   1.0000   1.0000   1.0000   1.0000   1.0000   1.0000   1.0000
     1.0000   1.0000   1.0000   1.0000   1.0000   1.0000   1.0000   1.0000
     1.0000   1.0000   1.0000   1.0000   1.0000   1.0000   1.0000   1.0000
     1.0000   1.0000   1.0000   1.0000   1.0000   1.0000   1.0000   1.0000
     1.0000   1.0000   1.0000   1.0000   1.0000   1.0000   1.0000   1.0000
     0.0000   0.0000   0.0000   0.0000   0.0000   0.0000   0.0000   0.0000
     0.0000   0.0000   0.0000   0.0000   0.0000   0.0000   0.0000   0.0000
     0.0000   0.0000   0.0000   0.0000   0.0000   0.0000   0.0000   0.0000
     0.0000   0.0000   0.0000   0.0000   0.0000   0.0000

          k =-0.5000 0.2184-0.1972 (  4088 PWs)   bands (ev):

   -13.7501 -13.7501 -13.7463 -13.7463 -13.7389 -13.7389 -13.7366 -13.7366
   -13.7265 -13.7265 -13.7130 -13.7130 -13.7067 -13.7067 -13.6884 -13.6884
   -13.6861 -13.6861 -13.6714 -13.6714  -5.1783  -5.1783  -4.9340  -4.9340
     0.0217   0.0217   1.0556   1.0556   4.0036   4.0036   4.1365   4.1365
     5.1843   5.1843   5.4262   5.4262   6.1913   6.1913   6.7141   6.7141
     9.8980   9.8980  10.1463  10.1463  10.4292  10.4292  11.1621  11.1621
    12.0348  12.0348  12.4177  12.4177  14.8784  14.8784  14.9291  14.9291
    16.0447  16.0447  17.2755  17.2755  17.3768  17.3768  18.0499  18.0499
    18.1306  18.1306  19.2312  19.2312  20.1187  20.1187

     occupation numbers 
     1.0000   1.0000   1.0000   1.0000   1.0000   1.0000   1.0000   1.0000
     1.0000   1.0000   1.0000   1.0000   1.0000   1.0000   1.0000   1.0000
     1.0000   1.0000   1.0000   1.0000   1.0000   1.0000   1.0000   1.0000
     1.0000   1.0000   1.0000   1.0000   1.0000   1.0000   1.0000   1.0000
     1.0000   1.0000   1.0000   1.0000   1.0000   1.0000   1.0000   1.0000
     0.0000   0.0000   0.0000   0.0000   0.0000   0.0000   0.0000   0.0000
     0.0000   0.0000   0.0000   0.0000   0.0000   0.0000   0.0000   0.0000
     0.0000   0.0000   0.0000   0.0000   0.0000   0.0000   0.0000   0.0000
     0.0000   0.0000   0.0000   0.0000   0.0000   0.0000

          k =-0.5000 0.3276 0.0000 (  4096 PWs)   bands (ev):

   -13.7550 -13.7550 -13.7478 -13.7478 -13.7374 -13.7374 -13.7333 -13.7333
   -13.7266 -13.7266 -13.7135 -13.7135 -13.7049 -13.7049 -13.6907 -13.6907
   -13.6830 -13.6830 -13.6719 -13.6719  -5.0361  -5.0361  -4.8453  -4.8453
     0.2464   0.2464   1.2191   1.2191   3.2884   3.2884   3.7082   3.7082
     4.4888   4.4888   5.1483   5.1483   5.8375   5.8375   6.6169   6.6169
     9.2462   9.2462  10.9976  10.9976  11.9642  11.9642  12.0552  12.0552
    12.2535  12.2535  12.9713  12.9713  13.4180  13.4180  14.7704  14.7704
    17.3025  17.3025  17.6001  17.6001  17.7570  17.7570  18.5522  18.5522
    18.9025  18.9025  19.3503  19.3503  19.6069  19.6069

     occupation numbers 
     1.0000   1.0000   1.0000   1.0000   1.0000   1.0000   1.0000   1.0000
     1.0000   1.0000   1.0000   1.0000   1.0000   1.0000   1.0000   1.0000
     1.0000   1.0000   1.0000   1.0000   1.0000   1.0000   1.0000   1.0000
     1.0000   1.0000   1.0000   1.0000   1.0000   1.0000   1.0000   1.0000
     1.0000   1.0000   1.0000   1.0000   1.0000   1.0000   1.0000   1.0000
     0.0000   0.0000   0.0000   0.0000   0.0000   0.0000   0.0000   0.0000
     0.0000   0.0000   0.0000   0.0000   0.0000   0.0000   0.0000   0.0000
     0.0000   0.0000   0.0000   0.0000   0.0000   0.0000   0.0000   0.0000
     0.0000   0.0000   0.0000   0.0000   0.0000   0.0000

          k =-0.5000 0.3276 0.0986 (  4104 PWs)   bands (ev):

   -13.7546 -13.7546 -13.7485 -13.7485 -13.7371 -13.7371 -13.7332 -13.7332
   -13.7263 -13.7263 -13.7142 -13.7142 -13.7043 -13.7043 -13.6913 -13.6913
   -13.6828 -13.6828 -13.6718 -13.6718  -5.0353  -5.0353  -4.8463  -4.8463
     0.2644   0.2644   1.1832   1.1832   3.3336   3.3336   3.6535   3.6535
     4.5513   4.5513   5.2273   5.2273   5.7407   5.7407   6.5319   6.5319
     9.4975   9.4975  10.9819  10.9819  11.4438  11.4438  11.8142  11.8142
    12.5660  12.5660  13.0089  13.0089  13.7619  13.7619  15.0309  15.0309
    16.8079  16.8079  17.5083  17.5083  17.8574  17.8574  18.5650  18.5650
    18.8216  18.8216  19.1338  19.1338  19.8088  19.8088

     occupation numbers 
     1.0000   1.0000   1.0000   1.0000   1.0000   1.0000   1.0000   1.0000
     1.0000   1.0000   1.0000   1.0000   1.0000   1.0000   1.0000   1.0000
     1.0000   1.0000   1.0000   1.0000   1.0000   1.0000   1.0000   1.0000
     1.0000   1.0000   1.0000   1.0000   1.0000   1.0000   1.0000   1.0000
     1.0000   1.0000   1.0000   1.0000   1.0000   1.0000   1.0000   1.0000
     0.0000   0.0000   0.0000   0.0000   0.0000   0.0000   0.0000   0.0000
     0.0000   0.0000   0.0000   0.0000   0.0000   0.0000   0.0000   0.0000
     0.0000   0.0000   0.0000   0.0000   0.0000   0.0000   0.0000   0.0000
     0.0000   0.0000   0.0000   0.0000   0.0000   0.0000

          k =-0.5000 0.3276-0.1972 (  4088 PWs)   bands (ev):

   -13.7542 -13.7542 -13.7493 -13.7493 -13.7367 -13.7367 -13.7332 -13.7332
   -13.7260 -13.7260 -13.7148 -13.7148 -13.7037 -13.7037 -13.6918 -13.6918
   -13.6826 -13.6826 -13.6717 -13.6717  -5.0345  -5.0345  -4.8474  -4.8474
     0.2837   0.2837   1.1467   1.1467   3.4591   3.4591   3.4982   3.4982
     4.8622   4.8622   4.9238   4.9238   5.9030   5.9030   6.3408   6.3408
     9.8843   9.8843  10.7270  10.7270  11.3629  11.3629  11.4474  11.4474
    12.6802  12.6802  13.0316  13.0316  14.6350  14.6350  14.6669  14.6669
    16.5492  16.5492  17.5188  17.5188  17.7906  17.7906  18.5639  18.5639
    18.7915  18.7915  19.0275  19.0275  19.7394  19.7394

     occupation numbers 
     1.0000   1.0000   1.0000   1.0000   1.0000   1.0000   1.0000   1.0000
     1.0000   1.0000   1.0000   1.0000   1.0000   1.0000   1.0000   1.0000
     1.0000   1.0000   1.0000   1.0000   1.0000   1.0000   1.0000   1.0000
     1.0000   1.0000   1.0000   1.0000   1.0000   1.0000   1.0000   1.0000
     1.0000   1.0000   1.0000   1.0000   1.0000   1.0000   1.0000   1.0000
     0.0000   0.0000   0.0000   0.0000   0.0000   0.0000   0.0000   0.0000
     0.0000   0.0000   0.0000   0.0000   0.0000   0.0000   0.0000   0.0000
     0.0000   0.0000   0.0000   0.0000   0.0000   0.0000   0.0000   0.0000
     0.0000   0.0000   0.0000   0.0000   0.0000   0.0000

          k =-0.5000 0.4368 0.0000 (  4094 PWs)   bands (ev):

   -13.7584 -13.7584 -13.7523 -13.7523 -13.7352 -13.7352 -13.7288 -13.7288
   -13.7251 -13.7251 -13.7158 -13.7158 -13.7029 -13.7029 -13.6932 -13.6932
   -13.6796 -13.6796 -13.6725 -13.6725  -4.8943  -4.8943  -4.7889  -4.7889
     0.5669   0.5669   1.1257   1.1257   2.8981   2.8981   3.4982   3.4982
     4.1025   4.1025   4.8972   4.8972   5.3748   5.3748   6.3652   6.3652
     9.7460   9.7460  10.9287  10.9287  12.0955  12.0955  12.3115  12.3115
    12.7917  12.7917  13.6368  13.6368  13.7910  13.7910  14.6192  14.6192
    17.2455  17.2455  17.8956  17.8956  18.0688  18.0688  18.8064  18.8064
    18.9221  18.9221  19.6058  19.6058  20.2261  20.2261

     occupation numbers 
     1.0000   1.0000   1.0000   1.0000   1.0000   1.0000   1.0000   1.0000
     1.0000   1.0000   1.0000   1.0000   1.0000   1.0000   1.0000   1.0000
     1.0000   1.0000   1.0000   1.0000   1.0000   1.0000   1.0000   1.0000
     1.0000   1.0000   1.0000   1.0000   1.0000   1.0000   1.0000   1.0000
     1.0000   1.0000   1.0000   1.0000   1.0000   1.0000   1.0000   1.0000
     0.0000   0.0000   0.0000   0.0000   0.0000   0.0000   0.0000   0.0000
     0.0000   0.0000   0.0000   0.0000   0.0000   0.0000   0.0000   0.0000
     0.0000   0.0000   0.0000   0.0000   0.0000   0.0000   0.0000   0.0000
     0.0000   0.0000   0.0000   0.0000   0.0000   0.0000

          k =-0.5000 0.4368 0.0986 (  4096 PWs)   bands (ev):

   -13.7577 -13.7577 -13.7530 -13.7530 -13.7348 -13.7348 -13.7301 -13.7301
   -13.7240 -13.7240 -13.7165 -13.7165 -13.7019 -13.7019 -13.6939 -13.6939
   -13.6792 -13.6792 -13.6727 -13.6727  -4.8938  -4.8938  -4.7895  -4.7895
     0.5753   0.5753   1.1072   1.1072   2.9816   2.9816   3.4708   3.4708
     4.0297   4.0297   4.7198   4.7198   5.6277   5.6277   6.3728   6.3728
     9.7555   9.7555  10.6879  10.6879  11.9896  11.9896  12.1184  12.1184
    13.2668  13.2668  13.7206  13.7206  13.8526  13.8526  14.8691  14.8691
    16.8875  16.8875  17.7714  17.7714  18.1468  18.1468  18.6016  18.6016
    18.9929  18.9929  19.2594  19.2594  20.0939  20.0939

     occupation numbers 
     1.0000   1.0000   1.0000   1.0000   1.0000   1.0000   1.0000   1.0000
     1.0000   1.0000   1.0000   1.0000   1.0000   1.0000   1.0000   1.0000
     1.0000   1.0000   1.0000   1.0000   1.0000   1.0000   1.0000   1.0000
     1.0000   1.0000   1.0000   1.0000   1.0000   1.0000   1.0000   1.0000
     1.0000   1.0000   1.0000   1.0000   1.0000   1.0000   1.0000   1.0000
     0.0000   0.0000   0.0000   0.0000   0.0000   0.0000   0.0000   0.0000
     0.0000   0.0000   0.0000   0.0000   0.0000   0.0000   0.0000   0.0000
     0.0000   0.0000   0.0000   0.0000   0.0000   0.0000   0.0000   0.0000
     0.0000   0.0000   0.0000   0.0000   0.0000   0.0000

          k =-0.5000 0.4368-0.1972 (  4100 PWs)   bands (ev):

   -13.7568 -13.7568 -13.7540 -13.7540 -13.7341 -13.7341 -13.7314 -13.7314
   -13.7230 -13.7230 -13.7173 -13.7173 -13.7007 -13.7007 -13.6949 -13.6949
   -13.6788 -13.6788 -13.6729 -13.6729  -4.8932  -4.8932  -4.7901  -4.7901
     0.5843   0.5843   1.0884   1.0884   3.1864   3.1864   3.2536   3.2536
     4.1745   4.1745   4.4126   4.4126   6.0169   6.0169   6.2168   6.2168
     9.8638   9.8638  10.3621  10.3621  11.9264  11.9264  12.0193  12.0193
    13.5163  13.5163  13.7214  13.7214  14.4986  14.4986  14.6353  14.6353
    16.8516  16.8516  17.4145  17.4145  18.1807  18.1807  18.4339  18.4339
    18.8469  18.8469  19.1773  19.1773  20.1654  20.1654

     occupation numbers 
     1.0000   1.0000   1.0000   1.0000   1.0000   1.0000   1.0000   1.0000
     1.0000   1.0000   1.0000   1.0000   1.0000   1.0000   1.0000   1.0000
     1.0000   1.0000   1.0000   1.0000   1.0000   1.0000   1.0000   1.0000
     1.0000   1.0000   1.0000   1.0000   1.0000   1.0000   1.0000   1.0000
     1.0000   1.0000   1.0000   1.0000   1.0000   1.0000   1.0000   1.0000
     0.0000   0.0000   0.0000   0.0000   0.0000   0.0000   0.0000   0.0000
     0.0000   0.0000   0.0000   0.0000   0.0000   0.0000   0.0000   0.0000
     0.0000   0.0000   0.0000   0.0000   0.0000   0.0000   0.0000   0.0000
     0.0000   0.0000   0.0000   0.0000   0.0000   0.0000

          k =-0.5000-0.5460 0.0000 (  4060 PWs)   bands (ev):

   -13.7596 -13.7596 -13.7539 -13.7539 -13.7345 -13.7345 -13.7273 -13.7273
   -13.7237 -13.7237 -13.7174 -13.7174 -13.7020 -13.7020 -13.6942 -13.6942
   -13.6778 -13.6778 -13.6731 -13.6731  -4.8069  -4.8069  -4.7974  -4.7974
     0.8097   0.8097   0.9542   0.9542   2.8054   2.8054   3.3737   3.3737
     4.0581   4.0581   4.5956   4.5956   5.3847   5.3847   6.2430   6.2430
    10.1764  10.1764  10.5216  10.5216  12.1542  12.1542  12.2796  12.2796
    13.0684  13.0684  13.9098  13.9098  14.0945  14.0945  14.6685  14.6685
    17.2216  17.2216  17.5975  17.5975  17.8927  17.8927  19.6053  19.6053
    19.6880  19.6880  20.0011  20.0011  20.1325  20.1325

     occupation numbers 
     1.0000   1.0000   1.0000   1.0000   1.0000   1.0000   1.0000   1.0000
     1.0000   1.0000   1.0000   1.0000   1.0000   1.0000   1.0000   1.0000
     1.0000   1.0000   1.0000   1.0000   1.0000   1.0000   1.0000   1.0000
     1.0000   1.0000   1.0000   1.0000   1.0000   1.0000   1.0000   1.0000
     1.0000   1.0000   1.0000   1.0000   1.0000   1.0000   1.0000   1.0000
     0.0000   0.0000   0.0000   0.0000   0.0000   0.0000   0.0000   0.0000
     0.0000   0.0000   0.0000   0.0000   0.0000   0.0000   0.0000   0.0000
     0.0000   0.0000   0.0000   0.0000   0.0000   0.0000   0.0000   0.0000
     0.0000   0.0000   0.0000   0.0000   0.0000   0.0000

          k =-0.5000-0.5460 0.0986 (  4088 PWs)   bands (ev):

   -13.7588 -13.7588 -13.7548 -13.7548 -13.7340 -13.7340 -13.7293 -13.7293
   -13.7220 -13.7220 -13.7181 -13.7181 -13.7007 -13.7007 -13.6952 -13.6952
   -13.6770 -13.6770 -13.6738 -13.6738  -4.8055  -4.8055  -4.7988  -4.7988
     0.8252   0.8252   0.9267   0.9267   2.9151   2.9151   3.4231   3.4231
     3.8698   3.8698   4.3842   4.3842   5.6915   5.6915   6.2926   6.2926
    10.0197  10.0197  10.3246  10.3246  12.1600  12.1600  12.2106  12.2106
    13.5093  13.5093  13.9896  13.9896  14.0843  14.0843  14.8727  14.8727
    16.8987  16.8987  17.5508  17.5508  17.9810  17.9810  18.8654  18.8654
    19.5537  19.5537  19.7917  19.7917  20.1039  20.1039

     occupation numbers 
     1.0000   1.0000   1.0000   1.0000   1.0000   1.0000   1.0000   1.0000
     1.0000   1.0000   1.0000   1.0000   1.0000   1.0000   1.0000   1.0000
     1.0000   1.0000   1.0000   1.0000   1.0000   1.0000   1.0000   1.0000
     1.0000   1.0000   1.0000   1.0000   1.0000   1.0000   1.0000   1.0000
     1.0000   1.0000   1.0000   1.0000   1.0000   1.0000   1.0000   1.0000
     0.0000   0.0000   0.0000   0.0000   0.0000   0.0000   0.0000   0.0000
     0.0000   0.0000   0.0000   0.0000   0.0000   0.0000   0.0000   0.0000
     0.0000   0.0000   0.0000   0.0000   0.0000   0.0000   0.0000   0.0000
     0.0000   0.0000   0.0000   0.0000   0.0000   0.0000

          k =-0.5000-0.5460-0.1972 (  4088 PWs)   bands (ev):

   -13.7568 -13.7568 -13.7568 -13.7568 -13.7321 -13.7321 -13.7321 -13.7321
   -13.7198 -13.7198 -13.7198 -13.7198 -13.6978 -13.6978 -13.6978 -13.6978
   -13.6753 -13.6753 -13.6753 -13.6753  -4.8022  -4.8022  -4.8022  -4.8022
     0.8701   0.8701   0.8701   0.8701   3.2055   3.2055   3.2055   3.2055
     3.9965   3.9965   3.9965   3.9965   6.1441   6.1441   6.1441   6.1441
    10.0100  10.0100  10.0100  10.0100  12.1594  12.1594  12.1594  12.1594
    13.9720  13.9720  13.9720  13.9720  14.5629  14.5629  14.5629  14.5629
    17.1127  17.1127  17.1127  17.1127  18.1042  18.1042  18.1042  18.1042
    19.6051  19.6051  19.6051  19.6051  20.1315  20.1315

     occupation numbers 
     1.0000   1.0000   1.0000   1.0000   1.0000   1.0000   1.0000   1.0000
     1.0000   1.0000   1.0000   1.0000   1.0000   1.0000   1.0000   1.0000
     1.0000   1.0000   1.0000   1.0000   1.0000   1.0000   1.0000   1.0000
     1.0000   1.0000   1.0000   1.0000   1.0000   1.0000   1.0000   1.0000
     1.0000   1.0000   1.0000   1.0000   1.0000   1.0000   1.0000   1.0000
     0.0000   0.0000   0.0000   0.0000   0.0000   0.0000   0.0000   0.0000
     0.0000   0.0000   0.0000   0.0000   0.0000   0.0000   0.0000   0.0000
     0.0000   0.0000   0.0000   0.0000   0.0000   0.0000   0.0000   0.0000
     0.0000   0.0000   0.0000   0.0000   0.0000   0.0000

     the Fermi energy is     8.1450 ev
     (compare with:     7.8183 eV, computed in scf)

     Writing all to output data dir ./tmp/SnSe_pnma.save/ :
     XML data file, pseudopotentials, collected wavefunctions
 
     init_run     :      0.72s CPU      0.83s WALL (       1 calls)
     electrons    :    120.63s CPU    122.08s WALL (       1 calls)

     Called by init_run:
     wfcinit      :      0.00s CPU      0.00s WALL (       1 calls)
     wfcinit:atom :      0.02s CPU      0.03s WALL (      14 calls)
     wfcinit:wfcr :      1.99s CPU      2.02s WALL (      14 calls)
     potinit      :      0.16s CPU      0.20s WALL (       1 calls)
     hinit0       :      0.36s CPU      0.38s WALL (       1 calls)

     Called by electrons:
     c_bands      :    120.61s CPU    122.05s WALL (       1 calls)
     v_of_rho     :      0.14s CPU      0.17s WALL (       1 calls)
     v_h          :      0.01s CPU      0.01s WALL (       1 calls)
     v_xc         :      0.13s CPU      0.16s WALL (       1 calls)
     newd         :      0.14s CPU      0.17s WALL (       1 calls)

     Called by c_bands:
     init_us_2    :      0.07s CPU      0.07s WALL (      14 calls)
     cegterg      :    104.24s CPU    104.56s WALL (      58 calls)

     Called by sum_band:

     Called by *egterg:
     cdiaghg      :      5.33s CPU      5.34s WALL (    1023 calls)
     cegterg:over :      9.23s CPU      9.25s WALL (    1009 calls)
     cegterg:upda :      5.82s CPU      5.85s WALL (    1009 calls)
     cegterg:last :     15.85s CPU     15.87s WALL (     624 calls)
     h_psi        :     61.98s CPU     62.23s WALL (    1081 calls)
     s_psi        :      5.97s CPU      5.99s WALL (    1081 calls)
     g_psi        :      0.37s CPU      0.37s WALL (    1009 calls)

     Called by h_psi:
     h_psi:calbec :      5.56s CPU      5.57s WALL (    1081 calls)
     vloc_psi     :     49.97s CPU     50.19s WALL (    1081 calls)
     add_vuspsi   :      5.99s CPU      6.00s WALL (    1081 calls)

     General routines
     calbec       :      5.55s CPU      5.56s WALL (    1081 calls)
     fft          :      0.03s CPU      0.04s WALL (      13 calls)
     ffts         :      0.00s CPU      0.00s WALL (       1 calls)
     fftw         :     31.32s CPU     31.44s WALL (   81912 calls)
     interpolate  :      0.01s CPU      0.01s WALL (       1 calls)
     davcio       :      0.02s CPU      0.06s WALL (      28 calls)
 
     Parallel routines
 
     PWSCF        :   2m 1.68s CPU   2m 4.45s WALL

 
   This run was terminated on:  17:49:13  24May2026            

=------------------------------------------------------------------------------=
   JOB DONE.
=------------------------------------------------------------------------------=
