
     Program PWSCF v.6.7MaX starts on 18May2026 at 13:52:21 

     This program is part of the open-source Quantum ESPRESSO suite
     for quantum simulation of materials; please cite
         "P. Giannozzi et al., J. Phys.:Condens. Matter 21 395502 (2009);
         "P. Giannozzi et al., J. Phys.:Condens. Matter 29 465901 (2017);
          URL http://www.quantum-espresso.org", 
     in publications or presentations arising from this work. More details at
     http://www.quantum-espresso.org/quote

     Parallel version (MPI), running on     6 processors

     MPI processes distributed on     1 nodes
     R & G space division:  proc/nbgrp/npool/nimage =       6
     Waiting for input...
     Reading input from standard input

     Current dimensions of program PWSCF are:
     Max number of different atomic species (ntypx) = 10
     Max number of k-points (npk) =  40000
     Max angular momentum in pseudopotentials (lmaxx) =  3

     Subspace diagonalization in iterative solution of the eigenvalue problem:
     one sub-group per band group will be used
     scalapack distributed-memory algorithm (size of sub-group:  2*  2 procs)


     Parallelization info
     --------------------
     sticks:   dense  smooth     PW     G-vecs:    dense   smooth      PW
     Min        1127     451    124                44845    11342    1648
     Max        1128     453    126                44847    11343    1649
     Sum        6765    2711    749               269075    68055    9891



     bravais-lattice index     =            8
     lattice parameter (alat)  =      21.4862  a.u.
     unit-cell volume          =    1425.7436 (a.u.)^3
     number of atoms/cell      =            8
     number of atomic types    =            2
     number of electrons       =        80.00
     number of Kohn-Sham states=           50
     kinetic-energy cutoff     =      50.0000  Ry
     charge density cutoff     =     500.0000  Ry
     scf convergence threshold =      1.0E-08
     mixing beta               =       0.7000
     number of iterations used =            8  plain     mixing
     Exchange-correlation= SLA  PW   PBE  PBE
                           (   1   4   3   4   0   0   0)

     celldm(1)=  21.486186  celldm(2)=   0.368162  celldm(3)=   0.390413
     celldm(4)=   0.000000  celldm(5)=   0.000000  celldm(6)=   0.000000

     crystal axes: (cart. coord. in units of alat)
               a(1) = (   1.000000   0.000000   0.000000 )  
               a(2) = (   0.000000   0.368162   0.000000 )  
               a(3) = (   0.000000   0.000000   0.390413 )  

     reciprocal axes: (cart. coord. in units 2 pi/alat)
               b(1) = (  1.000000  0.000000  0.000000 )  
               b(2) = (  0.000000  2.716197  0.000000 )  
               b(3) = (  0.000000  0.000000  2.561388 )  


     PseudoPot. # 1 for Sn read from file:
     ../pseudo/Sn_pbe_v1.uspp.F.UPF
     MD5 check sum: 4cf58ce39ec5d5d420df3dd08604eb00
     Pseudo is Ultrasoft + core correction, Zval = 14.0
     Generated by new atomic code, or converted to UPF format
     Using radial grid of  891 points,  6 beta functions with: 
                l(1) =   0
                l(2) =   0
                l(3) =   1
                l(4) =   1
                l(5) =   2
                l(6) =   2
     Q(r) pseudized with  6 coefficients,  rinner =    1.200   1.200   1.200
                                                       1.200   1.200

     PseudoPot. # 2 for Se read from file:
     ../pseudo/Se_pbe_v1.uspp.F.UPF
     MD5 check sum: 1b3568f3a8ae88f9a2a0ad0698632c85
     Pseudo is Ultrasoft + core correction, Zval =  6.0
     Generated by new atomic code, or converted to UPF format
     Using radial grid of  877 points,  6 beta functions with: 
                l(1) =   0
                l(2) =   0
                l(3) =   1
                l(4) =   1
                l(5) =   2
                l(6) =   2
     Q(r) pseudized with  8 coefficients,  rinner =    1.300   1.300   1.300
                                                       1.300   1.300

     atomic species   valence    mass     pseudopotential
        Sn            14.00   118.71000     Sn( 1.00)
        Se             6.00    78.97100     Se( 1.00)

      8 Sym. Ops., with inversion, found ( 6 have fractional translation)


                                    s                        frac. trans.

      isym =  1     identity                                     

 cryst.   s( 1) = (     1          0          0      )
                  (     0          1          0      )
                  (     0          0          1      )

 cart.    s( 1) = (  1.0000000  0.0000000  0.0000000 )
                  (  0.0000000  1.0000000  0.0000000 )
                  (  0.0000000  0.0000000  1.0000000 )


      isym =  2     180 deg rotation - cart. axis [0,0,1]        

 cryst.   s( 2) = (    -1          0          0      )    f =(  0.5000000 )
                  (     0         -1          0      )       (  0.0000000 )
                  (     0          0          1      )       (  0.5000000 )

 cart.    s( 2) = ( -1.0000000  0.0000000  0.0000000 )    f =(  0.5000000 )
                  (  0.0000000 -1.0000000  0.0000000 )       (  0.0000000 )
                  (  0.0000000  0.0000000  1.0000000 )       (  0.1952067 )


      isym =  3     180 deg rotation - cart. axis [0,1,0]        

 cryst.   s( 3) = (    -1          0          0      )    f =(  0.0000000 )
                  (     0          1          0      )       ( -0.5000000 )
                  (     0          0         -1      )       (  0.0000000 )

 cart.    s( 3) = ( -1.0000000  0.0000000  0.0000000 )    f =(  0.0000000 )
                  (  0.0000000  1.0000000  0.0000000 )       ( -0.1840809 )
                  (  0.0000000  0.0000000 -1.0000000 )       (  0.0000000 )


      isym =  4     180 deg rotation - cart. axis [1,0,0]        

 cryst.   s( 4) = (     1          0          0      )    f =(  0.5000000 )
                  (     0         -1          0      )       (  0.5000000 )
                  (     0          0         -1      )       (  0.5000000 )

 cart.    s( 4) = (  1.0000000  0.0000000  0.0000000 )    f =(  0.5000000 )
                  (  0.0000000 -1.0000000  0.0000000 )       (  0.1840809 )
                  (  0.0000000  0.0000000 -1.0000000 )       (  0.1952067 )


      isym =  5     inversion                                    

 cryst.   s( 5) = (    -1          0          0      )
                  (     0         -1          0      )
                  (     0          0         -1      )

 cart.    s( 5) = ( -1.0000000  0.0000000  0.0000000 )
                  (  0.0000000 -1.0000000  0.0000000 )
                  (  0.0000000  0.0000000 -1.0000000 )


      isym =  6     inv. 180 deg rotation - cart. axis [0,0,1]   

 cryst.   s( 6) = (     1          0          0      )    f =(  0.5000000 )
                  (     0          1          0      )       (  0.0000000 )
                  (     0          0         -1      )       (  0.5000000 )

 cart.    s( 6) = (  1.0000000  0.0000000  0.0000000 )    f =(  0.5000000 )
                  (  0.0000000  1.0000000  0.0000000 )       (  0.0000000 )
                  (  0.0000000  0.0000000 -1.0000000 )       (  0.1952067 )


      isym =  7     inv. 180 deg rotation - cart. axis [0,1,0]   

 cryst.   s( 7) = (     1          0          0      )    f =(  0.0000000 )
                  (     0         -1          0      )       (  0.5000000 )
                  (     0          0          1      )       (  0.0000000 )

 cart.    s( 7) = (  1.0000000  0.0000000  0.0000000 )    f =(  0.0000000 )
                  (  0.0000000 -1.0000000  0.0000000 )       (  0.1840809 )
                  (  0.0000000  0.0000000  1.0000000 )       (  0.0000000 )


      isym =  8     inv. 180 deg rotation - cart. axis [1,0,0]   

 cryst.   s( 8) = (    -1          0          0      )    f =(  0.5000000 )
                  (     0          1          0      )       ( -0.5000000 )
                  (     0          0          1      )       (  0.5000000 )

 cart.    s( 8) = ( -1.0000000  0.0000000  0.0000000 )    f =(  0.5000000 )
                  (  0.0000000  1.0000000  0.0000000 )       ( -0.1840809 )
                  (  0.0000000  0.0000000  1.0000000 )       (  0.1952067 )


     point group D_2h (mmm) 
     there are  8 classes
     the character table:

       E     C2    C2'   C2''  i     s_v   s_v'  s_v''
A_g    1.00  1.00  1.00  1.00  1.00  1.00  1.00  1.00
B_1g   1.00  1.00 -1.00 -1.00  1.00  1.00 -1.00 -1.00
B_2g   1.00 -1.00  1.00 -1.00  1.00 -1.00  1.00 -1.00
B_3g   1.00 -1.00 -1.00  1.00  1.00 -1.00 -1.00  1.00
A_u    1.00  1.00  1.00  1.00 -1.00 -1.00 -1.00 -1.00
B_1u   1.00  1.00 -1.00 -1.00 -1.00 -1.00  1.00  1.00
B_2u   1.00 -1.00  1.00 -1.00 -1.00  1.00 -1.00  1.00
B_3u   1.00 -1.00 -1.00  1.00 -1.00  1.00  1.00 -1.00

     the symmetry operations in each class and the name of the first element:

     E        1
          identity                                               
     C2       2
          180 deg rotation - cart. axis [0,0,1]                  
     C2'      4
          180 deg rotation - cart. axis [1,0,0]                  
     C2''     3
          180 deg rotation - cart. axis [0,1,0]                  
     i        5
          inversion                                              
     s_v      6
          inv. 180 deg rotation - cart. axis [0,0,1]             
     s_v'     8
          inv. 180 deg rotation - cart. axis [1,0,0]             
     s_v''    7
          inv. 180 deg rotation - cart. axis [0,1,0]             

   Cartesian axes

     site n.     atom                  positions (alat units)
         1           Se  tau(   1) = (   0.8555000   0.0920405   0.1884916  )
         2           Sn  tau(   2) = (   0.1187000   0.0920405   0.0385728  )
         3           Se  tau(   3) = (   0.6445000   0.2761214   0.3836983  )
         4           Sn  tau(   4) = (   0.3813000   0.2761214   0.2337795  )
         5           Se  tau(   5) = (   0.3555000   0.0920405   0.0067151  )
         6           Sn  tau(   6) = (   0.6187000   0.0920405   0.1566338  )
         7           Se  tau(   7) = (   0.1445000   0.2761214   0.2019218  )
         8           Sn  tau(   8) = (   0.8813000   0.2761214   0.3518405  )

   Crystallographic axes

     site n.     atom                  positions (cryst. coord.)
         1           Se  tau(   1) = (  0.8555000  0.2500000  0.4828000  )
         2           Sn  tau(   2) = (  0.1187000  0.2500000  0.0988000  )
         3           Se  tau(   3) = (  0.6445000  0.7500000  0.9828000  )
         4           Sn  tau(   4) = (  0.3813000  0.7500000  0.5988000  )
         5           Se  tau(   5) = (  0.3555000  0.2500000  0.0172000  )
         6           Sn  tau(   6) = (  0.6187000  0.2500000  0.4012000  )
         7           Se  tau(   7) = (  0.1445000  0.7500000  0.5172000  )
         8           Sn  tau(   8) = (  0.8813000  0.7500000  0.9012000  )

     number of k points=     4
                       cart. coord. in units 2pi/alat
        k(    1) = (   0.0000000   0.0000000   0.0000000), wk =   0.2222222
        k(    2) = (   0.0000000   0.0000000   0.8537959), wk =   0.4444444
        k(    3) = (   0.0000000   0.9053989   0.0000000), wk =   0.4444444
        k(    4) = (   0.0000000   0.9053989   0.8537959), wk =   0.8888889

                       cryst. coord.
        k(    1) = (   0.0000000   0.0000000   0.0000000), wk =   0.2222222
        k(    2) = (   0.0000000   0.0000000   0.3333333), wk =   0.4444444
        k(    3) = (   0.0000000   0.3333333   0.0000000), wk =   0.4444444
        k(    4) = (   0.0000000   0.3333333   0.3333333), wk =   0.8888889

     Dense  grid:   269075 G-vectors     FFT dimensions: ( 160,  60,  60)

     Smooth grid:    68055 G-vectors     FFT dimensions: ( 100,  36,  40)

     Dynamical RAM for                 wfc:       1.08 MB

     Dynamical RAM for     wfc (w. buffer):       5.41 MB

     Dynamical RAM for           str. fact:       1.37 MB

     Dynamical RAM for           local pot:       0.00 MB

     Dynamical RAM for          nlocal pot:       3.12 MB

     Dynamical RAM for                qrad:       3.59 MB

     Dynamical RAM for          rho,v,vnew:       4.25 MB

     Dynamical RAM for               rhoin:       1.42 MB

     Dynamical RAM for            rho*nmix:      10.95 MB

     Dynamical RAM for           G-vectors:       2.65 MB

     Dynamical RAM for          h,s,v(r/c):       0.11 MB

     Dynamical RAM for          <psi|beta>:       0.11 MB

     Dynamical RAM for                 psi:       2.16 MB

     Dynamical RAM for                hpsi:       2.16 MB

     Dynamical RAM for                spsi:       2.16 MB

     Dynamical RAM for      wfcinit/wfcrot:       2.31 MB

     Dynamical RAM for           addusdens:     130.02 MB

     Dynamical RAM for          addusforce:     134.48 MB

     Estimated static dynamical RAM per process >      38.47 MB

     Estimated max dynamical RAM per process >     172.95 MB

     Estimated total dynamical RAM >       1.01 GB

     Initial potential from superposition of free atoms

     starting charge   75.99954, renormalised to   80.00000
     Starting wfcs are   52 randomized atomic wfcs

     total cpu time spent up to now is        8.9 secs

     Self-consistent Calculation

     iteration #  1     ecut=    50.00 Ry     beta= 0.70
     Davidson diagonalization with overlap
     ethr =  1.00E-02,  avg # of iterations =  4.2

     total cpu time spent up to now is       23.2 secs

     total energy              =    -826.49993146 Ry
     estimated scf accuracy    <       2.65897739 Ry

     iteration #  2     ecut=    50.00 Ry     beta= 0.70
     Davidson diagonalization with overlap
     ethr =  3.32E-03,  avg # of iterations =  2.0

     total cpu time spent up to now is       36.3 secs

     total energy              =    -827.29891898 Ry
     estimated scf accuracy    <       1.08586070 Ry

     iteration #  3     ecut=    50.00 Ry     beta= 0.70
     Davidson diagonalization with overlap
     ethr =  1.36E-03,  avg # of iterations =  2.0

     total cpu time spent up to now is       48.4 secs

     total energy              =    -827.56946921 Ry
     estimated scf accuracy    <       0.05790767 Ry

     iteration #  4     ecut=    50.00 Ry     beta= 0.70
     Davidson diagonalization with overlap
     ethr =  7.24E-05,  avg # of iterations =  4.5

     total cpu time spent up to now is       62.1 secs

     total energy              =    -827.57983573 Ry
     estimated scf accuracy    <       0.00312327 Ry

     iteration #  5     ecut=    50.00 Ry     beta= 0.70
     Davidson diagonalization with overlap
     ethr =  3.90E-06,  avg # of iterations =  4.0

     total cpu time spent up to now is       76.4 secs

     total energy              =    -827.58053328 Ry
     estimated scf accuracy    <       0.00081550 Ry

     iteration #  6     ecut=    50.00 Ry     beta= 0.70
     Davidson diagonalization with overlap
     ethr =  1.02E-06,  avg # of iterations =  2.5

     total cpu time spent up to now is       88.1 secs

     total energy              =    -827.58070556 Ry
     estimated scf accuracy    <       0.00004970 Ry

     iteration #  7     ecut=    50.00 Ry     beta= 0.70
     Davidson diagonalization with overlap
     ethr =  6.21E-08,  avg # of iterations =  5.0

     total cpu time spent up to now is      108.2 secs

     total energy              =    -827.58073381 Ry
     estimated scf accuracy    <       0.00000256 Ry

     iteration #  8     ecut=    50.00 Ry     beta= 0.70
     Davidson diagonalization with overlap
     ethr =  3.20E-09,  avg # of iterations =  3.0

     total cpu time spent up to now is      120.0 secs

     total energy              =    -827.58073480 Ry
     estimated scf accuracy    <       0.00000038 Ry

     iteration #  9     ecut=    50.00 Ry     beta= 0.70
     Davidson diagonalization with overlap
     ethr =  4.76E-10,  avg # of iterations =  2.0

     total cpu time spent up to now is      129.1 secs

     End of self-consistent calculation

          k = 0.0000 0.0000 0.0000 (  8475 PWs)   bands (ev):

   -13.2934 -13.2803 -13.2762 -13.2743 -13.2730 -13.2691 -13.2659 -13.2643
   -13.2639 -13.2598 -13.2594 -13.2530 -13.2478 -13.2424 -13.2279 -13.2209
   -13.2182 -13.2127 -13.2027 -13.1936  -5.7162  -5.3661  -4.6183  -4.1171
     0.7998   1.9409   2.5307   3.0862   3.2558   4.6831   4.7086   4.7900
     5.2022   5.2637   5.8373   6.3318   6.5643   6.9946   7.4334   7.5994
     8.8396  10.9656  11.1150  11.1409  11.3649  11.4453  12.3440  12.6239
    12.6988  12.7353

     occupation numbers 
     1.0000   1.0000   1.0000   1.0000   1.0000   1.0000   1.0000   1.0000
     1.0000   1.0000   1.0000   1.0000   1.0000   1.0000   1.0000   1.0000
     1.0000   1.0000   1.0000   1.0000   1.0000   1.0000   1.0000   1.0000
     1.0000   1.0000   1.0000   1.0000   1.0000   1.0000   1.0000   1.0000
     1.0000   1.0000   1.0000   1.0000   1.0000   1.0000   1.0000   1.0000
     0.0000   0.0000   0.0000   0.0000   0.0000   0.0000   0.0000   0.0000
     0.0000   0.0000

          k = 0.0000 0.0000 0.8538 (  8495 PWs)   bands (ev):

   -13.2874 -13.2786 -13.2768 -13.2759 -13.2751 -13.2724 -13.2675 -13.2654
   -13.2588 -13.2561 -13.2545 -13.2504 -13.2460 -13.2445 -13.2272 -13.2219
   -13.2186 -13.2149 -13.2003 -13.1958  -5.2783  -4.9629  -4.6475  -4.2906
    -0.0336   0.8065   1.3571   1.9845   3.6637   5.0482   5.3622   5.8074
     6.1220   6.1556   6.4015   6.6391   6.8551   7.4684   7.6116   8.1165
     8.9934   9.5512   9.5834   9.7273  10.4838  10.5715  11.1017  11.2130
    11.9961  12.1162

     occupation numbers 
     1.0000   1.0000   1.0000   1.0000   1.0000   1.0000   1.0000   1.0000
     1.0000   1.0000   1.0000   1.0000   1.0000   1.0000   1.0000   1.0000
     1.0000   1.0000   1.0000   1.0000   1.0000   1.0000   1.0000   1.0000
     1.0000   1.0000   1.0000   1.0000   1.0000   1.0000   1.0000   1.0000
     1.0000   1.0000   1.0000   1.0000   1.0000   1.0000   1.0000   1.0000
     0.0000   0.0000   0.0000   0.0000   0.0000   0.0000   0.0000   0.0000
     0.0000   0.0000

          k = 0.0000 0.9054 0.0000 (  8550 PWs)   bands (ev):

   -13.2822 -13.2787 -13.2785 -13.2765 -13.2703 -13.2696 -13.2680 -13.2654
   -13.2627 -13.2620 -13.2567 -13.2474 -13.2453 -13.2375 -13.2263 -13.2240
   -13.2173 -13.2108 -13.2037 -13.2017  -5.1623  -4.9166  -4.4689  -4.2606
     0.2604   1.0170   1.1574   1.6810   3.7220   4.9864   5.3321   5.4543
     5.5283   5.7927   6.3832   6.5372   6.8599   7.1993   7.3571   7.9114
     8.6707   9.5486   9.8424   9.8733  10.0963  10.6322  10.6637  11.5201
    11.8923  12.2807

     occupation numbers 
     1.0000   1.0000   1.0000   1.0000   1.0000   1.0000   1.0000   1.0000
     1.0000   1.0000   1.0000   1.0000   1.0000   1.0000   1.0000   1.0000
     1.0000   1.0000   1.0000   1.0000   1.0000   1.0000   1.0000   1.0000
     1.0000   1.0000   1.0000   1.0000   1.0000   1.0000   1.0000   1.0000
     1.0000   1.0000   1.0000   1.0000   1.0000   1.0000   1.0000   1.0000
     0.0000   0.0000   0.0000   0.0000   0.0000   0.0000   0.0000   0.0000
     0.0000   0.0000

          k = 0.0000 0.9054 0.8538 (  8499 PWs)   bands (ev):

   -13.2907 -13.2882 -13.2825 -13.2816 -13.2699 -13.2664 -13.2647 -13.2630
   -13.2611 -13.2606 -13.2515 -13.2472 -13.2406 -13.2369 -13.2241 -13.2229
   -13.2166 -13.2132 -13.2026 -13.2015  -4.8185  -4.6165  -4.4339  -4.2636
     0.5018   1.1423   1.4846   1.5880   3.2619   3.6390   4.0970   4.3318
     4.8265   5.2124   5.5403   5.9058   6.2419   6.4974   6.9995   7.2812
     9.0695  10.7113  11.0536  11.2372  11.7026  11.7132  12.5197  12.6872
    13.0292  13.1394

     occupation numbers 
     1.0000   1.0000   1.0000   1.0000   1.0000   1.0000   1.0000   1.0000
     1.0000   1.0000   1.0000   1.0000   1.0000   1.0000   1.0000   1.0000
     1.0000   1.0000   1.0000   1.0000   1.0000   1.0000   1.0000   1.0000
     1.0000   1.0000   1.0000   1.0000   1.0000   1.0000   1.0000   1.0000
     1.0000   1.0000   1.0000   1.0000   1.0000   1.0000   1.0000   1.0000
     0.0000   0.0000   0.0000   0.0000   0.0000   0.0000   0.0000   0.0000
     0.0000   0.0000

     highest occupied, lowest unoccupied level (ev):     8.1165    8.6707

!    total energy              =    -827.58073489 Ry
     estimated scf accuracy    <          2.1E-09 Ry

     The total energy is the sum of the following terms:
     one-electron contribution =    -256.92101102 Ry
     hartree contribution      =     179.08535042 Ry
     xc contribution           =    -309.14025810 Ry
     ewald contribution        =    -440.60481620 Ry

     convergence has been achieved in   9 iterations

     Forces acting on atoms (cartesian axes, Ry/au):

     atom    1 type  2   force =     0.01020628   -0.00000000    0.00876284
     atom    2 type  1   force =    -0.00090988    0.00000000    0.00265881
     atom    3 type  2   force =    -0.01020628    0.00000000    0.00876284
     atom    4 type  1   force =     0.00090988    0.00000000    0.00265881
     atom    5 type  2   force =     0.01020628   -0.00000000   -0.00876284
     atom    6 type  1   force =    -0.00090988    0.00000000   -0.00265881
     atom    7 type  2   force =    -0.01020628    0.00000000   -0.00876284
     atom    8 type  1   force =     0.00090988   -0.00000000   -0.00265881
     The non-local contrib.  to forces
     atom    1 type  2   force =    -0.15641859    0.00000000    0.06563528
     atom    2 type  1   force =     0.41726337    0.00000000    0.22056426
     atom    3 type  2   force =     0.15641859    0.00000000    0.06563528
     atom    4 type  1   force =    -0.41726337    0.00000000    0.22056426
     atom    5 type  2   force =    -0.15641859    0.00000000   -0.06563528
     atom    6 type  1   force =     0.41726337    0.00000000   -0.22056426
     atom    7 type  2   force =     0.15641859    0.00000000   -0.06563528
     atom    8 type  1   force =    -0.41726337    0.00000000   -0.22056426
     The ionic contribution  to forces
     atom    1 type  2   force =     1.53473235    0.00000000   -1.05154455
     atom    2 type  1   force =    -1.03769718    0.00000000   -0.57506129
     atom    3 type  2   force =    -1.53473235   -0.00000000   -1.05154455
     atom    4 type  1   force =     1.03769718    0.00000000   -0.57506129
     atom    5 type  2   force =     1.53473235    0.00000000    1.05154455
     atom    6 type  1   force =    -1.03769718   -0.00000000    0.57506129
     atom    7 type  2   force =    -1.53473235   -0.00000000    1.05154455
     atom    8 type  1   force =     1.03769718    0.00000000    0.57506129
     The local contribution  to forces
     atom    1 type  2   force =    -1.38578079   -0.00000000    1.00148181
     atom    2 type  1   force =     0.62683449    0.00000000    0.36028994
     atom    3 type  2   force =     1.38578079    0.00000000    1.00148181
     atom    4 type  1   force =    -0.62683449    0.00000000    0.36028994
     atom    5 type  2   force =    -1.38578079   -0.00000000   -1.00148181
     atom    6 type  1   force =     0.62683449    0.00000000   -0.36028994
     atom    7 type  2   force =     1.38578079    0.00000000   -1.00148181
     atom    8 type  1   force =    -0.62683449    0.00000000   -0.36028994
     The core correction contribution to forces
     atom    1 type  2   force =     0.01763434   -0.00000000   -0.00681055
     atom    2 type  1   force =    -0.00718833    0.00000000   -0.00315302
     atom    3 type  2   force =    -0.01763434    0.00000000   -0.00681055
     atom    4 type  1   force =     0.00718833   -0.00000000   -0.00315302
     atom    5 type  2   force =     0.01763434   -0.00000000    0.00681055
     atom    6 type  1   force =    -0.00718833    0.00000000    0.00315302
     atom    7 type  2   force =    -0.01763434   -0.00000000    0.00681055
     atom    8 type  1   force =     0.00718833   -0.00000000    0.00315302
     The Hubbard contrib.    to forces
     atom    1 type  2   force =     0.00000000    0.00000000    0.00000000
     atom    2 type  1   force =     0.00000000    0.00000000    0.00000000
     atom    3 type  2   force =     0.00000000    0.00000000    0.00000000
     atom    4 type  1   force =     0.00000000    0.00000000    0.00000000
     atom    5 type  2   force =     0.00000000    0.00000000    0.00000000
     atom    6 type  1   force =     0.00000000    0.00000000    0.00000000
     atom    7 type  2   force =     0.00000000    0.00000000    0.00000000
     atom    8 type  1   force =     0.00000000    0.00000000    0.00000000
     The SCF correction term to forces
     atom    1 type  2   force =     0.00003896    0.00000000    0.00000084
     atom    2 type  1   force =    -0.00012222   -0.00000000    0.00001893
     atom    3 type  2   force =    -0.00003896   -0.00000000    0.00000084
     atom    4 type  1   force =     0.00012222    0.00000000    0.00001893
     atom    5 type  2   force =     0.00003896    0.00000000   -0.00000084
     atom    6 type  1   force =    -0.00012222   -0.00000000   -0.00001893
     atom    7 type  2   force =    -0.00003896   -0.00000000   -0.00000084
     atom    8 type  1   force =     0.00012222    0.00000000   -0.00001893

     Total force =     0.027485     Total SCF correction =     0.000259

     Writing output data file ./tmp/SnSe_pnma.save/

     init_run     :      5.96s CPU      8.45s WALL (       1 calls)
     electrons    :     88.56s CPU    120.28s WALL (       1 calls)
     forces       :      6.68s CPU     11.00s WALL (       1 calls)

     Called by init_run:
     wfcinit      :      1.90s CPU      2.84s WALL (       1 calls)
     wfcinit:atom :      0.01s CPU      0.01s WALL (       4 calls)
     wfcinit:wfcr :      1.86s CPU      2.76s WALL (       4 calls)
     potinit      :      1.04s CPU      1.08s WALL (       1 calls)
     hinit0       :      1.83s CPU      1.88s WALL (       1 calls)

     Called by electrons:
     c_bands      :     60.90s CPU     77.32s WALL (       9 calls)
     sum_band     :     11.69s CPU     15.75s WALL (       9 calls)
     v_of_rho     :      1.76s CPU      2.01s WALL (      10 calls)
     v_h          :      0.15s CPU      0.16s WALL (      10 calls)
     v_xc         :      1.75s CPU      2.02s WALL (      11 calls)
     newd         :     14.79s CPU     27.10s WALL (      10 calls)
     mix_rho      :      0.29s CPU      0.34s WALL (       9 calls)

     Called by c_bands:
     init_us_2    :      0.23s CPU      0.26s WALL (      80 calls)
     cegterg      :     59.60s CPU     75.86s WALL (      36 calls)

     Called by sum_band:
     sum_band:wei :      0.00s CPU      0.00s WALL (       9 calls)
     sum_band:loo :      3.83s CPU      4.43s WALL (       9 calls)
     sum_band:buf :      0.03s CPU      0.03s WALL (      36 calls)
     sum_band:ini :      0.11s CPU      0.11s WALL (      36 calls)
     sum_band:cal :      0.88s CPU      1.25s WALL (      36 calls)
     sum_band:bec :      0.00s CPU      0.01s WALL (      36 calls)
     addusdens    :      7.16s CPU     10.54s WALL (       9 calls)
     addusd:skk   :      0.02s CPU      0.11s WALL (      18 calls)
     addusd:dgemm :      1.63s CPU      3.12s WALL (      18 calls)
     addusd:qvan2 :      5.16s CPU      6.08s WALL (      18 calls)

     Called by *egterg:
     cdiaghg      :     17.69s CPU     21.78s WALL (     153 calls)
     cegterg:over :     11.50s CPU     16.17s WALL (     117 calls)
     cegterg:upda :      3.05s CPU      4.36s WALL (     117 calls)
     cegterg:last :      2.75s CPU      3.62s WALL (      75 calls)
     cdiaghg:chol :      1.77s CPU      1.94s WALL (     153 calls)
     cdiaghg:inve :      0.18s CPU      0.21s WALL (     153 calls)
     cdiaghg:para :      4.71s CPU      8.01s WALL (     306 calls)
     h_psi        :     18.06s CPU     21.22s WALL (     157 calls)
     s_psi        :      1.14s CPU      1.30s WALL (     157 calls)
     g_psi        :      0.06s CPU      0.06s WALL (     117 calls)

     Called by h_psi:
     h_psi:calbec :      3.81s CPU      4.82s WALL (     157 calls)
     vloc_psi     :     12.92s CPU     14.73s WALL (     157 calls)
     add_vuspsi   :      1.27s CPU      1.59s WALL (     157 calls)

     General routines
     calbec       :      5.05s CPU      6.59s WALL (     209 calls)
     fft          :      1.83s CPU      2.08s WALL (     139 calls)
     ffts         :      0.04s CPU      0.05s WALL (      19 calls)
     fftw         :     14.57s CPU     16.44s WALL (   11534 calls)
     interpolate  :      0.17s CPU      0.18s WALL (      10 calls)

     Parallel routines
     fft_scatt_xy :      1.29s CPU      1.48s WALL (   11692 calls)
     fft_scatt_yz :     10.52s CPU     11.74s WALL (   11692 calls)

     PWSCF        :   1m41.61s CPU   2m20.37s WALL


   This run was terminated on:  13:54:41  18May2026            

=------------------------------------------------------------------------------=
   JOB DONE.
=------------------------------------------------------------------------------=
Note: The following floating-point exceptions are signalling: IEEE_UNDERFLOW_FLAG IEEE_DENORMAL
Note: The following floating-point exceptions are signalling: IEEE_UNDERFLOW_FLAG IEEE_DENORMAL
Note: The following floating-point exceptions are signalling: IEEE_UNDERFLOW_FLAG IEEE_DENORMAL
Note: The following floating-point exceptions are signalling: IEEE_UNDERFLOW_FLAG IEEE_DENORMAL
