
     Program PWSCF v.6.7MaX starts on 18May2026 at 13:54:42 

     This program is part of the open-source Quantum ESPRESSO suite
     for quantum simulation of materials; please cite
         "P. Giannozzi et al., J. Phys.:Condens. Matter 21 395502 (2009);
         "P. Giannozzi et al., J. Phys.:Condens. Matter 29 465901 (2017);
          URL http://www.quantum-espresso.org", 
     in publications or presentations arising from this work. More details at
     http://www.quantum-espresso.org/quote

     Parallel version (MPI), running on     6 processors

     MPI processes distributed on     1 nodes
     K-points division:     npool     =       2
     R & G space division:  proc/nbgrp/npool/nimage =       3
     Waiting for input...
     Reading input from standard input

     Current dimensions of program PWSCF are:
     Max number of different atomic species (ntypx) = 10
     Max number of k-points (npk) =  40000
     Max angular momentum in pseudopotentials (lmaxx) =  3

     Subspace diagonalization in iterative solution of the eigenvalue problem:
     a serial algorithm will be used


     Parallelization info
     --------------------
     sticks:   dense  smooth     PW     G-vecs:    dense   smooth      PW
     Min        2254     903    262                89691    22685    3562
     Max        2256     905    263                89692    22685    3563
     Sum        6765    2711    787               269075    68055   10687



     bravais-lattice index     =            8
     lattice parameter (alat)  =      21.4862  a.u.
     unit-cell volume          =    1425.7436 (a.u.)^3
     number of atoms/cell      =            8
     number of atomic types    =            2
     number of electrons       =        80.00
     number of Kohn-Sham states=           50
     kinetic-energy cutoff     =      50.0000  Ry
     charge density cutoff     =     500.0000  Ry
     scf convergence threshold =      1.0E-08
     mixing beta               =       0.7000
     number of iterations used =            8  plain     mixing
     Exchange-correlation= SLA  PW   PBE  PBE
                           (   1   4   3   4   0   0   0)

     celldm(1)=  21.486186  celldm(2)=   0.368162  celldm(3)=   0.390413
     celldm(4)=   0.000000  celldm(5)=   0.000000  celldm(6)=   0.000000

     crystal axes: (cart. coord. in units of alat)
               a(1) = (   1.000000   0.000000   0.000000 )  
               a(2) = (   0.000000   0.368162   0.000000 )  
               a(3) = (   0.000000   0.000000   0.390413 )  

     reciprocal axes: (cart. coord. in units 2 pi/alat)
               b(1) = (  1.000000  0.000000  0.000000 )  
               b(2) = (  0.000000  2.716197  0.000000 )  
               b(3) = (  0.000000  0.000000  2.561388 )  


     PseudoPot. # 1 for Sn read from file:
     ../pseudo/Sn_pbe_v1.uspp.F.UPF
     MD5 check sum: 4cf58ce39ec5d5d420df3dd08604eb00
     Pseudo is Ultrasoft + core correction, Zval = 14.0
     Generated by new atomic code, or converted to UPF format
     Using radial grid of  891 points,  6 beta functions with: 
                l(1) =   0
                l(2) =   0
                l(3) =   1
                l(4) =   1
                l(5) =   2
                l(6) =   2
     Q(r) pseudized with  6 coefficients,  rinner =    1.200   1.200   1.200
                                                       1.200   1.200

     PseudoPot. # 2 for Se read from file:
     ../pseudo/Se_pbe_v1.uspp.F.UPF
     MD5 check sum: 1b3568f3a8ae88f9a2a0ad0698632c85
     Pseudo is Ultrasoft + core correction, Zval =  6.0
     Generated by new atomic code, or converted to UPF format
     Using radial grid of  877 points,  6 beta functions with: 
                l(1) =   0
                l(2) =   0
                l(3) =   1
                l(4) =   1
                l(5) =   2
                l(6) =   2
     Q(r) pseudized with  8 coefficients,  rinner =    1.300   1.300   1.300
                                                       1.300   1.300

     atomic species   valence    mass     pseudopotential
        Sn            14.00   118.71000     Sn( 1.00)
        Se             6.00    78.97100     Se( 1.00)

      8 Sym. Ops., with inversion, found ( 6 have fractional translation)


                                    s                        frac. trans.

      isym =  1     identity                                     

 cryst.   s( 1) = (     1          0          0      )
                  (     0          1          0      )
                  (     0          0          1      )

 cart.    s( 1) = (  1.0000000  0.0000000  0.0000000 )
                  (  0.0000000  1.0000000  0.0000000 )
                  (  0.0000000  0.0000000  1.0000000 )


      isym =  2     180 deg rotation - cart. axis [0,0,1]        

 cryst.   s( 2) = (    -1          0          0      )    f =(  0.5000000 )
                  (     0         -1          0      )       (  0.0000000 )
                  (     0          0          1      )       (  0.5000000 )

 cart.    s( 2) = ( -1.0000000  0.0000000  0.0000000 )    f =(  0.5000000 )
                  (  0.0000000 -1.0000000  0.0000000 )       (  0.0000000 )
                  (  0.0000000  0.0000000  1.0000000 )       (  0.1952067 )


      isym =  3     180 deg rotation - cart. axis [0,1,0]        

 cryst.   s( 3) = (    -1          0          0      )    f =(  0.0000000 )
                  (     0          1          0      )       ( -0.5000000 )
                  (     0          0         -1      )       (  0.0000000 )

 cart.    s( 3) = ( -1.0000000  0.0000000  0.0000000 )    f =(  0.0000000 )
                  (  0.0000000  1.0000000  0.0000000 )       ( -0.1840809 )
                  (  0.0000000  0.0000000 -1.0000000 )       (  0.0000000 )


      isym =  4     180 deg rotation - cart. axis [1,0,0]        

 cryst.   s( 4) = (     1          0          0      )    f =(  0.5000000 )
                  (     0         -1          0      )       (  0.5000000 )
                  (     0          0         -1      )       (  0.5000000 )

 cart.    s( 4) = (  1.0000000  0.0000000  0.0000000 )    f =(  0.5000000 )
                  (  0.0000000 -1.0000000  0.0000000 )       (  0.1840809 )
                  (  0.0000000  0.0000000 -1.0000000 )       (  0.1952067 )


      isym =  5     inversion                                    

 cryst.   s( 5) = (    -1          0          0      )
                  (     0         -1          0      )
                  (     0          0         -1      )

 cart.    s( 5) = ( -1.0000000  0.0000000  0.0000000 )
                  (  0.0000000 -1.0000000  0.0000000 )
                  (  0.0000000  0.0000000 -1.0000000 )


      isym =  6     inv. 180 deg rotation - cart. axis [0,0,1]   

 cryst.   s( 6) = (     1          0          0      )    f =(  0.5000000 )
                  (     0          1          0      )       (  0.0000000 )
                  (     0          0         -1      )       (  0.5000000 )

 cart.    s( 6) = (  1.0000000  0.0000000  0.0000000 )    f =(  0.5000000 )
                  (  0.0000000  1.0000000  0.0000000 )       (  0.0000000 )
                  (  0.0000000  0.0000000 -1.0000000 )       (  0.1952067 )


      isym =  7     inv. 180 deg rotation - cart. axis [0,1,0]   

 cryst.   s( 7) = (     1          0          0      )    f =(  0.0000000 )
                  (     0         -1          0      )       (  0.5000000 )
                  (     0          0          1      )       (  0.0000000 )

 cart.    s( 7) = (  1.0000000  0.0000000  0.0000000 )    f =(  0.0000000 )
                  (  0.0000000 -1.0000000  0.0000000 )       (  0.1840809 )
                  (  0.0000000  0.0000000  1.0000000 )       (  0.0000000 )


      isym =  8     inv. 180 deg rotation - cart. axis [1,0,0]   

 cryst.   s( 8) = (    -1          0          0      )    f =(  0.5000000 )
                  (     0          1          0      )       ( -0.5000000 )
                  (     0          0          1      )       (  0.5000000 )

 cart.    s( 8) = ( -1.0000000  0.0000000  0.0000000 )    f =(  0.5000000 )
                  (  0.0000000  1.0000000  0.0000000 )       ( -0.1840809 )
                  (  0.0000000  0.0000000  1.0000000 )       (  0.1952067 )


     point group D_2h (mmm) 
     there are  8 classes
     the character table:

       E     C2    C2'   C2''  i     s_v   s_v'  s_v''
A_g    1.00  1.00  1.00  1.00  1.00  1.00  1.00  1.00
B_1g   1.00  1.00 -1.00 -1.00  1.00  1.00 -1.00 -1.00
B_2g   1.00 -1.00  1.00 -1.00  1.00 -1.00  1.00 -1.00
B_3g   1.00 -1.00 -1.00  1.00  1.00 -1.00 -1.00  1.00
A_u    1.00  1.00  1.00  1.00 -1.00 -1.00 -1.00 -1.00
B_1u   1.00  1.00 -1.00 -1.00 -1.00 -1.00  1.00  1.00
B_2u   1.00 -1.00  1.00 -1.00 -1.00  1.00 -1.00  1.00
B_3u   1.00 -1.00 -1.00  1.00 -1.00  1.00  1.00 -1.00

     the symmetry operations in each class and the name of the first element:

     E        1
          identity                                               
     C2       2
          180 deg rotation - cart. axis [0,0,1]                  
     C2'      4
          180 deg rotation - cart. axis [1,0,0]                  
     C2''     3
          180 deg rotation - cart. axis [0,1,0]                  
     i        5
          inversion                                              
     s_v      6
          inv. 180 deg rotation - cart. axis [0,0,1]             
     s_v'     8
          inv. 180 deg rotation - cart. axis [1,0,0]             
     s_v''    7
          inv. 180 deg rotation - cart. axis [0,1,0]             

   Cartesian axes

     site n.     atom                  positions (alat units)
         1           Se  tau(   1) = (   0.8555000   0.0920405   0.1884916  )
         2           Sn  tau(   2) = (   0.1187000   0.0920405   0.0385728  )
         3           Se  tau(   3) = (   0.6445000   0.2761214   0.3836983  )
         4           Sn  tau(   4) = (   0.3813000   0.2761214   0.2337795  )
         5           Se  tau(   5) = (   0.3555000   0.0920405   0.0067151  )
         6           Sn  tau(   6) = (   0.6187000   0.0920405   0.1566338  )
         7           Se  tau(   7) = (   0.1445000   0.2761214   0.2019218  )
         8           Sn  tau(   8) = (   0.8813000   0.2761214   0.3518405  )

   Crystallographic axes

     site n.     atom                  positions (cryst. coord.)
         1           Se  tau(   1) = (  0.8555000  0.2500000  0.4828000  )
         2           Sn  tau(   2) = (  0.1187000  0.2500000  0.0988000  )
         3           Se  tau(   3) = (  0.6445000  0.7500000  0.9828000  )
         4           Sn  tau(   4) = (  0.3813000  0.7500000  0.5988000  )
         5           Se  tau(   5) = (  0.3555000  0.2500000  0.0172000  )
         6           Sn  tau(   6) = (  0.6187000  0.2500000  0.4012000  )
         7           Se  tau(   7) = (  0.1445000  0.7500000  0.5172000  )
         8           Sn  tau(   8) = (  0.8813000  0.7500000  0.9012000  )

     number of k points=    18
                       cart. coord. in units 2pi/alat
        k(    1) = (   0.0000000   0.0000000   0.0000000), wk =   0.0625000
        k(    2) = (   0.0000000   0.0000000   0.6403469), wk =   0.1250000
        k(    3) = (   0.0000000   0.0000000  -1.2806938), wk =   0.0625000
        k(    4) = (   0.0000000   0.6790492   0.0000000), wk =   0.1250000
        k(    5) = (   0.0000000   0.6790492   0.6403469), wk =   0.2500000
        k(    6) = (   0.0000000   0.6790492  -1.2806938), wk =   0.1250000
        k(    7) = (   0.0000000  -1.3580984   0.0000000), wk =   0.0625000
        k(    8) = (   0.0000000  -1.3580984   0.6403469), wk =   0.1250000
        k(    9) = (   0.0000000  -1.3580984  -1.2806938), wk =   0.0625000
        k(   10) = (  -0.5000000   0.0000000   0.0000000), wk =   0.0625000
        k(   11) = (  -0.5000000   0.0000000   0.6403469), wk =   0.1250000
        k(   12) = (  -0.5000000   0.0000000  -1.2806938), wk =   0.0625000
        k(   13) = (  -0.5000000   0.6790492   0.0000000), wk =   0.1250000
        k(   14) = (  -0.5000000   0.6790492   0.6403469), wk =   0.2500000
        k(   15) = (  -0.5000000   0.6790492  -1.2806938), wk =   0.1250000
        k(   16) = (  -0.5000000  -1.3580984   0.0000000), wk =   0.0625000
        k(   17) = (  -0.5000000  -1.3580984   0.6403469), wk =   0.1250000
        k(   18) = (  -0.5000000  -1.3580984  -1.2806938), wk =   0.0625000

                       cryst. coord.
        k(    1) = (   0.0000000   0.0000000   0.0000000), wk =   0.0625000
        k(    2) = (   0.0000000   0.0000000   0.2500000), wk =   0.1250000
        k(    3) = (   0.0000000   0.0000000  -0.5000000), wk =   0.0625000
        k(    4) = (   0.0000000   0.2500000   0.0000000), wk =   0.1250000
        k(    5) = (   0.0000000   0.2500000   0.2500000), wk =   0.2500000
        k(    6) = (   0.0000000   0.2500000  -0.5000000), wk =   0.1250000
        k(    7) = (   0.0000000  -0.5000000   0.0000000), wk =   0.0625000
        k(    8) = (   0.0000000  -0.5000000   0.2500000), wk =   0.1250000
        k(    9) = (   0.0000000  -0.5000000  -0.5000000), wk =   0.0625000
        k(   10) = (  -0.5000000   0.0000000   0.0000000), wk =   0.0625000
        k(   11) = (  -0.5000000   0.0000000   0.2500000), wk =   0.1250000
        k(   12) = (  -0.5000000   0.0000000  -0.5000000), wk =   0.0625000
        k(   13) = (  -0.5000000   0.2500000   0.0000000), wk =   0.1250000
        k(   14) = (  -0.5000000   0.2500000   0.2500000), wk =   0.2500000
        k(   15) = (  -0.5000000   0.2500000  -0.5000000), wk =   0.1250000
        k(   16) = (  -0.5000000  -0.5000000   0.0000000), wk =   0.0625000
        k(   17) = (  -0.5000000  -0.5000000   0.2500000), wk =   0.1250000
        k(   18) = (  -0.5000000  -0.5000000  -0.5000000), wk =   0.0625000

     Dense  grid:   269075 G-vectors     FFT dimensions: ( 160,  60,  60)

     Smooth grid:    68055 G-vectors     FFT dimensions: ( 100,  36,  40)

     Dynamical RAM for                 wfc:       2.16 MB

     Dynamical RAM for     wfc (w. buffer):      21.64 MB

     Dynamical RAM for           str. fact:       2.74 MB

     Dynamical RAM for           local pot:       0.00 MB

     Dynamical RAM for          nlocal pot:       6.23 MB

     Dynamical RAM for                qrad:       3.59 MB

     Dynamical RAM for          rho,v,vnew:       8.50 MB

     Dynamical RAM for               rhoin:       2.83 MB

     Dynamical RAM for            rho*nmix:      21.90 MB

     Dynamical RAM for           G-vectors:       5.31 MB

     Dynamical RAM for          h,s,v(r/c):       0.46 MB

     Dynamical RAM for          <psi|beta>:       0.11 MB

     Dynamical RAM for                 psi:       4.33 MB

     Dynamical RAM for                hpsi:       4.33 MB

     Dynamical RAM for                spsi:       4.33 MB

     Dynamical RAM for      wfcinit/wfcrot:       4.56 MB

     Dynamical RAM for           addusdens:     130.70 MB

     Dynamical RAM for          addusforce:     134.82 MB

     Estimated static dynamical RAM per process >      84.17 MB

     Estimated max dynamical RAM per process >     218.99 MB

     Estimated total dynamical RAM >       1.28 GB

     Initial potential from superposition of free atoms

     starting charge   75.99954, renormalised to   80.00000
     Starting wfcs are   52 randomized atomic wfcs

     total cpu time spent up to now is       13.8 secs

     Self-consistent Calculation

     iteration #  1     ecut=    50.00 Ry     beta= 0.70
     Davidson diagonalization with overlap
     ethr =  1.00E-02,  avg # of iterations =  3.6

     total cpu time spent up to now is       44.6 secs

     total energy              =    -826.55546916 Ry
     estimated scf accuracy    <       2.62698315 Ry

     iteration #  2     ecut=    50.00 Ry     beta= 0.70
     Davidson diagonalization with overlap
     ethr =  3.28E-03,  avg # of iterations =  2.0

     total cpu time spent up to now is       71.6 secs

     total energy              =    -827.33622036 Ry
     estimated scf accuracy    <       1.10259839 Ry

     iteration #  3     ecut=    50.00 Ry     beta= 0.70
     Davidson diagonalization with overlap
     ethr =  1.38E-03,  avg # of iterations =  2.0

     total cpu time spent up to now is       97.6 secs

     total energy              =    -827.61073361 Ry
     estimated scf accuracy    <       0.06244287 Ry

     iteration #  4     ecut=    50.00 Ry     beta= 0.70
     Davidson diagonalization with overlap
     ethr =  7.81E-05,  avg # of iterations =  3.1

     total cpu time spent up to now is      122.2 secs

     total energy              =    -827.62207744 Ry
     estimated scf accuracy    <       0.00307440 Ry

     iteration #  5     ecut=    50.00 Ry     beta= 0.70
     Davidson diagonalization with overlap
     ethr =  3.84E-06,  avg # of iterations =  5.7

     total cpu time spent up to now is      153.2 secs

     total energy              =    -827.62276473 Ry
     estimated scf accuracy    <       0.00080476 Ry

     iteration #  6     ecut=    50.00 Ry     beta= 0.70
     Davidson diagonalization with overlap
     ethr =  1.01E-06,  avg # of iterations =  2.2

     total cpu time spent up to now is      175.9 secs

     total energy              =    -827.62293753 Ry
     estimated scf accuracy    <       0.00004587 Ry

     iteration #  7     ecut=    50.00 Ry     beta= 0.70
     Davidson diagonalization with overlap
     ethr =  5.73E-08,  avg # of iterations =  5.0

     total cpu time spent up to now is      213.3 secs

     total energy              =    -827.62296443 Ry
     estimated scf accuracy    <       0.00000280 Ry

     iteration #  8     ecut=    50.00 Ry     beta= 0.70
     Davidson diagonalization with overlap
     ethr =  3.50E-09,  avg # of iterations =  2.9

     total cpu time spent up to now is    14311.5 secs

     total energy              =    -827.62296548 Ry
     estimated scf accuracy    <       0.00000045 Ry

     iteration #  9     ecut=    50.00 Ry     beta= 0.70
     Davidson diagonalization with overlap
     ethr =  5.58E-10,  avg # of iterations =  2.6

     total cpu time spent up to now is    14334.4 secs

     End of self-consistent calculation

          k = 0.0000 0.0000 0.0000 (  8475 PWs)   bands (ev):

   -13.2655 -13.2517 -13.2495 -13.2458 -13.2456 -13.2418 -13.2387 -13.2360
   -13.2321 -13.2319 -13.2291 -13.2247 -13.2154 -13.2107 -13.1950 -13.1898
   -13.1852 -13.1812 -13.1745 -13.1653  -5.7514  -5.4015  -4.6659  -4.1666
     0.8094   1.9502   2.5356   3.0731   3.2285   4.6609   4.6972   4.7721
     5.1795   5.2352   5.8077   6.3047   6.5321   6.9841   7.3962   7.5653
     8.8485  10.9529  11.1005  11.1316  11.3562  11.4483  12.3336  12.6254
    12.7025  12.7395

     occupation numbers 
     1.0000   1.0000   1.0000   1.0000   1.0000   1.0000   1.0000   1.0000
     1.0000   1.0000   1.0000   1.0000   1.0000   1.0000   1.0000   1.0000
     1.0000   1.0000   1.0000   1.0000   1.0000   1.0000   1.0000   1.0000
     1.0000   1.0000   1.0000   1.0000   1.0000   1.0000   1.0000   1.0000
     1.0000   1.0000   1.0000   1.0000   1.0000   1.0000   1.0000   1.0000
     0.0000   0.0000   0.0000   0.0000   0.0000   0.0000   0.0000   0.0000
     0.0000   0.0000

          k = 0.0000 0.0000 0.6403 (  8491 PWs)   bands (ev):

   -13.2619 -13.2504 -13.2490 -13.2484 -13.2458 -13.2443 -13.2398 -13.2369
   -13.2315 -13.2270 -13.2255 -13.2227 -13.2139 -13.2118 -13.1950 -13.1882
   -13.1875 -13.1827 -13.1730 -13.1666  -5.4946  -5.1659  -4.6564  -4.2500
     0.1683   1.3496   1.5092   2.3498   3.3684   5.0007   5.0572   5.5352
     5.7194   6.0366   6.1754   6.6219   6.8749   7.0072   7.5203   7.8348
     9.2167   9.4498  10.1703  10.2279  10.9524  11.2317  11.4549  11.5811
    12.6063  12.7474

     occupation numbers 
     1.0000   1.0000   1.0000   1.0000   1.0000   1.0000   1.0000   1.0000
     1.0000   1.0000   1.0000   1.0000   1.0000   1.0000   1.0000   1.0000
     1.0000   1.0000   1.0000   1.0000   1.0000   1.0000   1.0000   1.0000
     1.0000   1.0000   1.0000   1.0000   1.0000   1.0000   1.0000   1.0000
     1.0000   1.0000   1.0000   1.0000   1.0000   1.0000   1.0000   1.0000
     0.0000   0.0000   0.0000   0.0000   0.0000   0.0000   0.0000   0.0000
     0.0000   0.0000

          k = 0.0000 0.0000-1.2807 (  8454 PWs)   bands (ev):

   -13.2549 -13.2549 -13.2501 -13.2501 -13.2451 -13.2451 -13.2401 -13.2401
   -13.2282 -13.2282 -13.2174 -13.2174 -13.2144 -13.2144 -13.1920 -13.1920
   -13.1854 -13.1854 -13.1697 -13.1697  -4.9381  -4.9381  -4.6337  -4.6337
     0.0636   0.0636   1.4321   1.4321   4.3878   4.3878   5.9264   5.9264
     6.3035   6.3035   6.6740   6.6740   7.2576   7.2576   7.7943   7.7943
     9.3223   9.3223   9.6494   9.6494   9.7859   9.7859  10.7613  10.7613
    11.2244  11.2244

     occupation numbers 
     1.0000   1.0000   1.0000   1.0000   1.0000   1.0000   1.0000   1.0000
     1.0000   1.0000   1.0000   1.0000   1.0000   1.0000   1.0000   1.0000
     1.0000   1.0000   1.0000   1.0000   1.0000   1.0000   1.0000   1.0000
     1.0000   1.0000   1.0000   1.0000   1.0000   1.0000   1.0000   1.0000
     1.0000   1.0000   1.0000   1.0000   1.0000   1.0000   1.0000   1.0000
     0.0000   0.0000   0.0000   0.0000   0.0000   0.0000   0.0000   0.0000
     0.0000   0.0000

          k = 0.0000 0.6790 0.0000 (  8508 PWs)   bands (ev):

   -13.2533 -13.2518 -13.2498 -13.2468 -13.2432 -13.2406 -13.2404 -13.2397
   -13.2355 -13.2305 -13.2280 -13.2210 -13.2134 -13.2092 -13.1934 -13.1891
   -13.1890 -13.1814 -13.1742 -13.1693  -5.4278  -5.1324  -4.5504  -4.2169
     0.4196   1.2457   1.7287   2.0608   3.4072   4.7872   5.1824   5.2456
     5.2609   5.5714   6.3251   6.4247   6.6161   7.2664   7.3900   7.8440
     9.0546   9.2941  10.3967  10.5618  10.5959  11.1924  11.2011  11.8959
    12.6221  12.7641

     occupation numbers 
     1.0000   1.0000   1.0000   1.0000   1.0000   1.0000   1.0000   1.0000
     1.0000   1.0000   1.0000   1.0000   1.0000   1.0000   1.0000   1.0000
     1.0000   1.0000   1.0000   1.0000   1.0000   1.0000   1.0000   1.0000
     1.0000   1.0000   1.0000   1.0000   1.0000   1.0000   1.0000   1.0000
     1.0000   1.0000   1.0000   1.0000   1.0000   1.0000   1.0000   1.0000
     0.0000   0.0000   0.0000   0.0000   0.0000   0.0000   0.0000   0.0000
     0.0000   0.0000

          k = 0.0000 0.6790 0.6403 (  8522 PWs)   bands (ev):

   -13.2583 -13.2544 -13.2498 -13.2497 -13.2444 -13.2404 -13.2400 -13.2388
   -13.2337 -13.2305 -13.2229 -13.2164 -13.2142 -13.2081 -13.1925 -13.1893
   -13.1888 -13.1833 -13.1732 -13.1697  -5.1967  -4.9258  -4.5279  -4.2479
     0.3279   1.3816   1.4241   1.8477   3.6275   3.7293   3.9062   4.9993
     5.1863   6.0264   6.0357   6.5366   6.7326   7.1435   7.2562   7.4667
     9.0646   9.5818  10.2856  10.6275  10.8250  11.3066  11.5563  12.6031
    13.0034  13.0298

     occupation numbers 
     1.0000   1.0000   1.0000   1.0000   1.0000   1.0000   1.0000   1.0000
     1.0000   1.0000   1.0000   1.0000   1.0000   1.0000   1.0000   1.0000
     1.0000   1.0000   1.0000   1.0000   1.0000   1.0000   1.0000   1.0000
     1.0000   1.0000   1.0000   1.0000   1.0000   1.0000   1.0000   1.0000
     1.0000   1.0000   1.0000   1.0000   1.0000   1.0000   1.0000   1.0000
     0.0000   0.0000   0.0000   0.0000   0.0000   0.0000   0.0000   0.0000
     0.0000   0.0000

          k = 0.0000 0.6790-1.2807 (  8496 PWs)   bands (ev):

   -13.2603 -13.2603 -13.2521 -13.2521 -13.2425 -13.2425 -13.2387 -13.2387
   -13.2308 -13.2308 -13.2162 -13.2162 -13.2098 -13.2098 -13.1903 -13.1903
   -13.1864 -13.1864 -13.1711 -13.1711  -4.7285  -4.7285  -4.4967  -4.4967
     0.4729   0.4729   1.6285   1.6285   3.9329   3.9329   4.1963   4.1963
     5.0393   5.0393   5.7254   5.7254   6.6080   6.6080   7.2028   7.2028
     9.6174   9.6174  11.0553  11.0553  12.0464  12.0464  12.5600  12.5600
    12.8520  12.8520

     occupation numbers 
     1.0000   1.0000   1.0000   1.0000   1.0000   1.0000   1.0000   1.0000
     1.0000   1.0000   1.0000   1.0000   1.0000   1.0000   1.0000   1.0000
     1.0000   1.0000   1.0000   1.0000   1.0000   1.0000   1.0000   1.0000
     1.0000   1.0000   1.0000   1.0000   1.0000   1.0000   1.0000   1.0000
     1.0000   1.0000   1.0000   1.0000   1.0000   1.0000   1.0000   1.0000
     0.0000   0.0000   0.0000   0.0000   0.0000   0.0000   0.0000   0.0000
     0.0000   0.0000

          k = 0.0000-1.3581 0.0000 (  8578 PWs)   bands (ev):

   -13.2559 -13.2559 -13.2517 -13.2517 -13.2376 -13.2376 -13.2356 -13.2356
   -13.2285 -13.2285 -13.2251 -13.2251 -13.2062 -13.2062 -13.2014 -13.2014
   -13.1777 -13.1777 -13.1753 -13.1753  -4.6890  -4.6890  -4.6258  -4.6258
     0.3600   0.3600   1.0565   1.0565   4.4821   4.4821   5.8436   5.8436
     5.8594   5.8594   6.3730   6.3730   7.1042   7.1042   7.3041   7.3041
     9.1070   9.1070   9.5436   9.5436   9.8203   9.8203  10.6265  10.6265
    11.3347  11.3347

     occupation numbers 
     1.0000   1.0000   1.0000   1.0000   1.0000   1.0000   1.0000   1.0000
     1.0000   1.0000   1.0000   1.0000   1.0000   1.0000   1.0000   1.0000
     1.0000   1.0000   1.0000   1.0000   1.0000   1.0000   1.0000   1.0000
     1.0000   1.0000   1.0000   1.0000   1.0000   1.0000   1.0000   1.0000
     1.0000   1.0000   1.0000   1.0000   1.0000   1.0000   1.0000   1.0000
     0.0000   0.0000   0.0000   0.0000   0.0000   0.0000   0.0000   0.0000
     0.0000   0.0000

          k = 0.0000-1.3581 0.6403 (  8534 PWs)   bands (ev):

   -13.2626 -13.2626 -13.2566 -13.2566 -13.2374 -13.2374 -13.2322 -13.2322
   -13.2277 -13.2277 -13.2226 -13.2226 -13.2069 -13.2069 -13.1979 -13.1979
   -13.1792 -13.1792 -13.1740 -13.1740  -4.5664  -4.5664  -4.5198  -4.5198
     0.7143   0.7143   1.2592   1.2592   3.9011   3.9011   4.2906   4.2906
     5.0651   5.0651   5.7299   5.7299   6.1359   6.1359   7.1962   7.1962
     9.4504   9.4504  11.0042  11.0042  11.9082  11.9082  12.2321  12.2321
    12.6162  12.6162

     occupation numbers 
     1.0000   1.0000   1.0000   1.0000   1.0000   1.0000   1.0000   1.0000
     1.0000   1.0000   1.0000   1.0000   1.0000   1.0000   1.0000   1.0000
     1.0000   1.0000   1.0000   1.0000   1.0000   1.0000   1.0000   1.0000
     1.0000   1.0000   1.0000   1.0000   1.0000   1.0000   1.0000   1.0000
     1.0000   1.0000   1.0000   1.0000   1.0000   1.0000   1.0000   1.0000
     0.0000   0.0000   0.0000   0.0000   0.0000   0.0000   0.0000   0.0000
     0.0000   0.0000

          k = 0.0000-1.3581-1.2807 (  8524 PWs)   bands (ev):

   -13.2688 -13.2688 -13.2613 -13.2613 -13.2373 -13.2373 -13.2299 -13.2299
   -13.2267 -13.2267 -13.2210 -13.2210 -13.2059 -13.2059 -13.1953 -13.1953
   -13.1797 -13.1797 -13.1732 -13.1732  -4.4254  -4.4254  -4.4156  -4.4156
     1.2921   1.2921   1.4416   1.4416   3.0330   3.0330   3.5507   3.5507
     4.4640   4.4640   4.9468   4.9468   5.7975   5.7975   6.6393   6.6393
    10.8647  10.8647  11.1723  11.1723  12.8429  12.8429  12.9766  12.9766
    13.7118  13.7118

     occupation numbers 
     1.0000   1.0000   1.0000   1.0000   1.0000   1.0000   1.0000   1.0000
     1.0000   1.0000   1.0000   1.0000   1.0000   1.0000   1.0000   1.0000
     1.0000   1.0000   1.0000   1.0000   1.0000   1.0000   1.0000   1.0000
     1.0000   1.0000   1.0000   1.0000   1.0000   1.0000   1.0000   1.0000
     1.0000   1.0000   1.0000   1.0000   1.0000   1.0000   1.0000   1.0000
     0.0000   0.0000   0.0000   0.0000   0.0000   0.0000   0.0000   0.0000
     0.0000   0.0000

          k =-0.5000 0.0000 0.0000 (  8480 PWs)   bands (ev):

   -13.2595 -13.2595 -13.2478 -13.2478 -13.2444 -13.2444 -13.2362 -13.2362
   -13.2293 -13.2293 -13.2293 -13.2293 -13.2134 -13.2134 -13.1924 -13.1924
   -13.1830 -13.1830 -13.1695 -13.1695  -5.6118  -5.6118  -4.3812  -4.3812
     1.1501   1.1501   3.0211   3.0211   4.0105   4.0105   4.8525   4.8525
     5.2086   5.2086   6.0021   6.0021   6.2354   6.2354   7.5283   7.5283
    10.6757  10.6757  10.8758  10.8758  11.7659  11.7659  11.9998  11.9998
    13.0926  13.0926

     occupation numbers 
     1.0000   1.0000   1.0000   1.0000   1.0000   1.0000   1.0000   1.0000
     1.0000   1.0000   1.0000   1.0000   1.0000   1.0000   1.0000   1.0000
     1.0000   1.0000   1.0000   1.0000   1.0000   1.0000   1.0000   1.0000
     1.0000   1.0000   1.0000   1.0000   1.0000   1.0000   1.0000   1.0000
     1.0000   1.0000   1.0000   1.0000   1.0000   1.0000   1.0000   1.0000
     0.0000   0.0000   0.0000   0.0000   0.0000   0.0000   0.0000   0.0000
     0.0000   0.0000

          k =-0.5000 0.0000 0.6403 (  8518 PWs)   bands (ev):

   -13.2573 -13.2573 -13.2469 -13.2469 -13.2460 -13.2460 -13.2390 -13.2390
   -13.2283 -13.2283 -13.2241 -13.2241 -13.2133 -13.2133 -13.1921 -13.1921
   -13.1844 -13.1844 -13.1696 -13.1696  -5.3667  -5.3667  -4.4167  -4.4167
     0.5528   0.5528   2.0242   2.0242   4.4413   4.4413   5.2332   5.2332
     5.7205   5.7205   6.3917   6.3917   6.8380   6.8380   7.4874   7.4874
    10.0241  10.0241  10.5227  10.5227  10.7898  10.7898  11.5447  11.5447
    12.3040  12.3040

     occupation numbers 
     1.0000   1.0000   1.0000   1.0000   1.0000   1.0000   1.0000   1.0000
     1.0000   1.0000   1.0000   1.0000   1.0000   1.0000   1.0000   1.0000
     1.0000   1.0000   1.0000   1.0000   1.0000   1.0000   1.0000   1.0000
     1.0000   1.0000   1.0000   1.0000   1.0000   1.0000   1.0000   1.0000
     1.0000   1.0000   1.0000   1.0000   1.0000   1.0000   1.0000   1.0000
     0.0000   0.0000   0.0000   0.0000   0.0000   0.0000   0.0000   0.0000
     0.0000   0.0000

          k =-0.5000 0.0000-1.2807 (  8512 PWs)   bands (ev):

   -13.2547 -13.2547 -13.2494 -13.2494 -13.2454 -13.2454 -13.2416 -13.2416
   -13.2275 -13.2275 -13.2171 -13.2171 -13.2148 -13.2148 -13.1916 -13.1916
   -13.1858 -13.1858 -13.1698 -13.1698  -4.9350  -4.9350  -4.6381  -4.6381
     0.1431   0.1431   1.2457   1.2457   5.2394   5.2394   5.4872   5.4872
     5.9397   5.9397   6.2839   6.2839   7.5370   7.5370   7.8094   7.8094
     9.3018   9.3018   9.7124   9.7124   9.7691   9.7691  11.1174  11.1174
    11.4662  11.4662

     occupation numbers 
     1.0000   1.0000   1.0000   1.0000   1.0000   1.0000   1.0000   1.0000
     1.0000   1.0000   1.0000   1.0000   1.0000   1.0000   1.0000   1.0000
     1.0000   1.0000   1.0000   1.0000   1.0000   1.0000   1.0000   1.0000
     1.0000   1.0000   1.0000   1.0000   1.0000   1.0000   1.0000   1.0000
     1.0000   1.0000   1.0000   1.0000   1.0000   1.0000   1.0000   1.0000
     0.0000   0.0000   0.0000   0.0000   0.0000   0.0000   0.0000   0.0000
     0.0000   0.0000

          k =-0.5000 0.6790 0.0000 (  8548 PWs)   bands (ev):

   -13.2530 -13.2530 -13.2469 -13.2469 -13.2423 -13.2423 -13.2413 -13.2413
   -13.2328 -13.2328 -13.2245 -13.2245 -13.2111 -13.2111 -13.1921 -13.1921
   -13.1843 -13.1843 -13.1716 -13.1716  -5.3082  -5.3082  -4.3542  -4.3542
     0.7246   0.7246   1.9148   1.9148   4.3295   4.3295   4.9957   4.9957
     5.7314   5.7314   6.1968   6.1968   6.5035   6.5035   7.6289   7.6289
     9.6878   9.6878  10.5280  10.5280  11.2859  11.2859  11.5766  11.5766
    12.1208  12.1208

     occupation numbers 
     1.0000   1.0000   1.0000   1.0000   1.0000   1.0000   1.0000   1.0000
     1.0000   1.0000   1.0000   1.0000   1.0000   1.0000   1.0000   1.0000
     1.0000   1.0000   1.0000   1.0000   1.0000   1.0000   1.0000   1.0000
     1.0000   1.0000   1.0000   1.0000   1.0000   1.0000   1.0000   1.0000
     1.0000   1.0000   1.0000   1.0000   1.0000   1.0000   1.0000   1.0000
     0.0000   0.0000   0.0000   0.0000   0.0000   0.0000   0.0000   0.0000
     0.0000   0.0000

          k =-0.5000 0.6790 0.6403 (  8506 PWs)   bands (ev):

   -13.2561 -13.2561 -13.2506 -13.2506 -13.2423 -13.2423 -13.2390 -13.2390
   -13.2317 -13.2317 -13.2208 -13.2208 -13.2102 -13.2102 -13.1920 -13.1920
   -13.1853 -13.1853 -13.1711 -13.1711  -5.0896  -5.0896  -4.3591  -4.3591
     0.6861   0.6861   1.7236   1.7236   3.8070   3.8070   4.7145   4.7145
     5.1085   5.1085   6.4152   6.4152   6.6261   6.6261   7.5522   7.5522
     9.8341   9.8341  10.3761  10.3761  11.0806  11.0806  11.8196  11.8196
    12.5929  12.5929

     occupation numbers 
     1.0000   1.0000   1.0000   1.0000   1.0000   1.0000   1.0000   1.0000
     1.0000   1.0000   1.0000   1.0000   1.0000   1.0000   1.0000   1.0000
     1.0000   1.0000   1.0000   1.0000   1.0000   1.0000   1.0000   1.0000
     1.0000   1.0000   1.0000   1.0000   1.0000   1.0000   1.0000   1.0000
     1.0000   1.0000   1.0000   1.0000   1.0000   1.0000   1.0000   1.0000
     0.0000   0.0000   0.0000   0.0000   0.0000   0.0000   0.0000   0.0000
     0.0000   0.0000

          k =-0.5000 0.6790-1.2807 (  8484 PWs)   bands (ev):

   -13.2593 -13.2593 -13.2545 -13.2545 -13.2415 -13.2415 -13.2376 -13.2376
   -13.2308 -13.2308 -13.2176 -13.2176 -13.2086 -13.2086 -13.1918 -13.1918
   -13.1860 -13.1860 -13.1706 -13.1706  -4.7261  -4.7261  -4.4997  -4.4997
     0.5289   0.5289   1.5095   1.5095   4.0228   4.0228   4.1607   4.1607
     5.3996   5.3996   5.6295   5.6295   6.3531   6.3531   6.9502   6.9502
    10.5337  10.5337  11.1270  11.1270  11.3290  11.3290  11.8666  11.8666
    12.9836  12.9836

     occupation numbers 
     1.0000   1.0000   1.0000   1.0000   1.0000   1.0000   1.0000   1.0000
     1.0000   1.0000   1.0000   1.0000   1.0000   1.0000   1.0000   1.0000
     1.0000   1.0000   1.0000   1.0000   1.0000   1.0000   1.0000   1.0000
     1.0000   1.0000   1.0000   1.0000   1.0000   1.0000   1.0000   1.0000
     1.0000   1.0000   1.0000   1.0000   1.0000   1.0000   1.0000   1.0000
     0.0000   0.0000   0.0000   0.0000   0.0000   0.0000   0.0000   0.0000
     0.0000   0.0000

          k =-0.5000-1.3581 0.0000 (  8560 PWs)   bands (ev):

   -13.2540 -13.2540 -13.2540 -13.2540 -13.2367 -13.2367 -13.2367 -13.2367
   -13.2265 -13.2265 -13.2265 -13.2265 -13.2038 -13.2038 -13.2038 -13.2038
   -13.1765 -13.1765 -13.1765 -13.1765  -4.6580  -4.6580  -4.6580  -4.6580
     0.6674   0.6674   0.6674   0.6674   5.2988   5.2988   5.2988   5.2988
     5.9709   5.9709   5.9709   5.9709   7.0642   7.0642   7.0642   7.0642
     9.5761   9.5761   9.5761   9.5761  10.2417  10.2417  10.2417  10.2417
    11.9999  11.9999

     occupation numbers 
     1.0000   1.0000   1.0000   1.0000   1.0000   1.0000   1.0000   1.0000
     1.0000   1.0000   1.0000   1.0000   1.0000   1.0000   1.0000   1.0000
     1.0000   1.0000   1.0000   1.0000   1.0000   1.0000   1.0000   1.0000
     1.0000   1.0000   1.0000   1.0000   1.0000   1.0000   1.0000   1.0000
     1.0000   1.0000   1.0000   1.0000   1.0000   1.0000   1.0000   1.0000
     0.0000   0.0000   0.0000   0.0000   0.0000   0.0000   0.0000   0.0000
     0.0000   0.0000

          k =-0.5000-1.3581 0.6403 (  8528 PWs)   bands (ev):

   -13.2597 -13.2597 -13.2597 -13.2597 -13.2354 -13.2354 -13.2354 -13.2354
   -13.2249 -13.2249 -13.2249 -13.2249 -13.2022 -13.2022 -13.2022 -13.2022
   -13.1763 -13.1763 -13.1763 -13.1763  -4.5434  -4.5434  -4.5434  -4.5434
     0.9592   0.9592   0.9592   0.9592   4.1596   4.1596   4.1596   4.1596
     5.3078   5.3078   5.3078   5.3078   6.6162   6.6162   6.6162   6.6162
    10.5282  10.5282  10.5282  10.5282  11.5297  11.5297  11.5297  11.5297
    12.9559  12.9559

     occupation numbers 
     1.0000   1.0000   1.0000   1.0000   1.0000   1.0000   1.0000   1.0000
     1.0000   1.0000   1.0000   1.0000   1.0000   1.0000   1.0000   1.0000
     1.0000   1.0000   1.0000   1.0000   1.0000   1.0000   1.0000   1.0000
     1.0000   1.0000   1.0000   1.0000   1.0000   1.0000   1.0000   1.0000
     1.0000   1.0000   1.0000   1.0000   1.0000   1.0000   1.0000   1.0000
     0.0000   0.0000   0.0000   0.0000   0.0000   0.0000   0.0000   0.0000
     0.0000   0.0000

          k =-0.5000-1.3581-1.2807 (  8472 PWs)   bands (ev):

   -13.2650 -13.2650 -13.2650 -13.2650 -13.2349 -13.2349 -13.2349 -13.2349
   -13.2232 -13.2232 -13.2232 -13.2232 -13.2002 -13.2002 -13.2002 -13.2002
   -13.1761 -13.1761 -13.1761 -13.1761  -4.4205  -4.4205  -4.4205  -4.4205
     1.3478   1.3478   1.3478   1.3478   3.4520   3.4520   3.4520   3.4520
     4.3128   4.3128   4.3128   4.3128   6.5910   6.5910   6.5910   6.5910
    10.6228  10.6228  10.6228  10.6228  12.8368  12.8368  12.8368  12.8368
    14.6014  14.6014

     occupation numbers 
     1.0000   1.0000   1.0000   1.0000   1.0000   1.0000   1.0000   1.0000
     1.0000   1.0000   1.0000   1.0000   1.0000   1.0000   1.0000   1.0000
     1.0000   1.0000   1.0000   1.0000   1.0000   1.0000   1.0000   1.0000
     1.0000   1.0000   1.0000   1.0000   1.0000   1.0000   1.0000   1.0000
     1.0000   1.0000   1.0000   1.0000   1.0000   1.0000   1.0000   1.0000
     0.0000   0.0000   0.0000   0.0000   0.0000   0.0000   0.0000   0.0000
     0.0000   0.0000

     highest occupied, lowest unoccupied level (ev):     7.8440    8.8485

!    total energy              =    -827.62296564 Ry
     estimated scf accuracy    <          1.0E-09 Ry

     The total energy is the sum of the following terms:
     one-electron contribution =    -257.00837294 Ry
     hartree contribution      =     179.10537815 Ry
     xc contribution           =    -309.11515466 Ry
     ewald contribution        =    -440.60481620 Ry

     convergence has been achieved in   9 iterations

     Forces acting on atoms (cartesian axes, Ry/au):

     atom    1 type  2   force =     0.00892663   -0.00000000   -0.00025227
     atom    2 type  1   force =    -0.00646573    0.00000000   -0.00090539
     atom    3 type  2   force =    -0.00892663    0.00000000   -0.00025227
     atom    4 type  1   force =     0.00646573    0.00000000   -0.00090539
     atom    5 type  2   force =     0.00892663    0.00000000    0.00025227
     atom    6 type  1   force =    -0.00646573    0.00000000    0.00090539
     atom    7 type  2   force =    -0.00892663   -0.00000000    0.00025227
     atom    8 type  1   force =     0.00646573    0.00000000    0.00090539
     The non-local contrib.  to forces
     atom    1 type  2   force =    -0.11438432    0.00000000    0.08814264
     atom    2 type  1   force =     0.36559517    0.00000000    0.25615952
     atom    3 type  2   force =     0.11438432    0.00000000    0.08814264
     atom    4 type  1   force =    -0.36559517    0.00000000    0.25615952
     atom    5 type  2   force =    -0.11438432    0.00000000   -0.08814264
     atom    6 type  1   force =     0.36559517    0.00000000   -0.25615952
     atom    7 type  2   force =     0.11438432    0.00000000   -0.08814264
     atom    8 type  1   force =    -0.36559517    0.00000000   -0.25615952
     The ionic contribution  to forces
     atom    1 type  2   force =     1.53473235    0.00000000   -1.05154455
     atom    2 type  1   force =    -1.03769718    0.00000000   -0.57506129
     atom    3 type  2   force =    -1.53473235    0.00000000   -1.05154455
     atom    4 type  1   force =     1.03769718    0.00000000   -0.57506129
     atom    5 type  2   force =     1.53473235    0.00000000    1.05154455
     atom    6 type  1   force =    -1.03769718   -0.00000000    0.57506129
     atom    7 type  2   force =    -1.53473235    0.00000000    1.05154455
     atom    8 type  1   force =     1.03769718    0.00000000    0.57506129
     The local contribution  to forces
     atom    1 type  2   force =    -1.42396206   -0.00000000    0.97276969
     atom    2 type  1   force =     0.67121184   -0.00000000    0.32201036
     atom    3 type  2   force =     1.42396206   -0.00000000    0.97276969
     atom    4 type  1   force =    -0.67121184    0.00000000    0.32201036
     atom    5 type  2   force =    -1.42396206    0.00000000   -0.97276969
     atom    6 type  1   force =     0.67121184   -0.00000000   -0.32201036
     atom    7 type  2   force =     1.42396206    0.00000000   -0.97276969
     atom    8 type  1   force =    -0.67121184    0.00000000   -0.32201036
     The core correction contribution to forces
     atom    1 type  2   force =     0.01251208   -0.00000000   -0.00962049
     atom    2 type  1   force =    -0.00551992   -0.00000000   -0.00404017
     atom    3 type  2   force =    -0.01251208    0.00000000   -0.00962049
     atom    4 type  1   force =     0.00551992    0.00000000   -0.00404017
     atom    5 type  2   force =     0.01251208   -0.00000000    0.00962049
     atom    6 type  1   force =    -0.00551992   -0.00000000    0.00404017
     atom    7 type  2   force =    -0.01251208    0.00000000    0.00962049
     atom    8 type  1   force =     0.00551992    0.00000000    0.00404017
     The Hubbard contrib.    to forces
     atom    1 type  2   force =     0.00000000    0.00000000    0.00000000
     atom    2 type  1   force =     0.00000000    0.00000000    0.00000000
     atom    3 type  2   force =     0.00000000    0.00000000    0.00000000
     atom    4 type  1   force =     0.00000000    0.00000000    0.00000000
     atom    5 type  2   force =     0.00000000    0.00000000    0.00000000
     atom    6 type  1   force =     0.00000000    0.00000000    0.00000000
     atom    7 type  2   force =     0.00000000    0.00000000    0.00000000
     atom    8 type  1   force =     0.00000000    0.00000000    0.00000000
     The SCF correction term to forces
     atom    1 type  2   force =     0.00002858   -0.00000000    0.00000043
     atom    2 type  1   force =    -0.00005563   -0.00000000    0.00002619
     atom    3 type  2   force =    -0.00002858   -0.00000000    0.00000043
     atom    4 type  1   force =     0.00005563    0.00000000    0.00002619
     atom    5 type  2   force =     0.00002858    0.00000000   -0.00000043
     atom    6 type  1   force =    -0.00005563   -0.00000000   -0.00002619
     atom    7 type  2   force =    -0.00002858   -0.00000000   -0.00000043
     atom    8 type  1   force =     0.00005563   -0.00000000   -0.00002619

     Total force =     0.022125     Total SCF correction =     0.000136

     Writing output data file ./tmp/SnSe_pnma.save/

     init_run     :      9.83s CPU     13.48s WALL (       1 calls)
     electrons    :    155.07s CPU  14320.63s WALL (       1 calls)
     forces       :      8.02s CPU     10.94s WALL (       1 calls)

     Called by init_run:
     wfcinit      :      3.84s CPU      5.81s WALL (       1 calls)
     wfcinit:atom :      0.02s CPU      0.03s WALL (       9 calls)
     wfcinit:wfcr :      3.65s CPU      5.59s WALL (       9 calls)
     potinit      :      1.76s CPU      1.84s WALL (       1 calls)
     hinit0       :      2.35s CPU      2.42s WALL (       1 calls)

     Called by electrons:
     c_bands      :    115.80s CPU  14259.92s WALL (       9 calls)
     sum_band     :     23.28s CPU     29.98s WALL (       9 calls)
     v_of_rho     :      3.51s CPU      4.03s WALL (      10 calls)
     v_h          :      0.31s CPU      0.32s WALL (      10 calls)
     v_xc         :      3.45s CPU      3.99s WALL (      11 calls)
     newd         :     13.20s CPU     28.92s WALL (      10 calls)
     mix_rho      :      0.61s CPU      0.63s WALL (       9 calls)

     Called by c_bands:
     init_us_2    :      1.05s CPU      1.11s WALL (     180 calls)
     cegterg      :     97.78s CPU  14240.73s WALL (      81 calls)

     Called by sum_band:
     sum_band:wei :      0.00s CPU      0.00s WALL (       9 calls)
     sum_band:loo :     14.28s CPU     17.74s WALL (       9 calls)
     sum_band:buf :      0.10s CPU      0.11s WALL (      81 calls)
     sum_band:ini :      0.46s CPU      0.46s WALL (      81 calls)
     sum_band:cal :      3.43s CPU      5.88s WALL (      81 calls)
     sum_band:bec :      0.01s CPU      0.01s WALL (      81 calls)
     addusdens    :      7.34s CPU     10.52s WALL (       9 calls)
     addusd:skk   :      0.02s CPU      0.06s WALL (      18 calls)
     addusd:dgemm :      1.74s CPU      3.39s WALL (      18 calls)
     addusd:qvan2 :      5.06s CPU      5.86s WALL (      18 calls)

     Called by *egterg:
     cdiaghg      :     11.76s CPU     46.19s WALL (     355 calls)
     cegterg:over :     11.74s CPU     25.60s WALL (     274 calls)
     cegterg:upda :      2.62s CPU      3.80s WALL (     274 calls)
     cegterg:last :      4.29s CPU      4.40s WALL (     170 calls)
     h_psi        :     59.23s CPU  14148.34s WALL (     364 calls)
     s_psi        :      4.37s CPU      4.15s WALL (     364 calls)
     g_psi        :      0.26s CPU      0.26s WALL (     274 calls)

     Called by h_psi:
     h_psi:calbec :      9.65s CPU  14093.10s WALL (     364 calls)
     vloc_psi     :     44.85s CPU     50.69s WALL (     364 calls)
     add_vuspsi   :      4.48s CPU      4.25s WALL (     364 calls)

     General routines
     calbec       :     13.91s CPU  14101.50s WALL (     481 calls)
     fft          :      3.34s CPU      3.62s WALL (     139 calls)
     ffts         :      0.11s CPU      0.11s WALL (      19 calls)
     fftw         :     48.44s CPU     54.54s WALL (   26004 calls)
     interpolate  :      0.34s CPU      0.36s WALL (      10 calls)

     Parallel routines
     fft_scatt_xy :      7.79s CPU      8.55s WALL (   26162 calls)
     fft_scatt_yz :     20.41s CPU     23.75s WALL (   26162 calls)

     PWSCF        :   2m53.42s CPU      3h59m WALL


   This run was terminated on:  17:53:48  18May2026            

=------------------------------------------------------------------------------=
   JOB DONE.
=------------------------------------------------------------------------------=
