
     Program PWSCF v.6.7MaX starts on 18May2026 at 18:17: 5 

     This program is part of the open-source Quantum ESPRESSO suite
     for quantum simulation of materials; please cite
         "P. Giannozzi et al., J. Phys.:Condens. Matter 21 395502 (2009);
         "P. Giannozzi et al., J. Phys.:Condens. Matter 29 465901 (2017);
          URL http://www.quantum-espresso.org", 
     in publications or presentations arising from this work. More details at
     http://www.quantum-espresso.org/quote

     Parallel version (MPI), running on     6 processors

     MPI processes distributed on     1 nodes
     K-points division:     npool     =       6
     Waiting for input...
     Reading input from standard input

     Current dimensions of program PWSCF are:
     Max number of different atomic species (ntypx) = 10
     Max number of k-points (npk) =  40000
     Max angular momentum in pseudopotentials (lmaxx) =  3

     Subspace diagonalization in iterative solution of the eigenvalue problem:
     a serial algorithm will be used


     G-vector sticks info
     --------------------
     sticks:   dense  smooth     PW     G-vecs:    dense   smooth      PW
     Sum        6765    2711    787               269075    68055   10687



     bravais-lattice index     =            8
     lattice parameter (alat)  =      21.4862  a.u.
     unit-cell volume          =    1425.7436 (a.u.)^3
     number of atoms/cell      =            8
     number of atomic types    =            2
     number of electrons       =        80.00
     number of Kohn-Sham states=           50
     kinetic-energy cutoff     =      50.0000  Ry
     charge density cutoff     =     500.0000  Ry
     scf convergence threshold =      1.0E-08
     mixing beta               =       0.7000
     number of iterations used =            8  plain     mixing
     Exchange-correlation= SLA  PW   PBE  PBE
                           (   1   4   3   4   0   0   0)

     celldm(1)=  21.486186  celldm(2)=   0.368162  celldm(3)=   0.390413
     celldm(4)=   0.000000  celldm(5)=   0.000000  celldm(6)=   0.000000

     crystal axes: (cart. coord. in units of alat)
               a(1) = (   1.000000   0.000000   0.000000 )  
               a(2) = (   0.000000   0.368162   0.000000 )  
               a(3) = (   0.000000   0.000000   0.390413 )  

     reciprocal axes: (cart. coord. in units 2 pi/alat)
               b(1) = (  1.000000  0.000000  0.000000 )  
               b(2) = (  0.000000  2.716197  0.000000 )  
               b(3) = (  0.000000  0.000000  2.561388 )  


     PseudoPot. # 1 for Sn read from file:
     ../pseudo/Sn_pbe_v1.uspp.F.UPF
     MD5 check sum: 4cf58ce39ec5d5d420df3dd08604eb00
     Pseudo is Ultrasoft + core correction, Zval = 14.0
     Generated by new atomic code, or converted to UPF format
     Using radial grid of  891 points,  6 beta functions with: 
                l(1) =   0
                l(2) =   0
                l(3) =   1
                l(4) =   1
                l(5) =   2
                l(6) =   2
     Q(r) pseudized with  6 coefficients,  rinner =    1.200   1.200   1.200
                                                       1.200   1.200

     PseudoPot. # 2 for Se read from file:
     ../pseudo/Se_pbe_v1.uspp.F.UPF
     MD5 check sum: 1b3568f3a8ae88f9a2a0ad0698632c85
     Pseudo is Ultrasoft + core correction, Zval =  6.0
     Generated by new atomic code, or converted to UPF format
     Using radial grid of  877 points,  6 beta functions with: 
                l(1) =   0
                l(2) =   0
                l(3) =   1
                l(4) =   1
                l(5) =   2
                l(6) =   2
     Q(r) pseudized with  8 coefficients,  rinner =    1.300   1.300   1.300
                                                       1.300   1.300

     atomic species   valence    mass     pseudopotential
        Sn            14.00   118.71000     Sn( 1.00)
        Se             6.00    78.97100     Se( 1.00)

      8 Sym. Ops., with inversion, found ( 6 have fractional translation)


                                    s                        frac. trans.

      isym =  1     identity                                     

 cryst.   s( 1) = (     1          0          0      )
                  (     0          1          0      )
                  (     0          0          1      )

 cart.    s( 1) = (  1.0000000  0.0000000  0.0000000 )
                  (  0.0000000  1.0000000  0.0000000 )
                  (  0.0000000  0.0000000  1.0000000 )


      isym =  2     180 deg rotation - cart. axis [0,0,1]        

 cryst.   s( 2) = (    -1          0          0      )    f =(  0.5000000 )
                  (     0         -1          0      )       (  0.0000000 )
                  (     0          0          1      )       (  0.5000000 )

 cart.    s( 2) = ( -1.0000000  0.0000000  0.0000000 )    f =(  0.5000000 )
                  (  0.0000000 -1.0000000  0.0000000 )       (  0.0000000 )
                  (  0.0000000  0.0000000  1.0000000 )       (  0.1952067 )


      isym =  3     180 deg rotation - cart. axis [0,1,0]        

 cryst.   s( 3) = (    -1          0          0      )    f =(  0.0000000 )
                  (     0          1          0      )       ( -0.5000000 )
                  (     0          0         -1      )       (  0.0000000 )

 cart.    s( 3) = ( -1.0000000  0.0000000  0.0000000 )    f =(  0.0000000 )
                  (  0.0000000  1.0000000  0.0000000 )       ( -0.1840809 )
                  (  0.0000000  0.0000000 -1.0000000 )       (  0.0000000 )


      isym =  4     180 deg rotation - cart. axis [1,0,0]        

 cryst.   s( 4) = (     1          0          0      )    f =(  0.5000000 )
                  (     0         -1          0      )       (  0.5000000 )
                  (     0          0         -1      )       (  0.5000000 )

 cart.    s( 4) = (  1.0000000  0.0000000  0.0000000 )    f =(  0.5000000 )
                  (  0.0000000 -1.0000000  0.0000000 )       (  0.1840809 )
                  (  0.0000000  0.0000000 -1.0000000 )       (  0.1952067 )


      isym =  5     inversion                                    

 cryst.   s( 5) = (    -1          0          0      )
                  (     0         -1          0      )
                  (     0          0         -1      )

 cart.    s( 5) = ( -1.0000000  0.0000000  0.0000000 )
                  (  0.0000000 -1.0000000  0.0000000 )
                  (  0.0000000  0.0000000 -1.0000000 )


      isym =  6     inv. 180 deg rotation - cart. axis [0,0,1]   

 cryst.   s( 6) = (     1          0          0      )    f =(  0.5000000 )
                  (     0          1          0      )       (  0.0000000 )
                  (     0          0         -1      )       (  0.5000000 )

 cart.    s( 6) = (  1.0000000  0.0000000  0.0000000 )    f =(  0.5000000 )
                  (  0.0000000  1.0000000  0.0000000 )       (  0.0000000 )
                  (  0.0000000  0.0000000 -1.0000000 )       (  0.1952067 )


      isym =  7     inv. 180 deg rotation - cart. axis [0,1,0]   

 cryst.   s( 7) = (     1          0          0      )    f =(  0.0000000 )
                  (     0         -1          0      )       (  0.5000000 )
                  (     0          0          1      )       (  0.0000000 )

 cart.    s( 7) = (  1.0000000  0.0000000  0.0000000 )    f =(  0.0000000 )
                  (  0.0000000 -1.0000000  0.0000000 )       (  0.1840809 )
                  (  0.0000000  0.0000000  1.0000000 )       (  0.0000000 )


      isym =  8     inv. 180 deg rotation - cart. axis [1,0,0]   

 cryst.   s( 8) = (    -1          0          0      )    f =(  0.5000000 )
                  (     0          1          0      )       ( -0.5000000 )
                  (     0          0          1      )       (  0.5000000 )

 cart.    s( 8) = ( -1.0000000  0.0000000  0.0000000 )    f =(  0.5000000 )
                  (  0.0000000  1.0000000  0.0000000 )       ( -0.1840809 )
                  (  0.0000000  0.0000000  1.0000000 )       (  0.1952067 )


     point group D_2h (mmm) 
     there are  8 classes
     the character table:

       E     C2    C2'   C2''  i     s_v   s_v'  s_v''
A_g    1.00  1.00  1.00  1.00  1.00  1.00  1.00  1.00
B_1g   1.00  1.00 -1.00 -1.00  1.00  1.00 -1.00 -1.00
B_2g   1.00 -1.00  1.00 -1.00  1.00 -1.00  1.00 -1.00
B_3g   1.00 -1.00 -1.00  1.00  1.00 -1.00 -1.00  1.00
A_u    1.00  1.00  1.00  1.00 -1.00 -1.00 -1.00 -1.00
B_1u   1.00  1.00 -1.00 -1.00 -1.00 -1.00  1.00  1.00
B_2u   1.00 -1.00  1.00 -1.00 -1.00  1.00 -1.00  1.00
B_3u   1.00 -1.00 -1.00  1.00 -1.00  1.00  1.00 -1.00

     the symmetry operations in each class and the name of the first element:

     E        1
          identity                                               
     C2       2
          180 deg rotation - cart. axis [0,0,1]                  
     C2'      4
          180 deg rotation - cart. axis [1,0,0]                  
     C2''     3
          180 deg rotation - cart. axis [0,1,0]                  
     i        5
          inversion                                              
     s_v      6
          inv. 180 deg rotation - cart. axis [0,0,1]             
     s_v'     8
          inv. 180 deg rotation - cart. axis [1,0,0]             
     s_v''    7
          inv. 180 deg rotation - cart. axis [0,1,0]             

   Cartesian axes

     site n.     atom                  positions (alat units)
         1           Se  tau(   1) = (   0.8555000   0.0920405   0.1884916  )
         2           Sn  tau(   2) = (   0.1187000   0.0920405   0.0385728  )
         3           Se  tau(   3) = (   0.6445000   0.2761214   0.3836983  )
         4           Sn  tau(   4) = (   0.3813000   0.2761214   0.2337795  )
         5           Se  tau(   5) = (   0.3555000   0.0920405   0.0067151  )
         6           Sn  tau(   6) = (   0.6187000   0.0920405   0.1566338  )
         7           Se  tau(   7) = (   0.1445000   0.2761214   0.2019218  )
         8           Sn  tau(   8) = (   0.8813000   0.2761214   0.3518405  )

   Crystallographic axes

     site n.     atom                  positions (cryst. coord.)
         1           Se  tau(   1) = (  0.8555000  0.2500000  0.4828000  )
         2           Sn  tau(   2) = (  0.1187000  0.2500000  0.0988000  )
         3           Se  tau(   3) = (  0.6445000  0.7500000  0.9828000  )
         4           Sn  tau(   4) = (  0.3813000  0.7500000  0.5988000  )
         5           Se  tau(   5) = (  0.3555000  0.2500000  0.0172000  )
         6           Sn  tau(   6) = (  0.6187000  0.2500000  0.4012000  )
         7           Se  tau(   7) = (  0.1445000  0.7500000  0.5172000  )
         8           Sn  tau(   8) = (  0.8813000  0.7500000  0.9012000  )

     number of k points=   147
                       cart. coord. in units 2pi/alat
        k(    1) = (   0.0000000   0.0000000   0.0000000), wk =   0.0034722
        k(    2) = (   0.0000000   0.0000000   0.2134490), wk =   0.0069444
        k(    3) = (   0.0000000   0.0000000   0.4268979), wk =   0.0069444
        k(    4) = (   0.0000000   0.0000000   0.6403469), wk =   0.0069444
        k(    5) = (   0.0000000   0.0000000   0.8537959), wk =   0.0069444
        k(    6) = (   0.0000000   0.0000000   1.0672449), wk =   0.0069444
        k(    7) = (   0.0000000   0.0000000  -1.2806938), wk =   0.0034722
        k(    8) = (   0.0000000   0.2263497   0.0000000), wk =   0.0069444
        k(    9) = (   0.0000000   0.2263497   0.2134490), wk =   0.0138889
        k(   10) = (   0.0000000   0.2263497   0.4268979), wk =   0.0138889
        k(   11) = (   0.0000000   0.2263497   0.6403469), wk =   0.0138889
        k(   12) = (   0.0000000   0.2263497   0.8537959), wk =   0.0138889
        k(   13) = (   0.0000000   0.2263497   1.0672449), wk =   0.0138889
        k(   14) = (   0.0000000   0.2263497  -1.2806938), wk =   0.0069444
        k(   15) = (   0.0000000   0.4526995   0.0000000), wk =   0.0069444
        k(   16) = (   0.0000000   0.4526995   0.2134490), wk =   0.0138889
        k(   17) = (   0.0000000   0.4526995   0.4268979), wk =   0.0138889
        k(   18) = (   0.0000000   0.4526995   0.6403469), wk =   0.0138889
        k(   19) = (   0.0000000   0.4526995   0.8537959), wk =   0.0138889
        k(   20) = (   0.0000000   0.4526995   1.0672449), wk =   0.0138889
        k(   21) = (   0.0000000   0.4526995  -1.2806938), wk =   0.0069444
        k(   22) = (   0.0000000   0.6790492   0.0000000), wk =   0.0069444
        k(   23) = (   0.0000000   0.6790492   0.2134490), wk =   0.0138889
        k(   24) = (   0.0000000   0.6790492   0.4268979), wk =   0.0138889
        k(   25) = (   0.0000000   0.6790492   0.6403469), wk =   0.0138889
        k(   26) = (   0.0000000   0.6790492   0.8537959), wk =   0.0138889
        k(   27) = (   0.0000000   0.6790492   1.0672449), wk =   0.0138889
        k(   28) = (   0.0000000   0.6790492  -1.2806938), wk =   0.0069444
        k(   29) = (   0.0000000   0.9053989   0.0000000), wk =   0.0069444
        k(   30) = (   0.0000000   0.9053989   0.2134490), wk =   0.0138889
        k(   31) = (   0.0000000   0.9053989   0.4268979), wk =   0.0138889
        k(   32) = (   0.0000000   0.9053989   0.6403469), wk =   0.0138889
        k(   33) = (   0.0000000   0.9053989   0.8537959), wk =   0.0138889
        k(   34) = (   0.0000000   0.9053989   1.0672449), wk =   0.0138889
        k(   35) = (   0.0000000   0.9053989  -1.2806938), wk =   0.0069444
        k(   36) = (   0.0000000   1.1317487   0.0000000), wk =   0.0069444
        k(   37) = (   0.0000000   1.1317487   0.2134490), wk =   0.0138889
        k(   38) = (   0.0000000   1.1317487   0.4268979), wk =   0.0138889
        k(   39) = (   0.0000000   1.1317487   0.6403469), wk =   0.0138889
        k(   40) = (   0.0000000   1.1317487   0.8537959), wk =   0.0138889
        k(   41) = (   0.0000000   1.1317487   1.0672449), wk =   0.0138889
        k(   42) = (   0.0000000   1.1317487  -1.2806938), wk =   0.0069444
        k(   43) = (   0.0000000  -1.3580984   0.0000000), wk =   0.0034722
        k(   44) = (   0.0000000  -1.3580984   0.2134490), wk =   0.0069444
        k(   45) = (   0.0000000  -1.3580984   0.4268979), wk =   0.0069444
        k(   46) = (   0.0000000  -1.3580984   0.6403469), wk =   0.0069444
        k(   47) = (   0.0000000  -1.3580984   0.8537959), wk =   0.0069444
        k(   48) = (   0.0000000  -1.3580984   1.0672449), wk =   0.0069444
        k(   49) = (   0.0000000  -1.3580984  -1.2806938), wk =   0.0034722
        k(   50) = (   0.2500000   0.0000000   0.0000000), wk =   0.0069444
        k(   51) = (   0.2500000   0.0000000   0.2134490), wk =   0.0138889
        k(   52) = (   0.2500000   0.0000000   0.4268979), wk =   0.0138889
        k(   53) = (   0.2500000   0.0000000   0.6403469), wk =   0.0138889
        k(   54) = (   0.2500000   0.0000000   0.8537959), wk =   0.0138889
        k(   55) = (   0.2500000   0.0000000   1.0672449), wk =   0.0138889
        k(   56) = (   0.2500000   0.0000000  -1.2806938), wk =   0.0069444
        k(   57) = (   0.2500000   0.2263497   0.0000000), wk =   0.0138889
        k(   58) = (   0.2500000   0.2263497   0.2134490), wk =   0.0277778
        k(   59) = (   0.2500000   0.2263497   0.4268979), wk =   0.0277778
        k(   60) = (   0.2500000   0.2263497   0.6403469), wk =   0.0277778
        k(   61) = (   0.2500000   0.2263497   0.8537959), wk =   0.0277778
        k(   62) = (   0.2500000   0.2263497   1.0672449), wk =   0.0277778
        k(   63) = (   0.2500000   0.2263497  -1.2806938), wk =   0.0138889
        k(   64) = (   0.2500000   0.4526995   0.0000000), wk =   0.0138889
        k(   65) = (   0.2500000   0.4526995   0.2134490), wk =   0.0277778
        k(   66) = (   0.2500000   0.4526995   0.4268979), wk =   0.0277778
        k(   67) = (   0.2500000   0.4526995   0.6403469), wk =   0.0277778
        k(   68) = (   0.2500000   0.4526995   0.8537959), wk =   0.0277778
        k(   69) = (   0.2500000   0.4526995   1.0672449), wk =   0.0277778
        k(   70) = (   0.2500000   0.4526995  -1.2806938), wk =   0.0138889
        k(   71) = (   0.2500000   0.6790492   0.0000000), wk =   0.0138889
        k(   72) = (   0.2500000   0.6790492   0.2134490), wk =   0.0277778
        k(   73) = (   0.2500000   0.6790492   0.4268979), wk =   0.0277778
        k(   74) = (   0.2500000   0.6790492   0.6403469), wk =   0.0277778
        k(   75) = (   0.2500000   0.6790492   0.8537959), wk =   0.0277778
        k(   76) = (   0.2500000   0.6790492   1.0672449), wk =   0.0277778
        k(   77) = (   0.2500000   0.6790492  -1.2806938), wk =   0.0138889
        k(   78) = (   0.2500000   0.9053989   0.0000000), wk =   0.0138889
        k(   79) = (   0.2500000   0.9053989   0.2134490), wk =   0.0277778
        k(   80) = (   0.2500000   0.9053989   0.4268979), wk =   0.0277778
        k(   81) = (   0.2500000   0.9053989   0.6403469), wk =   0.0277778
        k(   82) = (   0.2500000   0.9053989   0.8537959), wk =   0.0277778
        k(   83) = (   0.2500000   0.9053989   1.0672449), wk =   0.0277778
        k(   84) = (   0.2500000   0.9053989  -1.2806938), wk =   0.0138889
        k(   85) = (   0.2500000   1.1317487   0.0000000), wk =   0.0138889
        k(   86) = (   0.2500000   1.1317487   0.2134490), wk =   0.0277778
        k(   87) = (   0.2500000   1.1317487   0.4268979), wk =   0.0277778
        k(   88) = (   0.2500000   1.1317487   0.6403469), wk =   0.0277778
        k(   89) = (   0.2500000   1.1317487   0.8537959), wk =   0.0277778
        k(   90) = (   0.2500000   1.1317487   1.0672449), wk =   0.0277778
        k(   91) = (   0.2500000   1.1317487  -1.2806938), wk =   0.0138889
        k(   92) = (   0.2500000  -1.3580984   0.0000000), wk =   0.0069444
        k(   93) = (   0.2500000  -1.3580984   0.2134490), wk =   0.0138889
        k(   94) = (   0.2500000  -1.3580984   0.4268979), wk =   0.0138889
        k(   95) = (   0.2500000  -1.3580984   0.6403469), wk =   0.0138889
        k(   96) = (   0.2500000  -1.3580984   0.8537959), wk =   0.0138889
        k(   97) = (   0.2500000  -1.3580984   1.0672449), wk =   0.0138889
        k(   98) = (   0.2500000  -1.3580984  -1.2806938), wk =   0.0069444
        k(   99) = (  -0.5000000   0.0000000   0.0000000), wk =   0.0034722
        k(  100) = (  -0.5000000   0.0000000   0.2134490), wk =   0.0069444
        k(  101) = (  -0.5000000   0.0000000   0.4268979), wk =   0.0069444
        k(  102) = (  -0.5000000   0.0000000   0.6403469), wk =   0.0069444
        k(  103) = (  -0.5000000   0.0000000   0.8537959), wk =   0.0069444
        k(  104) = (  -0.5000000   0.0000000   1.0672449), wk =   0.0069444
        k(  105) = (  -0.5000000   0.0000000  -1.2806938), wk =   0.0034722
        k(  106) = (  -0.5000000   0.2263497   0.0000000), wk =   0.0069444
        k(  107) = (  -0.5000000   0.2263497   0.2134490), wk =   0.0138889
        k(  108) = (  -0.5000000   0.2263497   0.4268979), wk =   0.0138889
        k(  109) = (  -0.5000000   0.2263497   0.6403469), wk =   0.0138889
        k(  110) = (  -0.5000000   0.2263497   0.8537959), wk =   0.0138889
        k(  111) = (  -0.5000000   0.2263497   1.0672449), wk =   0.0138889
        k(  112) = (  -0.5000000   0.2263497  -1.2806938), wk =   0.0069444
        k(  113) = (  -0.5000000   0.4526995   0.0000000), wk =   0.0069444
        k(  114) = (  -0.5000000   0.4526995   0.2134490), wk =   0.0138889
        k(  115) = (  -0.5000000   0.4526995   0.4268979), wk =   0.0138889
        k(  116) = (  -0.5000000   0.4526995   0.6403469), wk =   0.0138889
        k(  117) = (  -0.5000000   0.4526995   0.8537959), wk =   0.0138889
        k(  118) = (  -0.5000000   0.4526995   1.0672449), wk =   0.0138889
        k(  119) = (  -0.5000000   0.4526995  -1.2806938), wk =   0.0069444
        k(  120) = (  -0.5000000   0.6790492   0.0000000), wk =   0.0069444
        k(  121) = (  -0.5000000   0.6790492   0.2134490), wk =   0.0138889
        k(  122) = (  -0.5000000   0.6790492   0.4268979), wk =   0.0138889
        k(  123) = (  -0.5000000   0.6790492   0.6403469), wk =   0.0138889
        k(  124) = (  -0.5000000   0.6790492   0.8537959), wk =   0.0138889
        k(  125) = (  -0.5000000   0.6790492   1.0672449), wk =   0.0138889
        k(  126) = (  -0.5000000   0.6790492  -1.2806938), wk =   0.0069444
        k(  127) = (  -0.5000000   0.9053989   0.0000000), wk =   0.0069444
        k(  128) = (  -0.5000000   0.9053989   0.2134490), wk =   0.0138889
        k(  129) = (  -0.5000000   0.9053989   0.4268979), wk =   0.0138889
        k(  130) = (  -0.5000000   0.9053989   0.6403469), wk =   0.0138889
        k(  131) = (  -0.5000000   0.9053989   0.8537959), wk =   0.0138889
        k(  132) = (  -0.5000000   0.9053989   1.0672449), wk =   0.0138889
        k(  133) = (  -0.5000000   0.9053989  -1.2806938), wk =   0.0069444
        k(  134) = (  -0.5000000   1.1317487   0.0000000), wk =   0.0069444
        k(  135) = (  -0.5000000   1.1317487   0.2134490), wk =   0.0138889
        k(  136) = (  -0.5000000   1.1317487   0.4268979), wk =   0.0138889
        k(  137) = (  -0.5000000   1.1317487   0.6403469), wk =   0.0138889
        k(  138) = (  -0.5000000   1.1317487   0.8537959), wk =   0.0138889
        k(  139) = (  -0.5000000   1.1317487   1.0672449), wk =   0.0138889
        k(  140) = (  -0.5000000   1.1317487  -1.2806938), wk =   0.0069444
        k(  141) = (  -0.5000000  -1.3580984   0.0000000), wk =   0.0034722
        k(  142) = (  -0.5000000  -1.3580984   0.2134490), wk =   0.0069444
        k(  143) = (  -0.5000000  -1.3580984   0.4268979), wk =   0.0069444
        k(  144) = (  -0.5000000  -1.3580984   0.6403469), wk =   0.0069444
        k(  145) = (  -0.5000000  -1.3580984   0.8537959), wk =   0.0069444
        k(  146) = (  -0.5000000  -1.3580984   1.0672449), wk =   0.0069444
        k(  147) = (  -0.5000000  -1.3580984  -1.2806938), wk =   0.0034722

                       cryst. coord.
        k(    1) = (   0.0000000   0.0000000   0.0000000), wk =   0.0034722
        k(    2) = (   0.0000000   0.0000000   0.0833333), wk =   0.0069444
        k(    3) = (   0.0000000   0.0000000   0.1666667), wk =   0.0069444
        k(    4) = (   0.0000000   0.0000000   0.2500000), wk =   0.0069444
        k(    5) = (   0.0000000   0.0000000   0.3333333), wk =   0.0069444
        k(    6) = (   0.0000000   0.0000000   0.4166667), wk =   0.0069444
        k(    7) = (   0.0000000   0.0000000  -0.5000000), wk =   0.0034722
        k(    8) = (   0.0000000   0.0833333   0.0000000), wk =   0.0069444
        k(    9) = (   0.0000000   0.0833333   0.0833333), wk =   0.0138889
        k(   10) = (   0.0000000   0.0833333   0.1666667), wk =   0.0138889
        k(   11) = (   0.0000000   0.0833333   0.2500000), wk =   0.0138889
        k(   12) = (   0.0000000   0.0833333   0.3333333), wk =   0.0138889
        k(   13) = (   0.0000000   0.0833333   0.4166667), wk =   0.0138889
        k(   14) = (   0.0000000   0.0833333  -0.5000000), wk =   0.0069444
        k(   15) = (   0.0000000   0.1666667   0.0000000), wk =   0.0069444
        k(   16) = (   0.0000000   0.1666667   0.0833333), wk =   0.0138889
        k(   17) = (   0.0000000   0.1666667   0.1666667), wk =   0.0138889
        k(   18) = (   0.0000000   0.1666667   0.2500000), wk =   0.0138889
        k(   19) = (   0.0000000   0.1666667   0.3333333), wk =   0.0138889
        k(   20) = (   0.0000000   0.1666667   0.4166667), wk =   0.0138889
        k(   21) = (   0.0000000   0.1666667  -0.5000000), wk =   0.0069444
        k(   22) = (   0.0000000   0.2500000   0.0000000), wk =   0.0069444
        k(   23) = (   0.0000000   0.2500000   0.0833333), wk =   0.0138889
        k(   24) = (   0.0000000   0.2500000   0.1666667), wk =   0.0138889
        k(   25) = (   0.0000000   0.2500000   0.2500000), wk =   0.0138889
        k(   26) = (   0.0000000   0.2500000   0.3333333), wk =   0.0138889
        k(   27) = (   0.0000000   0.2500000   0.4166667), wk =   0.0138889
        k(   28) = (   0.0000000   0.2500000  -0.5000000), wk =   0.0069444
        k(   29) = (   0.0000000   0.3333333   0.0000000), wk =   0.0069444
        k(   30) = (   0.0000000   0.3333333   0.0833333), wk =   0.0138889
        k(   31) = (   0.0000000   0.3333333   0.1666667), wk =   0.0138889
        k(   32) = (   0.0000000   0.3333333   0.2500000), wk =   0.0138889
        k(   33) = (   0.0000000   0.3333333   0.3333333), wk =   0.0138889
        k(   34) = (   0.0000000   0.3333333   0.4166667), wk =   0.0138889
        k(   35) = (   0.0000000   0.3333333  -0.5000000), wk =   0.0069444
        k(   36) = (   0.0000000   0.4166667   0.0000000), wk =   0.0069444
        k(   37) = (   0.0000000   0.4166667   0.0833333), wk =   0.0138889
        k(   38) = (   0.0000000   0.4166667   0.1666667), wk =   0.0138889
        k(   39) = (   0.0000000   0.4166667   0.2500000), wk =   0.0138889
        k(   40) = (   0.0000000   0.4166667   0.3333333), wk =   0.0138889
        k(   41) = (   0.0000000   0.4166667   0.4166667), wk =   0.0138889
        k(   42) = (   0.0000000   0.4166667  -0.5000000), wk =   0.0069444
        k(   43) = (   0.0000000  -0.5000000   0.0000000), wk =   0.0034722
        k(   44) = (   0.0000000  -0.5000000   0.0833333), wk =   0.0069444
        k(   45) = (   0.0000000  -0.5000000   0.1666667), wk =   0.0069444
        k(   46) = (   0.0000000  -0.5000000   0.2500000), wk =   0.0069444
        k(   47) = (   0.0000000  -0.5000000   0.3333333), wk =   0.0069444
        k(   48) = (   0.0000000  -0.5000000   0.4166667), wk =   0.0069444
        k(   49) = (   0.0000000  -0.5000000  -0.5000000), wk =   0.0034722
        k(   50) = (   0.2500000   0.0000000   0.0000000), wk =   0.0069444
        k(   51) = (   0.2500000   0.0000000   0.0833333), wk =   0.0138889
        k(   52) = (   0.2500000   0.0000000   0.1666667), wk =   0.0138889
        k(   53) = (   0.2500000   0.0000000   0.2500000), wk =   0.0138889
        k(   54) = (   0.2500000   0.0000000   0.3333333), wk =   0.0138889
        k(   55) = (   0.2500000   0.0000000   0.4166667), wk =   0.0138889
        k(   56) = (   0.2500000   0.0000000  -0.5000000), wk =   0.0069444
        k(   57) = (   0.2500000   0.0833333   0.0000000), wk =   0.0138889
        k(   58) = (   0.2500000   0.0833333   0.0833333), wk =   0.0277778
        k(   59) = (   0.2500000   0.0833333   0.1666667), wk =   0.0277778
        k(   60) = (   0.2500000   0.0833333   0.2500000), wk =   0.0277778
        k(   61) = (   0.2500000   0.0833333   0.3333333), wk =   0.0277778
        k(   62) = (   0.2500000   0.0833333   0.4166667), wk =   0.0277778
        k(   63) = (   0.2500000   0.0833333  -0.5000000), wk =   0.0138889
        k(   64) = (   0.2500000   0.1666667   0.0000000), wk =   0.0138889
        k(   65) = (   0.2500000   0.1666667   0.0833333), wk =   0.0277778
        k(   66) = (   0.2500000   0.1666667   0.1666667), wk =   0.0277778
        k(   67) = (   0.2500000   0.1666667   0.2500000), wk =   0.0277778
        k(   68) = (   0.2500000   0.1666667   0.3333333), wk =   0.0277778
        k(   69) = (   0.2500000   0.1666667   0.4166667), wk =   0.0277778
        k(   70) = (   0.2500000   0.1666667  -0.5000000), wk =   0.0138889
        k(   71) = (   0.2500000   0.2500000   0.0000000), wk =   0.0138889
        k(   72) = (   0.2500000   0.2500000   0.0833333), wk =   0.0277778
        k(   73) = (   0.2500000   0.2500000   0.1666667), wk =   0.0277778
        k(   74) = (   0.2500000   0.2500000   0.2500000), wk =   0.0277778
        k(   75) = (   0.2500000   0.2500000   0.3333333), wk =   0.0277778
        k(   76) = (   0.2500000   0.2500000   0.4166667), wk =   0.0277778
        k(   77) = (   0.2500000   0.2500000  -0.5000000), wk =   0.0138889
        k(   78) = (   0.2500000   0.3333333   0.0000000), wk =   0.0138889
        k(   79) = (   0.2500000   0.3333333   0.0833333), wk =   0.0277778
        k(   80) = (   0.2500000   0.3333333   0.1666667), wk =   0.0277778
        k(   81) = (   0.2500000   0.3333333   0.2500000), wk =   0.0277778
        k(   82) = (   0.2500000   0.3333333   0.3333333), wk =   0.0277778
        k(   83) = (   0.2500000   0.3333333   0.4166667), wk =   0.0277778
        k(   84) = (   0.2500000   0.3333333  -0.5000000), wk =   0.0138889
        k(   85) = (   0.2500000   0.4166667   0.0000000), wk =   0.0138889
        k(   86) = (   0.2500000   0.4166667   0.0833333), wk =   0.0277778
        k(   87) = (   0.2500000   0.4166667   0.1666667), wk =   0.0277778
        k(   88) = (   0.2500000   0.4166667   0.2500000), wk =   0.0277778
        k(   89) = (   0.2500000   0.4166667   0.3333333), wk =   0.0277778
        k(   90) = (   0.2500000   0.4166667   0.4166667), wk =   0.0277778
        k(   91) = (   0.2500000   0.4166667  -0.5000000), wk =   0.0138889
        k(   92) = (   0.2500000  -0.5000000   0.0000000), wk =   0.0069444
        k(   93) = (   0.2500000  -0.5000000   0.0833333), wk =   0.0138889
        k(   94) = (   0.2500000  -0.5000000   0.1666667), wk =   0.0138889
        k(   95) = (   0.2500000  -0.5000000   0.2500000), wk =   0.0138889
        k(   96) = (   0.2500000  -0.5000000   0.3333333), wk =   0.0138889
        k(   97) = (   0.2500000  -0.5000000   0.4166667), wk =   0.0138889
        k(   98) = (   0.2500000  -0.5000000  -0.5000000), wk =   0.0069444
        k(   99) = (  -0.5000000   0.0000000   0.0000000), wk =   0.0034722
        k(  100) = (  -0.5000000   0.0000000   0.0833333), wk =   0.0069444
        k(  101) = (  -0.5000000   0.0000000   0.1666667), wk =   0.0069444
        k(  102) = (  -0.5000000   0.0000000   0.2500000), wk =   0.0069444
        k(  103) = (  -0.5000000   0.0000000   0.3333333), wk =   0.0069444
        k(  104) = (  -0.5000000   0.0000000   0.4166667), wk =   0.0069444
        k(  105) = (  -0.5000000   0.0000000  -0.5000000), wk =   0.0034722
        k(  106) = (  -0.5000000   0.0833333   0.0000000), wk =   0.0069444
        k(  107) = (  -0.5000000   0.0833333   0.0833333), wk =   0.0138889
        k(  108) = (  -0.5000000   0.0833333   0.1666667), wk =   0.0138889
        k(  109) = (  -0.5000000   0.0833333   0.2500000), wk =   0.0138889
        k(  110) = (  -0.5000000   0.0833333   0.3333333), wk =   0.0138889
        k(  111) = (  -0.5000000   0.0833333   0.4166667), wk =   0.0138889
        k(  112) = (  -0.5000000   0.0833333  -0.5000000), wk =   0.0069444
        k(  113) = (  -0.5000000   0.1666667   0.0000000), wk =   0.0069444
        k(  114) = (  -0.5000000   0.1666667   0.0833333), wk =   0.0138889
        k(  115) = (  -0.5000000   0.1666667   0.1666667), wk =   0.0138889
        k(  116) = (  -0.5000000   0.1666667   0.2500000), wk =   0.0138889
        k(  117) = (  -0.5000000   0.1666667   0.3333333), wk =   0.0138889
        k(  118) = (  -0.5000000   0.1666667   0.4166667), wk =   0.0138889
        k(  119) = (  -0.5000000   0.1666667  -0.5000000), wk =   0.0069444
        k(  120) = (  -0.5000000   0.2500000   0.0000000), wk =   0.0069444
        k(  121) = (  -0.5000000   0.2500000   0.0833333), wk =   0.0138889
        k(  122) = (  -0.5000000   0.2500000   0.1666667), wk =   0.0138889
        k(  123) = (  -0.5000000   0.2500000   0.2500000), wk =   0.0138889
        k(  124) = (  -0.5000000   0.2500000   0.3333333), wk =   0.0138889
        k(  125) = (  -0.5000000   0.2500000   0.4166667), wk =   0.0138889
        k(  126) = (  -0.5000000   0.2500000  -0.5000000), wk =   0.0069444
        k(  127) = (  -0.5000000   0.3333333   0.0000000), wk =   0.0069444
        k(  128) = (  -0.5000000   0.3333333   0.0833333), wk =   0.0138889
        k(  129) = (  -0.5000000   0.3333333   0.1666667), wk =   0.0138889
        k(  130) = (  -0.5000000   0.3333333   0.2500000), wk =   0.0138889
        k(  131) = (  -0.5000000   0.3333333   0.3333333), wk =   0.0138889
        k(  132) = (  -0.5000000   0.3333333   0.4166667), wk =   0.0138889
        k(  133) = (  -0.5000000   0.3333333  -0.5000000), wk =   0.0069444
        k(  134) = (  -0.5000000   0.4166667   0.0000000), wk =   0.0069444
        k(  135) = (  -0.5000000   0.4166667   0.0833333), wk =   0.0138889
        k(  136) = (  -0.5000000   0.4166667   0.1666667), wk =   0.0138889
        k(  137) = (  -0.5000000   0.4166667   0.2500000), wk =   0.0138889
        k(  138) = (  -0.5000000   0.4166667   0.3333333), wk =   0.0138889
        k(  139) = (  -0.5000000   0.4166667   0.4166667), wk =   0.0138889
        k(  140) = (  -0.5000000   0.4166667  -0.5000000), wk =   0.0069444
        k(  141) = (  -0.5000000  -0.5000000   0.0000000), wk =   0.0034722
        k(  142) = (  -0.5000000  -0.5000000   0.0833333), wk =   0.0069444
        k(  143) = (  -0.5000000  -0.5000000   0.1666667), wk =   0.0069444
        k(  144) = (  -0.5000000  -0.5000000   0.2500000), wk =   0.0069444
        k(  145) = (  -0.5000000  -0.5000000   0.3333333), wk =   0.0069444
        k(  146) = (  -0.5000000  -0.5000000   0.4166667), wk =   0.0069444
        k(  147) = (  -0.5000000  -0.5000000  -0.5000000), wk =   0.0034722

     Dense  grid:   269075 G-vectors     FFT dimensions: ( 160,  60,  60)

     Smooth grid:    68055 G-vectors     FFT dimensions: ( 100,  36,  40)

     Dynamical RAM for                 wfc:       6.49 MB

     Dynamical RAM for     wfc (w. buffer):     168.85 MB

     Dynamical RAM for           str. fact:       8.21 MB

     Dynamical RAM for           local pot:       0.00 MB

     Dynamical RAM for          nlocal pot:      18.70 MB

     Dynamical RAM for                qrad:       3.59 MB

     Dynamical RAM for          rho,v,vnew:      25.50 MB

     Dynamical RAM for               rhoin:       8.50 MB

     Dynamical RAM for            rho*nmix:      65.69 MB

     Dynamical RAM for           G-vectors:      15.92 MB

     Dynamical RAM for          h,s,v(r/c):       0.46 MB

     Dynamical RAM for          <psi|beta>:       0.11 MB

     Dynamical RAM for                 psi:      12.99 MB

     Dynamical RAM for                hpsi:      12.99 MB

     Dynamical RAM for                spsi:      12.99 MB

     Dynamical RAM for      wfcinit/wfcrot:      13.57 MB

     Dynamical RAM for           addusdens:     133.43 MB

     Dynamical RAM for          addusforce:     136.19 MB

     Estimated static dynamical RAM per process >     349.25 MB

     Estimated max dynamical RAM per process >     485.44 MB

     Estimated total dynamical RAM >       2.84 GB

     Initial potential from superposition of free atoms

     starting charge   75.99954, renormalised to   80.00000
     Starting wfcs are   52 randomized atomic wfcs

     total cpu time spent up to now is       29.2 secs

     Self-consistent Calculation

     iteration #  1     ecut=    50.00 Ry     beta= 0.70
     Davidson diagonalization with overlap
     ethr =  1.00E-02,  avg # of iterations =  3.8

     total cpu time spent up to now is      128.7 secs

     total energy              =    -826.55272978 Ry
     estimated scf accuracy    <       2.63051363 Ry

     iteration #  2     ecut=    50.00 Ry     beta= 0.70
     Davidson diagonalization with overlap
     ethr =  3.29E-03,  avg # of iterations =  2.0

     total cpu time spent up to now is      212.0 secs

     total energy              =    -827.33881789 Ry
     estimated scf accuracy    <       1.08788689 Ry

     iteration #  3     ecut=    50.00 Ry     beta= 0.70
     Davidson diagonalization with overlap
     ethr =  1.36E-03,  avg # of iterations =  2.0

     total cpu time spent up to now is      290.4 secs

     total energy              =    -827.60918312 Ry
     estimated scf accuracy    <       0.06100957 Ry

     iteration #  4     ecut=    50.00 Ry     beta= 0.70
     Davidson diagonalization with overlap
     ethr =  7.63E-05,  avg # of iterations =  3.3

     total cpu time spent up to now is      373.5 secs

     total energy              =    -827.62028711 Ry
     estimated scf accuracy    <       0.00293042 Ry

     iteration #  5     ecut=    50.00 Ry     beta= 0.70
     Davidson diagonalization with overlap
     ethr =  3.66E-06,  avg # of iterations =  6.1

     total cpu time spent up to now is      473.3 secs

     total energy              =    -827.62093651 Ry
     estimated scf accuracy    <       0.00081026 Ry

     iteration #  6     ecut=    50.00 Ry     beta= 0.70
     Davidson diagonalization with overlap
     ethr =  1.01E-06,  avg # of iterations =  2.1

     total cpu time spent up to now is      548.7 secs

     total energy              =    -827.62111187 Ry
     estimated scf accuracy    <       0.00004472 Ry

     iteration #  7     ecut=    50.00 Ry     beta= 0.70
     Davidson diagonalization with overlap
     ethr =  5.59E-08,  avg # of iterations =  5.0

     total cpu time spent up to now is      668.2 secs

     total energy              =    -827.62113998 Ry
     estimated scf accuracy    <       0.00000263 Ry

     iteration #  8     ecut=    50.00 Ry     beta= 0.70
     Davidson diagonalization with overlap
     ethr =  3.28E-09,  avg # of iterations =  3.6

     total cpu time spent up to now is      768.6 secs

     total energy              =    -827.62114109 Ry
     estimated scf accuracy    <       0.00000044 Ry

     iteration #  9     ecut=    50.00 Ry     beta= 0.70
     Davidson diagonalization with overlap
     ethr =  5.46E-10,  avg # of iterations =  3.0

     total cpu time spent up to now is      868.6 secs

     End of self-consistent calculation

          k = 0.0000 0.0000 0.0000 (  8475 PWs)   bands (ev):

   -13.2664 -13.2551 -13.2517 -13.2494 -13.2493 -13.2453 -13.2426 -13.2382
   -13.2346 -13.2332 -13.2328 -13.2255 -13.2182 -13.2112 -13.1971 -13.1925
   -13.1872 -13.1839 -13.1756 -13.1664  -5.7488  -5.3986  -4.6625  -4.1627
     0.8107   1.9491   2.5389   3.0741   3.2285   4.6620   4.7018   4.7760
     5.1807   5.2371   5.8089   6.3103   6.5336   6.9879   7.3973   7.5667
     8.8498  10.9496  11.0985  11.1318  11.3563  11.4509  12.3331  12.6291
    12.7032  12.7420

     occupation numbers 
     1.0000   1.0000   1.0000   1.0000   1.0000   1.0000   1.0000   1.0000
     1.0000   1.0000   1.0000   1.0000   1.0000   1.0000   1.0000   1.0000
     1.0000   1.0000   1.0000   1.0000   1.0000   1.0000   1.0000   1.0000
     1.0000   1.0000   1.0000   1.0000   1.0000   1.0000   1.0000   1.0000
     1.0000   1.0000   1.0000   1.0000   1.0000   1.0000   1.0000   1.0000
     0.0000   0.0000   0.0000   0.0000   0.0000   0.0000   0.0000   0.0000
     0.0000   0.0000

          k = 0.0000 0.0000 0.2134 (  8509 PWs)   bands (ev):

   -13.2660 -13.2547 -13.2518 -13.2498 -13.2491 -13.2459 -13.2428 -13.2385
   -13.2344 -13.2329 -13.2317 -13.2256 -13.2180 -13.2115 -13.1972 -13.1923
   -13.1875 -13.1841 -13.1755 -13.1665  -5.7187  -5.3711  -4.6577  -4.1698
     0.7023   1.8833   2.3960   2.9153   3.2176   4.6830   4.7078   4.9847
     5.2222   5.4716   5.8401   6.3330   6.5500   7.1232   7.3060   7.5889
     8.8673  10.6694  11.1170  11.2310  11.2406  11.3121  12.4018  12.4267
    12.5174  12.6786

     occupation numbers 
     1.0000   1.0000   1.0000   1.0000   1.0000   1.0000   1.0000   1.0000
     1.0000   1.0000   1.0000   1.0000   1.0000   1.0000   1.0000   1.0000
     1.0000   1.0000   1.0000   1.0000   1.0000   1.0000   1.0000   1.0000
     1.0000   1.0000   1.0000   1.0000   1.0000   1.0000   1.0000   1.0000
     1.0000   1.0000   1.0000   1.0000   1.0000   1.0000   1.0000   1.0000
     0.0000   0.0000   0.0000   0.0000   0.0000   0.0000   0.0000   0.0000
     0.0000   0.0000

          k = 0.0000 0.0000 0.4269 (  8495 PWs)   bands (ev):

   -13.2648 -13.2536 -13.2519 -13.2508 -13.2485 -13.2473 -13.2432 -13.2392
   -13.2338 -13.2313 -13.2293 -13.2258 -13.2175 -13.2120 -13.1973 -13.1918
   -13.1883 -13.1847 -13.1749 -13.1669  -5.6307  -5.2904  -4.6490  -4.1946
     0.4463   1.7110   1.9306   2.6876   3.2143   4.8173   4.8427   5.3350
     5.3438   5.9042   5.9255   6.5169   6.5897   7.0966   7.4465   7.5837
     8.9716  10.0929  10.7261  10.9018  11.1402  11.4565  11.9010  12.0703
    12.5309  12.7674

     occupation numbers 
     1.0000   1.0000   1.0000   1.0000   1.0000   1.0000   1.0000   1.0000
     1.0000   1.0000   1.0000   1.0000   1.0000   1.0000   1.0000   1.0000
     1.0000   1.0000   1.0000   1.0000   1.0000   1.0000   1.0000   1.0000
     1.0000   1.0000   1.0000   1.0000   1.0000   1.0000   1.0000   1.0000
     1.0000   1.0000   1.0000   1.0000   1.0000   1.0000   1.0000   1.0000
     0.0000   0.0000   0.0000   0.0000   0.0000   0.0000   0.0000   0.0000
     0.0000   0.0000

          k = 0.0000 0.0000 0.6403 (  8491 PWs)   bands (ev):

   -13.2631 -13.2523 -13.2522 -13.2520 -13.2493 -13.2478 -13.2438 -13.2405
   -13.2328 -13.2286 -13.2263 -13.2262 -13.2169 -13.2129 -13.1971 -13.1910
   -13.1895 -13.1854 -13.1741 -13.1676  -5.4919  -5.1629  -4.6531  -4.2462
     0.1701   1.3525   1.5097   2.3514   3.3690   5.0027   5.0582   5.5363
     5.7224   6.0376   6.1776   6.6232   6.8776   7.0106   7.5214   7.8388
     9.2170   9.4499  10.1732  10.2269  10.9505  11.2349  11.4551  11.5827
    12.6064  12.7495

     occupation numbers 
     1.0000   1.0000   1.0000   1.0000   1.0000   1.0000   1.0000   1.0000
     1.0000   1.0000   1.0000   1.0000   1.0000   1.0000   1.0000   1.0000
     1.0000   1.0000   1.0000   1.0000   1.0000   1.0000   1.0000   1.0000
     1.0000   1.0000   1.0000   1.0000   1.0000   1.0000   1.0000   1.0000
     1.0000   1.0000   1.0000   1.0000   1.0000   1.0000   1.0000   1.0000
     0.0000   0.0000   0.0000   0.0000   0.0000   0.0000   0.0000   0.0000
     0.0000   0.0000

          k = 0.0000 0.0000 0.8538 (  8495 PWs)   bands (ev):

   -13.2609 -13.2532 -13.2531 -13.2513 -13.2507 -13.2474 -13.2442 -13.2419
   -13.2316 -13.2270 -13.2251 -13.2231 -13.2167 -13.2141 -13.1964 -13.1909
   -13.1901 -13.1863 -13.1731 -13.1686  -5.3152  -4.9993  -4.6927  -4.3348
    -0.0227   0.8102   1.3653   1.9820   3.6418   5.0218   5.3367   5.7818
     6.1131   6.1217   6.3690   6.6057   6.8437   7.4391   7.5913   8.0983
     8.9966   9.5562   9.5820   9.7395  10.4709  10.5770  11.0908  11.2246
    11.9933  12.1202

     occupation numbers 
     1.0000   1.0000   1.0000   1.0000   1.0000   1.0000   1.0000   1.0000
     1.0000   1.0000   1.0000   1.0000   1.0000   1.0000   1.0000   1.0000
     1.0000   1.0000   1.0000   1.0000   1.0000   1.0000   1.0000   1.0000
     1.0000   1.0000   1.0000   1.0000   1.0000   1.0000   1.0000   1.0000
     1.0000   1.0000   1.0000   1.0000   1.0000   1.0000   1.0000   1.0000
     0.0000   0.0000   0.0000   0.0000   0.0000   0.0000   0.0000   0.0000
     0.0000   0.0000

          k = 0.0000 0.0000 1.0672 (  8475 PWs)   bands (ev):

   -13.2586 -13.2545 -13.2537 -13.2529 -13.2493 -13.2475 -13.2443 -13.2431
   -13.2303 -13.2279 -13.2216 -13.2203 -13.2172 -13.2158 -13.1954 -13.1924
   -13.1891 -13.1873 -13.1720 -13.1697  -5.1208  -4.8153  -4.7863  -4.4649
    -0.0663   0.3676   1.3331   1.6597   3.9928   4.7717   5.6457   6.0513
     6.1003   6.4993   6.5063   6.5512   6.9924   7.4780   7.7340   8.0155
     9.0336   9.3232   9.5469   9.8768   9.9760  10.0224  10.6183  11.0954
    11.3429  11.5884

     occupation numbers 
     1.0000   1.0000   1.0000   1.0000   1.0000   1.0000   1.0000   1.0000
     1.0000   1.0000   1.0000   1.0000   1.0000   1.0000   1.0000   1.0000
     1.0000   1.0000   1.0000   1.0000   1.0000   1.0000   1.0000   1.0000
     1.0000   1.0000   1.0000   1.0000   1.0000   1.0000   1.0000   1.0000
     1.0000   1.0000   1.0000   1.0000   1.0000   1.0000   1.0000   1.0000
     0.0000   0.0000   0.0000   0.0000   0.0000   0.0000   0.0000   0.0000
     0.0000   0.0000

          k = 0.0000 0.0000-1.2807 (  8454 PWs)   bands (ev):

   -13.2563 -13.2563 -13.2537 -13.2537 -13.2482 -13.2482 -13.2440 -13.2440
   -13.2290 -13.2290 -13.2187 -13.2187 -13.2179 -13.2179 -13.1939 -13.1939
   -13.1882 -13.1882 -13.1708 -13.1708  -4.9351  -4.9351  -4.6304  -4.6304
     0.0661   0.0661   1.4338   1.4338   4.3884   4.3884   5.9272   5.9272
     6.3044   6.3044   6.6769   6.6769   7.2593   7.2593   7.7967   7.7967
     9.3213   9.3213   9.6526   9.6526   9.7890   9.7890  10.7606  10.7606
    11.2266  11.2266

     occupation numbers 
     1.0000   1.0000   1.0000   1.0000   1.0000   1.0000   1.0000   1.0000
     1.0000   1.0000   1.0000   1.0000   1.0000   1.0000   1.0000   1.0000
     1.0000   1.0000   1.0000   1.0000   1.0000   1.0000   1.0000   1.0000
     1.0000   1.0000   1.0000   1.0000   1.0000   1.0000   1.0000   1.0000
     1.0000   1.0000   1.0000   1.0000   1.0000   1.0000   1.0000   1.0000
     0.0000   0.0000   0.0000   0.0000   0.0000   0.0000   0.0000   0.0000
     0.0000   0.0000

          k = 0.0000 0.2263 0.0000 (  8495 PWs)   bands (ev):

   -13.2648 -13.2543 -13.2504 -13.2500 -13.2486 -13.2467 -13.2437 -13.2389
   -13.2359 -13.2319 -13.2313 -13.2267 -13.2170 -13.2115 -13.1963 -13.1929
   -13.1867 -13.1847 -13.1757 -13.1669  -5.7111  -5.3665  -4.6455  -4.1638
     0.7564   1.8351   2.5124   2.8556   3.2109   4.5899   4.8228   4.8726
     5.1681   5.2786   5.9144   6.3317   6.5233   7.1044   7.4031   7.5355
     8.9109  10.7999  10.9896  11.2405  11.2420  11.4740  12.1575  12.3755
    12.5140  12.8588

     occupation numbers 
     1.0000   1.0000   1.0000   1.0000   1.0000   1.0000   1.0000   1.0000
     1.0000   1.0000   1.0000   1.0000   1.0000   1.0000   1.0000   1.0000
     1.0000   1.0000   1.0000   1.0000   1.0000   1.0000   1.0000   1.0000
     1.0000   1.0000   1.0000   1.0000   1.0000   1.0000   1.0000   1.0000
     1.0000   1.0000   1.0000   1.0000   1.0000   1.0000   1.0000   1.0000
     0.0000   0.0000   0.0000   0.0000   0.0000   0.0000   0.0000   0.0000
     0.0000   0.0000

          k = 0.0000 0.2263 0.2134 (  8489 PWs)   bands (ev):

   -13.2644 -13.2539 -13.2506 -13.2503 -13.2484 -13.2471 -13.2439 -13.2394
   -13.2358 -13.2311 -13.2306 -13.2268 -13.2169 -13.2116 -13.1964 -13.1927
   -13.1870 -13.1849 -13.1755 -13.1671  -5.6813  -5.3392  -4.6406  -4.1703
     0.6641   1.7914   2.3591   2.7722   3.1968   4.5186   4.6514   5.1683
     5.3566   5.4408   5.8381   6.3809   6.5797   7.2655   7.3118   7.5649
     8.9305  10.4689  11.0312  11.1511  11.1939  11.3365  11.9750  12.3409
    12.5335  12.9353

     occupation numbers 
     1.0000   1.0000   1.0000   1.0000   1.0000   1.0000   1.0000   1.0000
     1.0000   1.0000   1.0000   1.0000   1.0000   1.0000   1.0000   1.0000
     1.0000   1.0000   1.0000   1.0000   1.0000   1.0000   1.0000   1.0000
     1.0000   1.0000   1.0000   1.0000   1.0000   1.0000   1.0000   1.0000
     1.0000   1.0000   1.0000   1.0000   1.0000   1.0000   1.0000   1.0000
     0.0000   0.0000   0.0000   0.0000   0.0000   0.0000   0.0000   0.0000
     0.0000   0.0000

          k = 0.0000 0.2263 0.4269 (  8504 PWs)   bands (ev):

   -13.2635 -13.2530 -13.2515 -13.2505 -13.2481 -13.2478 -13.2444 -13.2406
   -13.2351 -13.2292 -13.2286 -13.2270 -13.2166 -13.2120 -13.1965 -13.1921
   -13.1878 -13.1854 -13.1750 -13.1675  -5.5941  -5.2595  -4.6318  -4.1933
     0.4402   1.6678   1.9151   2.5883   3.2408   4.4668   4.6253   5.5346
     5.7156   5.7362   5.7737   6.3908   6.8662   7.1242   7.5735   7.5784
     9.0358   9.9703  10.3323  10.8650  11.1385  11.4865  11.7877  11.9909
    12.5671  12.9206

     occupation numbers 
     1.0000   1.0000   1.0000   1.0000   1.0000   1.0000   1.0000   1.0000
     1.0000   1.0000   1.0000   1.0000   1.0000   1.0000   1.0000   1.0000
     1.0000   1.0000   1.0000   1.0000   1.0000   1.0000   1.0000   1.0000
     1.0000   1.0000   1.0000   1.0000   1.0000   1.0000   1.0000   1.0000
     1.0000   1.0000   1.0000   1.0000   1.0000   1.0000   1.0000   1.0000
     0.0000   0.0000   0.0000   0.0000   0.0000   0.0000   0.0000   0.0000
     0.0000   0.0000

          k = 0.0000 0.2263 0.6403 (  8500 PWs)   bands (ev):

   -13.2619 -13.2530 -13.2521 -13.2508 -13.2491 -13.2471 -13.2450 -13.2421
   -13.2340 -13.2274 -13.2266 -13.2256 -13.2163 -13.2126 -13.1964 -13.1914
   -13.1889 -13.1862 -13.1743 -13.1682  -5.4567  -5.1337  -4.6351  -4.2420
     0.1916   1.3654   1.5094   2.3007   3.4102   4.5567   4.7081   5.7525
     5.8023   6.0350   6.0886   6.3909   6.9771   7.2490   7.5481   7.8243
     9.2682   9.5798   9.7001  10.2561  10.8814  11.2366  11.5037  11.8269
    12.5735  12.7153

     occupation numbers 
     1.0000   1.0000   1.0000   1.0000   1.0000   1.0000   1.0000   1.0000
     1.0000   1.0000   1.0000   1.0000   1.0000   1.0000   1.0000   1.0000
     1.0000   1.0000   1.0000   1.0000   1.0000   1.0000   1.0000   1.0000
     1.0000   1.0000   1.0000   1.0000   1.0000   1.0000   1.0000   1.0000
     1.0000   1.0000   1.0000   1.0000   1.0000   1.0000   1.0000   1.0000
     0.0000   0.0000   0.0000   0.0000   0.0000   0.0000   0.0000   0.0000
     0.0000   0.0000

          k = 0.0000 0.2263 0.8538 (  8501 PWs)   bands (ev):

   -13.2601 -13.2544 -13.2523 -13.2514 -13.2491 -13.2469 -13.2453 -13.2436
   -13.2326 -13.2280 -13.2236 -13.2224 -13.2163 -13.2135 -13.1957 -13.1905
   -13.1903 -13.1870 -13.1733 -13.1690  -5.2824  -4.9727  -4.6731  -4.3264
     0.0162   0.8415   1.3894   1.9717   3.6806   4.7194   4.8680   5.7752
     5.8106   6.1666   6.3944   6.4688   7.0320   7.5205   7.5496   7.8917
     9.2864   9.4712   9.5531   9.6807  10.5017  10.7647  11.1388  11.5547
    12.2404  12.3988

     occupation numbers 
     1.0000   1.0000   1.0000   1.0000   1.0000   1.0000   1.0000   1.0000
     1.0000   1.0000   1.0000   1.0000   1.0000   1.0000   1.0000   1.0000
     1.0000   1.0000   1.0000   1.0000   1.0000   1.0000   1.0000   1.0000
     1.0000   1.0000   1.0000   1.0000   1.0000   1.0000   1.0000   1.0000
     1.0000   1.0000   1.0000   1.0000   1.0000   1.0000   1.0000   1.0000
     0.0000   0.0000   0.0000   0.0000   0.0000   0.0000   0.0000   0.0000
     0.0000   0.0000

          k = 0.0000 0.2263 1.0672 (  8502 PWs)   bands (ev):

   -13.2583 -13.2557 -13.2529 -13.2522 -13.2482 -13.2471 -13.2455 -13.2448
   -13.2313 -13.2289 -13.2206 -13.2195 -13.2169 -13.2149 -13.1947 -13.1918
   -13.1896 -13.1878 -13.1722 -13.1700  -5.0910  -4.7923  -4.7638  -4.4515
    -0.0196   0.4098   1.3655   1.6750   4.0198   4.6766   5.1630   5.7359
     5.7766   6.0566   6.4902   6.6775   7.2385   7.6081   7.6331   7.8101
     9.1724   9.2616   9.4684   9.6899  10.2988  10.5462  11.0524  11.0892
    11.7324  11.9973

     occupation numbers 
     1.0000   1.0000   1.0000   1.0000   1.0000   1.0000   1.0000   1.0000
     1.0000   1.0000   1.0000   1.0000   1.0000   1.0000   1.0000   1.0000
     1.0000   1.0000   1.0000   1.0000   1.0000   1.0000   1.0000   1.0000
     1.0000   1.0000   1.0000   1.0000   1.0000   1.0000   1.0000   1.0000
     1.0000   1.0000   1.0000   1.0000   1.0000   1.0000   1.0000   1.0000
     0.0000   0.0000   0.0000   0.0000   0.0000   0.0000   0.0000   0.0000
     0.0000   0.0000

          k = 0.0000 0.2263-1.2807 (  8494 PWs)   bands (ev):

   -13.2569 -13.2569 -13.2529 -13.2529 -13.2475 -13.2475 -13.2454 -13.2454
   -13.2300 -13.2300 -13.2184 -13.2184 -13.2169 -13.2169 -13.1933 -13.1933
   -13.1887 -13.1887 -13.1711 -13.1711  -4.9090  -4.9090  -4.6119  -4.6119
     0.1134   0.1134   1.4627   1.4627   4.3847   4.3847   5.5147   5.5147
     5.8760   5.8760   6.6215   6.6215   7.5544   7.5544   7.6664   7.6664
     9.1742   9.1742   9.4884   9.4884  10.5104  10.5104  10.9341  10.9341
    11.6320  11.6320

     occupation numbers 
     1.0000   1.0000   1.0000   1.0000   1.0000   1.0000   1.0000   1.0000
     1.0000   1.0000   1.0000   1.0000   1.0000   1.0000   1.0000   1.0000
     1.0000   1.0000   1.0000   1.0000   1.0000   1.0000   1.0000   1.0000
     1.0000   1.0000   1.0000   1.0000   1.0000   1.0000   1.0000   1.0000
     1.0000   1.0000   1.0000   1.0000   1.0000   1.0000   1.0000   1.0000
     0.0000   0.0000   0.0000   0.0000   0.0000   0.0000   0.0000   0.0000
     0.0000   0.0000

          k = 0.0000 0.4527 0.0000 (  8530 PWs)   bands (ev):

   -13.2604 -13.2529 -13.2516 -13.2489 -13.2472 -13.2467 -13.2464 -13.2411
   -13.2371 -13.2301 -13.2292 -13.2282 -13.2146 -13.2123 -13.1942 -13.1942
   -13.1873 -13.1853 -13.1757 -13.1686  -5.6007  -5.2732  -4.6007  -4.1741
     0.6094   1.5562   2.3390   2.3692   3.2385   4.6332   4.9614   5.0870
     5.1725   5.3974   6.1228   6.3934   6.5228   7.4095   7.4257   7.4264
     9.0707   9.9277  10.8639  11.1285  11.2202  11.4486  11.8188  11.8704
    12.5536  13.1377

     occupation numbers 
     1.0000   1.0000   1.0000   1.0000   1.0000   1.0000   1.0000   1.0000
     1.0000   1.0000   1.0000   1.0000   1.0000   1.0000   1.0000   1.0000
     1.0000   1.0000   1.0000   1.0000   1.0000   1.0000   1.0000   1.0000
     1.0000   1.0000   1.0000   1.0000   1.0000   1.0000   1.0000   1.0000
     1.0000   1.0000   1.0000   1.0000   1.0000   1.0000   1.0000   1.0000
     0.0000   0.0000   0.0000   0.0000   0.0000   0.0000   0.0000   0.0000
     0.0000   0.0000

          k = 0.0000 0.4527 0.2134 (  8517 PWs)   bands (ev):

   -13.2603 -13.2528 -13.2520 -13.2488 -13.2473 -13.2468 -13.2462 -13.2417
   -13.2368 -13.2294 -13.2292 -13.2275 -13.2148 -13.2121 -13.1946 -13.1936
   -13.1874 -13.1855 -13.1756 -13.1687  -5.5716  -5.2469  -4.5956  -4.1788
     0.5561   1.5533   2.1911   2.3682   3.2583   4.3621   4.6244   5.3968
     5.4037   5.6101   5.8887   6.3991   6.7276   7.3201   7.4851   7.5642
     9.0936   9.7798  10.5922  10.8088  11.0916  11.5003  11.9589  12.0345
    12.5476  12.8282

     occupation numbers 
     1.0000   1.0000   1.0000   1.0000   1.0000   1.0000   1.0000   1.0000
     1.0000   1.0000   1.0000   1.0000   1.0000   1.0000   1.0000   1.0000
     1.0000   1.0000   1.0000   1.0000   1.0000   1.0000   1.0000   1.0000
     1.0000   1.0000   1.0000   1.0000   1.0000   1.0000   1.0000   1.0000
     1.0000   1.0000   1.0000   1.0000   1.0000   1.0000   1.0000   1.0000
     0.0000   0.0000   0.0000   0.0000   0.0000   0.0000   0.0000   0.0000
     0.0000   0.0000

          k = 0.0000 0.4527 0.4269 (  8513 PWs)   bands (ev):

   -13.2601 -13.2533 -13.2527 -13.2483 -13.2480 -13.2468 -13.2455 -13.2433
   -13.2361 -13.2293 -13.2275 -13.2257 -13.2151 -13.2119 -13.1948 -13.1930
   -13.1878 -13.1862 -13.1751 -13.1689  -5.4870  -5.1702  -4.5858  -4.1962
     0.4172   1.5348   1.8455   2.2890   3.3499   4.0995   4.3240   5.4199
     5.5904   5.9078   6.0288   6.3482   7.0688   7.1998   7.5488   7.6528
     9.1845   9.6441  10.1413  10.1810  11.1807  11.3132  11.8773  12.0774
    12.5640  12.9654

     occupation numbers 
     1.0000   1.0000   1.0000   1.0000   1.0000   1.0000   1.0000   1.0000
     1.0000   1.0000   1.0000   1.0000   1.0000   1.0000   1.0000   1.0000
     1.0000   1.0000   1.0000   1.0000   1.0000   1.0000   1.0000   1.0000
     1.0000   1.0000   1.0000   1.0000   1.0000   1.0000   1.0000   1.0000
     1.0000   1.0000   1.0000   1.0000   1.0000   1.0000   1.0000   1.0000
     0.0000   0.0000   0.0000   0.0000   0.0000   0.0000   0.0000   0.0000
     0.0000   0.0000

          k = 0.0000 0.4527 0.6403 (  8510 PWs)   bands (ev):

   -13.2600 -13.2550 -13.2526 -13.2490 -13.2474 -13.2470 -13.2454 -13.2447
   -13.2350 -13.2296 -13.2249 -13.2231 -13.2154 -13.2118 -13.1947 -13.1923
   -13.1885 -13.1872 -13.1745 -13.1694  -5.3543  -5.0497  -4.5867  -4.2354
     0.2497   1.3902   1.4916   2.1330   3.5328   4.0056   4.2179   5.3742
     5.4939   6.0393   6.3005   6.4276   7.1646   7.1742   7.4989   7.6250
     9.2985   9.5959   9.7644  10.1474  10.8952  11.1147  11.5851  12.2994
    12.7932  12.8925

     occupation numbers 
     1.0000   1.0000   1.0000   1.0000   1.0000   1.0000   1.0000   1.0000
     1.0000   1.0000   1.0000   1.0000   1.0000   1.0000   1.0000   1.0000
     1.0000   1.0000   1.0000   1.0000   1.0000   1.0000   1.0000   1.0000
     1.0000   1.0000   1.0000   1.0000   1.0000   1.0000   1.0000   1.0000
     1.0000   1.0000   1.0000   1.0000   1.0000   1.0000   1.0000   1.0000
     0.0000   0.0000   0.0000   0.0000   0.0000   0.0000   0.0000   0.0000
     0.0000   0.0000

          k = 0.0000 0.4527 0.8538 (  8513 PWs)   bands (ev):

   -13.2600 -13.2569 -13.2521 -13.2500 -13.2475 -13.2474 -13.2463 -13.2441
   -13.2338 -13.2300 -13.2221 -13.2201 -13.2157 -13.2122 -13.1941 -13.1915
   -13.1894 -13.1881 -13.1736 -13.1700  -5.1870  -4.8969  -4.6192  -4.3068
     0.1283   0.9277   1.4483   1.9224   3.7901   4.0930   4.2777   5.3077
     5.4654   5.7981   6.2064   6.6166   7.0328   7.3101   7.3982   7.6167
     9.1857   9.4910   9.9469  10.2718  10.7639  11.1141  11.3041  12.3498
    12.6213  12.9032

     occupation numbers 
     1.0000   1.0000   1.0000   1.0000   1.0000   1.0000   1.0000   1.0000
     1.0000   1.0000   1.0000   1.0000   1.0000   1.0000   1.0000   1.0000
     1.0000   1.0000   1.0000   1.0000   1.0000   1.0000   1.0000   1.0000
     1.0000   1.0000   1.0000   1.0000   1.0000   1.0000   1.0000   1.0000
     1.0000   1.0000   1.0000   1.0000   1.0000   1.0000   1.0000   1.0000
     0.0000   0.0000   0.0000   0.0000   0.0000   0.0000   0.0000   0.0000
     0.0000   0.0000

          k = 0.0000 0.4527 1.0672 (  8489 PWs)   bands (ev):

   -13.2600 -13.2585 -13.2514 -13.2507 -13.2487 -13.2482 -13.2452 -13.2440
   -13.2326 -13.2307 -13.2196 -13.2173 -13.2164 -13.2132 -13.1931 -13.1906
   -13.1906 -13.1890 -13.1727 -13.1708  -5.0053  -4.7277  -4.7010  -4.4166
     0.1178   0.5321   1.4530   1.7068   4.0816   4.2810   4.4578   5.1449
     5.3611   5.4816   6.1610   6.5095   7.0030   7.3434   7.4375   7.5860
     9.1063   9.6586   9.6904  10.4129  11.0066  11.1033  11.4854  12.0659
    12.2867  12.6701

     occupation numbers 
     1.0000   1.0000   1.0000   1.0000   1.0000   1.0000   1.0000   1.0000
     1.0000   1.0000   1.0000   1.0000   1.0000   1.0000   1.0000   1.0000
     1.0000   1.0000   1.0000   1.0000   1.0000   1.0000   1.0000   1.0000
     1.0000   1.0000   1.0000   1.0000   1.0000   1.0000   1.0000   1.0000
     1.0000   1.0000   1.0000   1.0000   1.0000   1.0000   1.0000   1.0000
     0.0000   0.0000   0.0000   0.0000   0.0000   0.0000   0.0000   0.0000
     0.0000   0.0000

          k = 0.0000 0.4527-1.2807 (  8510 PWs)   bands (ev):

   -13.2596 -13.2596 -13.2510 -13.2510 -13.2489 -13.2489 -13.2444 -13.2444
   -13.2316 -13.2316 -13.2177 -13.2177 -13.2149 -13.2149 -13.1919 -13.1919
   -13.1898 -13.1898 -13.1717 -13.1717  -4.8347  -4.8347  -4.5613  -4.5613
     0.2527   0.2527   1.5394   1.5394   4.3037   4.3037   4.7823   4.7823
     5.3238   5.3238   6.2926   6.2926   7.1463   7.1463   7.5531   7.5531
     9.2785   9.2785  10.0895  10.0895  11.2572  11.2572  11.7211  11.7211
    12.2938  12.2938

     occupation numbers 
     1.0000   1.0000   1.0000   1.0000   1.0000   1.0000   1.0000   1.0000
     1.0000   1.0000   1.0000   1.0000   1.0000   1.0000   1.0000   1.0000
     1.0000   1.0000   1.0000   1.0000   1.0000   1.0000   1.0000   1.0000
     1.0000   1.0000   1.0000   1.0000   1.0000   1.0000   1.0000   1.0000
     1.0000   1.0000   1.0000   1.0000   1.0000   1.0000   1.0000   1.0000
     0.0000   0.0000   0.0000   0.0000   0.0000   0.0000   0.0000   0.0000
     0.0000   0.0000

          k = 0.0000 0.6790 0.0000 (  8508 PWs)   bands (ev):

   -13.2550 -13.2549 -13.2535 -13.2506 -13.2472 -13.2443 -13.2436 -13.2420
   -13.2372 -13.2315 -13.2286 -13.2243 -13.2139 -13.2119 -13.1962 -13.1915
   -13.1911 -13.1832 -13.1755 -13.1707  -5.4249  -5.1292  -4.5467  -4.2128
     0.4197   1.2442   1.7286   2.0623   3.4076   4.7908   5.1853   5.2476
     5.2640   5.5738   6.3277   6.4303   6.6181   7.2687   7.3913   7.8470
     9.0583   9.2948  10.3971  10.5659  10.5964  11.1920  11.2025  11.8953
    12.6254  12.7753

     occupation numbers 
     1.0000   1.0000   1.0000   1.0000   1.0000   1.0000   1.0000   1.0000
     1.0000   1.0000   1.0000   1.0000   1.0000   1.0000   1.0000   1.0000
     1.0000   1.0000   1.0000   1.0000   1.0000   1.0000   1.0000   1.0000
     1.0000   1.0000   1.0000   1.0000   1.0000   1.0000   1.0000   1.0000
     1.0000   1.0000   1.0000   1.0000   1.0000   1.0000   1.0000   1.0000
     0.0000   0.0000   0.0000   0.0000   0.0000   0.0000   0.0000   0.0000
     0.0000   0.0000

          k = 0.0000 0.6790 0.2134 (  8514 PWs)   bands (ev):

   -13.2568 -13.2541 -13.2536 -13.2510 -13.2469 -13.2440 -13.2439 -13.2420
   -13.2368 -13.2315 -13.2280 -13.2237 -13.2143 -13.2115 -13.1961 -13.1915
   -13.1910 -13.1834 -13.1754 -13.1707  -5.3974  -5.1046  -4.5410  -4.2142
     0.4085   1.2696   1.7202   2.0098   3.4444   4.3602   4.6922   5.4241
     5.6728   5.7644   6.0163   6.3848   6.8641   7.3102   7.3811   7.7767
     9.1932   9.3039  10.0294  10.0856  10.9225  11.3201  11.5214  11.8433
    12.7005  12.7686

     occupation numbers 
     1.0000   1.0000   1.0000   1.0000   1.0000   1.0000   1.0000   1.0000
     1.0000   1.0000   1.0000   1.0000   1.0000   1.0000   1.0000   1.0000
     1.0000   1.0000   1.0000   1.0000   1.0000   1.0000   1.0000   1.0000
     1.0000   1.0000   1.0000   1.0000   1.0000   1.0000   1.0000   1.0000
     1.0000   1.0000   1.0000   1.0000   1.0000   1.0000   1.0000   1.0000
     0.0000   0.0000   0.0000   0.0000   0.0000   0.0000   0.0000   0.0000
     0.0000   0.0000

          k = 0.0000 0.6790 0.4269 (  8510 PWs)   bands (ev):

   -13.2590 -13.2557 -13.2529 -13.2521 -13.2466 -13.2444 -13.2432 -13.2419
   -13.2360 -13.2315 -13.2263 -13.2222 -13.2150 -13.2109 -13.1958 -13.1917
   -13.1909 -13.1841 -13.1751 -13.1708  -5.3177  -5.0333  -4.5289  -4.2216
     0.3751   1.3373   1.6382   1.9038   3.5540   3.9092   4.2124   5.1771
     5.5704   6.0439   6.2552   6.2690   6.9804   7.2806   7.4355   7.4687
     9.2768   9.5823   9.6956  10.0097  10.9068  11.2307  11.7508  12.2680
    12.7453  12.8757

     occupation numbers 
     1.0000   1.0000   1.0000   1.0000   1.0000   1.0000   1.0000   1.0000
     1.0000   1.0000   1.0000   1.0000   1.0000   1.0000   1.0000   1.0000
     1.0000   1.0000   1.0000   1.0000   1.0000   1.0000   1.0000   1.0000
     1.0000   1.0000   1.0000   1.0000   1.0000   1.0000   1.0000   1.0000
     1.0000   1.0000   1.0000   1.0000   1.0000   1.0000   1.0000   1.0000
     0.0000   0.0000   0.0000   0.0000   0.0000   0.0000   0.0000   0.0000
     0.0000   0.0000

          k = 0.0000 0.6790 0.6403 (  8522 PWs)   bands (ev):

   -13.2611 -13.2579 -13.2535 -13.2530 -13.2467 -13.2438 -13.2423 -13.2420
   -13.2349 -13.2315 -13.2240 -13.2199 -13.2154 -13.2107 -13.1952 -13.1919
   -13.1907 -13.1850 -13.1745 -13.1710  -5.1937  -4.9225  -4.5243  -4.2440
     0.3284   1.3830   1.4230   1.8482   3.6298   3.7297   3.9090   5.0001
     5.1898   6.0285   6.0373   6.5384   6.7366   7.1467   7.2604   7.4694
     9.0653   9.5834  10.2868  10.6309  10.8254  11.3078  11.5571  12.6039
    13.0033  13.0298

     occupation numbers 
     1.0000   1.0000   1.0000   1.0000   1.0000   1.0000   1.0000   1.0000
     1.0000   1.0000   1.0000   1.0000   1.0000   1.0000   1.0000   1.0000
     1.0000   1.0000   1.0000   1.0000   1.0000   1.0000   1.0000   1.0000
     1.0000   1.0000   1.0000   1.0000   1.0000   1.0000   1.0000   1.0000
     1.0000   1.0000   1.0000   1.0000   1.0000   1.0000   1.0000   1.0000
     0.0000   0.0000   0.0000   0.0000   0.0000   0.0000   0.0000   0.0000
     0.0000   0.0000

          k = 0.0000 0.6790 0.8538 (  8520 PWs)   bands (ev):

   -13.2628 -13.2604 -13.2549 -13.2541 -13.2463 -13.2429 -13.2425 -13.2415
   -13.2338 -13.2317 -13.2214 -13.2174 -13.2157 -13.2110 -13.1946 -13.1922
   -13.1901 -13.1860 -13.1738 -13.1714  -5.0395  -4.7842  -4.5463  -4.2926
     0.2997   1.0432   1.4985   1.7944   3.5549   3.8269   3.9433   4.8188
     4.9588   5.6887   5.7782   6.4252   6.4732   7.0417   7.0651   7.5330
     8.9239   9.9851  10.7168  11.0367  11.1681  11.4373  11.6449  12.7950
    12.9819  13.1366

     occupation numbers 
     1.0000   1.0000   1.0000   1.0000   1.0000   1.0000   1.0000   1.0000
     1.0000   1.0000   1.0000   1.0000   1.0000   1.0000   1.0000   1.0000
     1.0000   1.0000   1.0000   1.0000   1.0000   1.0000   1.0000   1.0000
     1.0000   1.0000   1.0000   1.0000   1.0000   1.0000   1.0000   1.0000
     1.0000   1.0000   1.0000   1.0000   1.0000   1.0000   1.0000   1.0000
     0.0000   0.0000   0.0000   0.0000   0.0000   0.0000   0.0000   0.0000
     0.0000   0.0000

          k = 0.0000 0.6790 1.0672 (  8512 PWs)   bands (ev):

   -13.2637 -13.2625 -13.2558 -13.2553 -13.2454 -13.2432 -13.2421 -13.2413
   -13.2329 -13.2319 -13.2191 -13.2162 -13.2150 -13.2118 -13.1938 -13.1926
   -13.1892 -13.1871 -13.1731 -13.1718  -4.8752  -4.6349  -4.6117  -4.3757
     0.3361   0.7200   1.5597   1.7141   3.6826   3.9424   4.0779   4.5326
     4.8595   5.4023   5.5594   6.0729   6.4357   6.8387   7.1026   7.3845
     9.1538  10.1712  10.5296  11.4197  11.6696  11.7334  12.2253  12.7423
    12.7759  13.1564

     occupation numbers 
     1.0000   1.0000   1.0000   1.0000   1.0000   1.0000   1.0000   1.0000
     1.0000   1.0000   1.0000   1.0000   1.0000   1.0000   1.0000   1.0000
     1.0000   1.0000   1.0000   1.0000   1.0000   1.0000   1.0000   1.0000
     1.0000   1.0000   1.0000   1.0000   1.0000   1.0000   1.0000   1.0000
     1.0000   1.0000   1.0000   1.0000   1.0000   1.0000   1.0000   1.0000
     0.0000   0.0000   0.0000   0.0000   0.0000   0.0000   0.0000   0.0000
     0.0000   0.0000

          k = 0.0000 0.6790-1.2807 (  8496 PWs)   bands (ev):

   -13.2636 -13.2636 -13.2560 -13.2560 -13.2442 -13.2442 -13.2415 -13.2415
   -13.2322 -13.2322 -13.2173 -13.2173 -13.2132 -13.2132 -13.1931 -13.1931
   -13.1882 -13.1882 -13.1724 -13.1724  -4.7252  -4.7252  -4.4931  -4.4931
     0.4745   0.4745   1.6287   1.6287   3.9332   3.9332   4.1977   4.1977
     5.0404   5.0404   5.7292   5.7292   6.6116   6.6116   7.2059   7.2059
     9.6187   9.6187  11.0557  11.0557  12.0452  12.0452  12.5625  12.5625
    12.8538  12.8539

     occupation numbers 
     1.0000   1.0000   1.0000   1.0000   1.0000   1.0000   1.0000   1.0000
     1.0000   1.0000   1.0000   1.0000   1.0000   1.0000   1.0000   1.0000
     1.0000   1.0000   1.0000   1.0000   1.0000   1.0000   1.0000   1.0000
     1.0000   1.0000   1.0000   1.0000   1.0000   1.0000   1.0000   1.0000
     1.0000   1.0000   1.0000   1.0000   1.0000   1.0000   1.0000   1.0000
     0.0000   0.0000   0.0000   0.0000   0.0000   0.0000   0.0000   0.0000
     0.0000   0.0000

          k = 0.0000 0.9054 0.0000 (  8550 PWs)   bands (ev):

   -13.2578 -13.2553 -13.2546 -13.2525 -13.2438 -13.2434 -13.2421 -13.2379
   -13.2356 -13.2330 -13.2278 -13.2197 -13.2165 -13.2093 -13.1988 -13.1969
   -13.1873 -13.1809 -13.1754 -13.1732  -5.1978  -4.9529  -4.5132  -4.3043
     0.2647   1.0175   1.1491   1.6777   3.7001   4.9695   5.3103   5.4409
     5.5118   5.7652   6.3552   6.5035   6.8466   7.1966   7.3246   7.9118
     8.6727   9.5501   9.8462   9.8689  10.1036  10.6267  10.6770  11.5171
    11.8994  12.2759

     occupation numbers 
     1.0000   1.0000   1.0000   1.0000   1.0000   1.0000   1.0000   1.0000
     1.0000   1.0000   1.0000   1.0000   1.0000   1.0000   1.0000   1.0000
     1.0000   1.0000   1.0000   1.0000   1.0000   1.0000   1.0000   1.0000
     1.0000   1.0000   1.0000   1.0000   1.0000   1.0000   1.0000   1.0000
     1.0000   1.0000   1.0000   1.0000   1.0000   1.0000   1.0000   1.0000
     0.0000   0.0000   0.0000   0.0000   0.0000   0.0000   0.0000   0.0000
     0.0000   0.0000

          k = 0.0000 0.9054 0.2134 (  8530 PWs)   bands (ev):

   -13.2588 -13.2562 -13.2549 -13.2529 -13.2442 -13.2426 -13.2418 -13.2378
   -13.2352 -13.2329 -13.2273 -13.2193 -13.2166 -13.2093 -13.1986 -13.1968
   -13.1873 -13.1811 -13.1753 -13.1731  -5.1730  -4.9311  -4.5060  -4.3007
     0.2846   1.0538   1.1726   1.6600   3.7348   4.5114   4.8273   5.5515
     5.7038   6.0218   6.0603   6.3832   6.9019   7.2568   7.3211   7.7030
     8.9719   9.4594   9.5233   9.6589  10.6816  10.9130  10.9618  11.3101
    12.3503  12.5137

     occupation numbers 
     1.0000   1.0000   1.0000   1.0000   1.0000   1.0000   1.0000   1.0000
     1.0000   1.0000   1.0000   1.0000   1.0000   1.0000   1.0000   1.0000
     1.0000   1.0000   1.0000   1.0000   1.0000   1.0000   1.0000   1.0000
     1.0000   1.0000   1.0000   1.0000   1.0000   1.0000   1.0000   1.0000
     1.0000   1.0000   1.0000   1.0000   1.0000   1.0000   1.0000   1.0000
     0.0000   0.0000   0.0000   0.0000   0.0000   0.0000   0.0000   0.0000
     0.0000   0.0000

          k = 0.0000 0.9054 0.4269 (  8530 PWs)   bands (ev):

   -13.2612 -13.2584 -13.2560 -13.2541 -13.2442 -13.2413 -13.2411 -13.2375
   -13.2342 -13.2326 -13.2259 -13.2182 -13.2168 -13.2093 -13.1982 -13.1965
   -13.1873 -13.1818 -13.1750 -13.1730  -5.1012  -4.8681  -4.4889  -4.2933
     0.3394   1.1582   1.2304   1.6060   3.8337   3.9306   4.2967   5.1326
     5.5213   5.8375   6.1354   6.4876   6.6511   7.1549   7.2945   7.3740
     9.1179   9.5076   9.6880  10.0182  10.8087  11.3532  11.5174  12.0187
    12.4945  12.8343

     occupation numbers 
     1.0000   1.0000   1.0000   1.0000   1.0000   1.0000   1.0000   1.0000
     1.0000   1.0000   1.0000   1.0000   1.0000   1.0000   1.0000   1.0000
     1.0000   1.0000   1.0000   1.0000   1.0000   1.0000   1.0000   1.0000
     1.0000   1.0000   1.0000   1.0000   1.0000   1.0000   1.0000   1.0000
     1.0000   1.0000   1.0000   1.0000   1.0000   1.0000   1.0000   1.0000
     0.0000   0.0000   0.0000   0.0000   0.0000   0.0000   0.0000   0.0000
     0.0000   0.0000

          k = 0.0000 0.9054 0.6403 (  8511 PWs)   bands (ev):

   -13.2639 -13.2613 -13.2576 -13.2561 -13.2438 -13.2403 -13.2399 -13.2373
   -13.2331 -13.2323 -13.2239 -13.2168 -13.2166 -13.2095 -13.1975 -13.1960
   -13.1872 -13.1826 -13.1746 -13.1728  -4.9911  -4.7720  -4.4739  -4.2912
     0.4170   1.2576   1.3136   1.5499   3.4927   3.8675   3.9752   4.7143
     5.0624   5.6839   5.7962   6.2099   6.5265   6.7404   7.0618   7.4894
     8.8581  10.0143  10.4787  10.7882  11.1207  11.5852  11.9378  12.5496
    12.8130  12.8769

     occupation numbers 
     1.0000   1.0000   1.0000   1.0000   1.0000   1.0000   1.0000   1.0000
     1.0000   1.0000   1.0000   1.0000   1.0000   1.0000   1.0000   1.0000
     1.0000   1.0000   1.0000   1.0000   1.0000   1.0000   1.0000   1.0000
     1.0000   1.0000   1.0000   1.0000   1.0000   1.0000   1.0000   1.0000
     1.0000   1.0000   1.0000   1.0000   1.0000   1.0000   1.0000   1.0000
     0.0000   0.0000   0.0000   0.0000   0.0000   0.0000   0.0000   0.0000
     0.0000   0.0000

          k = 0.0000 0.9054 0.8538 (  8499 PWs)   bands (ev):

   -13.2663 -13.2643 -13.2592 -13.2582 -13.2430 -13.2400 -13.2387 -13.2373
   -13.2322 -13.2319 -13.2217 -13.2168 -13.2147 -13.2099 -13.1967 -13.1957
   -13.1867 -13.1834 -13.1741 -13.1728  -4.8575  -4.6557  -4.4784  -4.3071
     0.5071   1.1407   1.4840   1.5832   3.2522   3.6307   4.0706   4.3192
     4.8116   5.2006   5.5129   5.9059   6.2196   6.4847   6.9794   7.2662
     9.0686  10.7092  11.0500  11.2248  11.7000  11.7020  12.5111  12.6799
    13.0193  13.1329

     occupation numbers 
     1.0000   1.0000   1.0000   1.0000   1.0000   1.0000   1.0000   1.0000
     1.0000   1.0000   1.0000   1.0000   1.0000   1.0000   1.0000   1.0000
     1.0000   1.0000   1.0000   1.0000   1.0000   1.0000   1.0000   1.0000
     1.0000   1.0000   1.0000   1.0000   1.0000   1.0000   1.0000   1.0000
     1.0000   1.0000   1.0000   1.0000   1.0000   1.0000   1.0000   1.0000
     0.0000   0.0000   0.0000   0.0000   0.0000   0.0000   0.0000   0.0000
     0.0000   0.0000

          k = 0.0000 0.9054 1.0672 (  8510 PWs)   bands (ev):

   -13.2678 -13.2667 -13.2604 -13.2599 -13.2421 -13.2403 -13.2379 -13.2372
   -13.2316 -13.2315 -13.2197 -13.2172 -13.2129 -13.2105 -13.1961 -13.1955
   -13.1860 -13.1843 -13.1736 -13.1729  -4.7202  -4.5358  -4.5184  -4.3519
     0.6147   0.9446   1.6138   1.6453   3.2366   3.6354   3.7872   4.1564
     4.6172   5.0991   5.1426   5.8012   5.8595   6.3039   6.9475   7.0090
     9.5228  10.5849  11.3335  11.5834  12.3405  12.4398  12.7485  13.0127
    13.0148  13.0576

     occupation numbers 
     1.0000   1.0000   1.0000   1.0000   1.0000   1.0000   1.0000   1.0000
     1.0000   1.0000   1.0000   1.0000   1.0000   1.0000   1.0000   1.0000
     1.0000   1.0000   1.0000   1.0000   1.0000   1.0000   1.0000   1.0000
     1.0000   1.0000   1.0000   1.0000   1.0000   1.0000   1.0000   1.0000
     1.0000   1.0000   1.0000   1.0000   1.0000   1.0000   1.0000   1.0000
     0.0000   0.0000   0.0000   0.0000   0.0000   0.0000   0.0000   0.0000
     0.0000   0.0000

          k = 0.0000 0.9054-1.2807 (  8514 PWs)   bands (ev):

   -13.2679 -13.2679 -13.2607 -13.2607 -13.2411 -13.2411 -13.2374 -13.2374
   -13.2314 -13.2314 -13.2182 -13.2182 -13.2115 -13.2115 -13.1957 -13.1957
   -13.1852 -13.1852 -13.1732 -13.1732  -4.6012  -4.6012  -4.4300  -4.4300
     0.7585   0.7585   1.6650   1.6650   3.4390   3.4390   3.8574   3.8574
     4.7505   4.7505   5.4179   5.4179   6.0369   6.0369   6.9389   6.9389
    10.0416  10.0416  11.6686  11.6686  12.7843  12.7843  12.8397  12.8397
    12.9935  12.9935

     occupation numbers 
     1.0000   1.0000   1.0000   1.0000   1.0000   1.0000   1.0000   1.0000
     1.0000   1.0000   1.0000   1.0000   1.0000   1.0000   1.0000   1.0000
     1.0000   1.0000   1.0000   1.0000   1.0000   1.0000   1.0000   1.0000
     1.0000   1.0000   1.0000   1.0000   1.0000   1.0000   1.0000   1.0000
     1.0000   1.0000   1.0000   1.0000   1.0000   1.0000   1.0000   1.0000
     0.0000   0.0000   0.0000   0.0000   0.0000   0.0000   0.0000   0.0000
     0.0000   0.0000

          k = 0.0000 1.1317 0.0000 (  8540 PWs)   bands (ev):

   -13.2595 -13.2578 -13.2560 -13.2541 -13.2413 -13.2409 -13.2407 -13.2373
   -13.2314 -13.2313 -13.2279 -13.2205 -13.2145 -13.2067 -13.2030 -13.2015
   -13.1834 -13.1786 -13.1761 -13.1757  -4.9413  -4.7723  -4.5323  -4.4640
     0.2260   0.6757   0.9480   1.3167   4.0740   4.8467   5.5164   5.6815
     5.8921   5.9133   6.1539   6.6025   7.1244   7.2075   7.2708   7.3410
     9.0907   9.3209   9.3511   9.7268   9.8158  10.1067  10.4790  11.0178
    11.3793  11.7275

     occupation numbers 
     1.0000   1.0000   1.0000   1.0000   1.0000   1.0000   1.0000   1.0000
     1.0000   1.0000   1.0000   1.0000   1.0000   1.0000   1.0000   1.0000
     1.0000   1.0000   1.0000   1.0000   1.0000   1.0000   1.0000   1.0000
     1.0000   1.0000   1.0000   1.0000   1.0000   1.0000   1.0000   1.0000
     1.0000   1.0000   1.0000   1.0000   1.0000   1.0000   1.0000   1.0000
     0.0000   0.0000   0.0000   0.0000   0.0000   0.0000   0.0000   0.0000
     0.0000   0.0000

          k = 0.0000 1.1317 0.2134 (  8549 PWs)   bands (ev):

   -13.2604 -13.2587 -13.2565 -13.2547 -13.2417 -13.2405 -13.2400 -13.2370
   -13.2313 -13.2310 -13.2275 -13.2203 -13.2144 -13.2072 -13.2023 -13.2013
   -13.1834 -13.1790 -13.1758 -13.1757  -4.9203  -4.7541  -4.5224  -4.4543
     0.2626   0.7128   0.9833   1.3261   4.0950   4.6749   4.9702   5.6500
     5.7042   5.7587   6.3464   6.5179   6.8734   7.1369   7.2775   7.4905
     8.9599   9.2355   9.4550   9.5702  10.2941  10.5962  10.9288  10.9601
    11.8215  11.9720

     occupation numbers 
     1.0000   1.0000   1.0000   1.0000   1.0000   1.0000   1.0000   1.0000
     1.0000   1.0000   1.0000   1.0000   1.0000   1.0000   1.0000   1.0000
     1.0000   1.0000   1.0000   1.0000   1.0000   1.0000   1.0000   1.0000
     1.0000   1.0000   1.0000   1.0000   1.0000   1.0000   1.0000   1.0000
     1.0000   1.0000   1.0000   1.0000   1.0000   1.0000   1.0000   1.0000
     0.0000   0.0000   0.0000   0.0000   0.0000   0.0000   0.0000   0.0000
     0.0000   0.0000

          k = 0.0000 1.1317 0.4269 (  8537 PWs)   bands (ev):

   -13.2628 -13.2612 -13.2579 -13.2565 -13.2417 -13.2400 -13.2384 -13.2362
   -13.2310 -13.2303 -13.2263 -13.2200 -13.2139 -13.2081 -13.2010 -13.2006
   -13.1835 -13.1798 -13.1754 -13.1752  -4.8603  -4.7025  -4.4963  -4.4285
     0.3689   0.8196   1.0850   1.3476   4.1400   4.1444   4.4785   5.0889
     5.3026   5.5549   6.2264   6.3349   6.4788   6.7592   7.3449   7.4596
     8.9151   9.3232   9.7749  10.2498  11.0735  11.1195  11.5844  11.7519
    12.1235  12.7409

     occupation numbers 
     1.0000   1.0000   1.0000   1.0000   1.0000   1.0000   1.0000   1.0000
     1.0000   1.0000   1.0000   1.0000   1.0000   1.0000   1.0000   1.0000
     1.0000   1.0000   1.0000   1.0000   1.0000   1.0000   1.0000   1.0000
     1.0000   1.0000   1.0000   1.0000   1.0000   1.0000   1.0000   1.0000
     1.0000   1.0000   1.0000   1.0000   1.0000   1.0000   1.0000   1.0000
     0.0000   0.0000   0.0000   0.0000   0.0000   0.0000   0.0000   0.0000
     0.0000   0.0000

          k = 0.0000 1.1317 0.6403 (  8517 PWs)   bands (ev):

   -13.2659 -13.2644 -13.2599 -13.2589 -13.2414 -13.2395 -13.2368 -13.2353
   -13.2306 -13.2297 -13.2245 -13.2196 -13.2131 -13.2088 -13.1996 -13.1996
   -13.1836 -13.1806 -13.1750 -13.1747  -4.7707  -4.6262  -4.4649  -4.3965
     0.5320   0.9785   1.2388   1.3666   3.6000   4.0468   4.1569   4.4683
     4.9090   5.4245   5.6828   5.8881   6.1281   6.4243   7.1080   7.3491
     9.0207   9.9820  10.5489  11.1101  11.5823  11.7564  12.3426  12.4689
    12.6487  12.6684

     occupation numbers 
     1.0000   1.0000   1.0000   1.0000   1.0000   1.0000   1.0000   1.0000
     1.0000   1.0000   1.0000   1.0000   1.0000   1.0000   1.0000   1.0000
     1.0000   1.0000   1.0000   1.0000   1.0000   1.0000   1.0000   1.0000
     1.0000   1.0000   1.0000   1.0000   1.0000   1.0000   1.0000   1.0000
     1.0000   1.0000   1.0000   1.0000   1.0000   1.0000   1.0000   1.0000
     0.0000   0.0000   0.0000   0.0000   0.0000   0.0000   0.0000   0.0000
     0.0000   0.0000

          k = 0.0000 1.1317 0.8538 (  8506 PWs)   bands (ev):

   -13.2688 -13.2676 -13.2620 -13.2613 -13.2409 -13.2393 -13.2354 -13.2345
   -13.2300 -13.2292 -13.2228 -13.2193 -13.2120 -13.2093 -13.1987 -13.1985
   -13.1833 -13.1812 -13.1746 -13.1743  -4.6664  -4.5390  -4.4436  -4.3719
     0.7271   1.1332   1.3916   1.4140   3.2202   3.7255   3.8502   4.1146
     4.6778   5.0495   5.2011   5.6089   5.9724   6.0260   6.9500   6.9973
     9.4951  10.5911  11.3012  11.4068  12.2496  12.2589  12.5127  12.8492
    12.9012  13.3282

     occupation numbers 
     1.0000   1.0000   1.0000   1.0000   1.0000   1.0000   1.0000   1.0000
     1.0000   1.0000   1.0000   1.0000   1.0000   1.0000   1.0000   1.0000
     1.0000   1.0000   1.0000   1.0000   1.0000   1.0000   1.0000   1.0000
     1.0000   1.0000   1.0000   1.0000   1.0000   1.0000   1.0000   1.0000
     1.0000   1.0000   1.0000   1.0000   1.0000   1.0000   1.0000   1.0000
     0.0000   0.0000   0.0000   0.0000   0.0000   0.0000   0.0000   0.0000
     0.0000   0.0000

          k = 0.0000 1.1317 1.0672 (  8507 PWs)   bands (ev):

   -13.2707 -13.2700 -13.2635 -13.2632 -13.2404 -13.2395 -13.2344 -13.2341
   -13.2295 -13.2290 -13.2213 -13.2194 -13.2109 -13.2096 -13.1980 -13.1979
   -13.1829 -13.1818 -13.1743 -13.1741  -4.5666  -4.4576  -4.4485  -4.3692
     0.9164   1.1572   1.4925   1.5539   3.0537   3.4218   3.5893   3.8542
     4.5572   4.6581   4.9911   5.5685   5.6184   5.9255   6.7638   6.8243
    10.0056  10.9010  11.2262  11.6477  12.6305  12.7025  12.8956  13.0111
    13.1062  13.5986

     occupation numbers 
     1.0000   1.0000   1.0000   1.0000   1.0000   1.0000   1.0000   1.0000
     1.0000   1.0000   1.0000   1.0000   1.0000   1.0000   1.0000   1.0000
     1.0000   1.0000   1.0000   1.0000   1.0000   1.0000   1.0000   1.0000
     1.0000   1.0000   1.0000   1.0000   1.0000   1.0000   1.0000   1.0000
     1.0000   1.0000   1.0000   1.0000   1.0000   1.0000   1.0000   1.0000
     0.0000   0.0000   0.0000   0.0000   0.0000   0.0000   0.0000   0.0000
     0.0000   0.0000

[...]
     0.0000   0.0000   0.0000   0.0000   0.0000   0.0000   0.0000   0.0000
     0.0000   0.0000

          k =-0.5000 1.1317 0.6403 (  8540 PWs)   bands (ev):

   -13.2635 -13.2635 -13.2613 -13.2613 -13.2391 -13.2391 -13.2382 -13.2382
   -13.2291 -13.2291 -13.2234 -13.2234 -13.2083 -13.2083 -13.2016 -13.2016
   -13.1809 -13.1809 -13.1755 -13.1755  -4.7102  -4.7102  -4.4192  -4.4192
     0.8190   0.8190   1.1806   1.1806   3.8372   3.8372   4.5624   4.5624
     5.0562   5.0562   5.6082   5.6082   6.4093   6.4093   6.9699   6.9699
    10.2390  10.2390  10.7260  10.7260  11.2356  11.2356  11.9168  11.9168
    12.4571  12.4572

     occupation numbers 
     1.0000   1.0000   1.0000   1.0000   1.0000   1.0000   1.0000   1.0000
     1.0000   1.0000   1.0000   1.0000   1.0000   1.0000   1.0000   1.0000
     1.0000   1.0000   1.0000   1.0000   1.0000   1.0000   1.0000   1.0000
     1.0000   1.0000   1.0000   1.0000   1.0000   1.0000   1.0000   1.0000
     1.0000   1.0000   1.0000   1.0000   1.0000   1.0000   1.0000   1.0000
     0.0000   0.0000   0.0000   0.0000   0.0000   0.0000   0.0000   0.0000
     0.0000   0.0000

          k =-0.5000 1.1317 0.8538 (  8514 PWs)   bands (ev):

   -13.2661 -13.2661 -13.2639 -13.2639 -13.2386 -13.2386 -13.2375 -13.2375
   -13.2283 -13.2283 -13.2227 -13.2227 -13.2073 -13.2073 -13.2011 -13.2011
   -13.1809 -13.1809 -13.1753 -13.1753  -4.6155  -4.6155  -4.3952  -4.3952
     0.9652   0.9652   1.3232   1.3232   3.5054   3.5054   4.1647   4.1647
     4.6417   4.6417   5.2238   5.2238   6.3654   6.3654   6.8182   6.8182
    10.5928  10.5928  10.9177  10.9177  11.5502  11.5502  12.4001  12.4001
    13.1869  13.1869

     occupation numbers 
     1.0000   1.0000   1.0000   1.0000   1.0000   1.0000   1.0000   1.0000
     1.0000   1.0000   1.0000   1.0000   1.0000   1.0000   1.0000   1.0000
     1.0000   1.0000   1.0000   1.0000   1.0000   1.0000   1.0000   1.0000
     1.0000   1.0000   1.0000   1.0000   1.0000   1.0000   1.0000   1.0000
     1.0000   1.0000   1.0000   1.0000   1.0000   1.0000   1.0000   1.0000
     0.0000   0.0000   0.0000   0.0000   0.0000   0.0000   0.0000   0.0000
     0.0000   0.0000

          k =-0.5000 1.1317 1.0672 (  8490 PWs)   bands (ev):

   -13.2680 -13.2680 -13.2658 -13.2658 -13.2384 -13.2384 -13.2370 -13.2370
   -13.2277 -13.2277 -13.2222 -13.2222 -13.2066 -13.2066 -13.2006 -13.2006
   -13.1808 -13.1808 -13.1751 -13.1751  -4.5301  -4.5301  -4.3910  -4.3910
     1.0539   1.0539   1.4719   1.4719   3.3748   3.3748   3.7808   3.7808
     4.4211   4.4211   4.8414   4.8414   6.4286   6.4286   6.7179   6.7179
    10.5365  10.5365  10.9276  10.9276  12.1847  12.1847  12.7694  12.7694
    13.8596  13.8596

     occupation numbers 
     1.0000   1.0000   1.0000   1.0000   1.0000   1.0000   1.0000   1.0000
     1.0000   1.0000   1.0000   1.0000   1.0000   1.0000   1.0000   1.0000
     1.0000   1.0000   1.0000   1.0000   1.0000   1.0000   1.0000   1.0000
     1.0000   1.0000   1.0000   1.0000   1.0000   1.0000   1.0000   1.0000
     1.0000   1.0000   1.0000   1.0000   1.0000   1.0000   1.0000   1.0000
     0.0000   0.0000   0.0000   0.0000   0.0000   0.0000   0.0000   0.0000
     0.0000   0.0000

          k =-0.5000 1.1317-1.2807 (  8476 PWs)   bands (ev):

   -13.2686 -13.2686 -13.2664 -13.2664 -13.2384 -13.2384 -13.2369 -13.2369
   -13.2274 -13.2274 -13.2220 -13.2220 -13.2062 -13.2062 -13.2005 -13.2005
   -13.1808 -13.1808 -13.1750 -13.1750  -4.4886  -4.4886  -4.3991  -4.3991
     1.0795   1.0795   1.5415   1.5415   3.4682   3.4682   3.4831   3.4831
     4.4468   4.4468   4.6088   4.6088   6.4939   6.4939   6.6562   6.6562
    10.4920  10.4920  10.9087  10.9087  12.6258  12.6258  12.7302  12.7302
    14.2489  14.2490

     occupation numbers 
     1.0000   1.0000   1.0000   1.0000   1.0000   1.0000   1.0000   1.0000
     1.0000   1.0000   1.0000   1.0000   1.0000   1.0000   1.0000   1.0000
     1.0000   1.0000   1.0000   1.0000   1.0000   1.0000   1.0000   1.0000
     1.0000   1.0000   1.0000   1.0000   1.0000   1.0000   1.0000   1.0000
     1.0000   1.0000   1.0000   1.0000   1.0000   1.0000   1.0000   1.0000
     0.0000   0.0000   0.0000   0.0000   0.0000   0.0000   0.0000   0.0000
     0.0000   0.0000

          k =-0.5000-1.3581 0.0000 (  8560 PWs)   bands (ev):

   -13.2577 -13.2577 -13.2577 -13.2577 -13.2397 -13.2397 -13.2397 -13.2397
   -13.2271 -13.2271 -13.2271 -13.2271 -13.2065 -13.2065 -13.2065 -13.2065
   -13.1782 -13.1782 -13.1782 -13.1782  -4.6542  -4.6542  -4.6542  -4.6542
     0.6666   0.6666   0.6666   0.6666   5.2999   5.2999   5.2999   5.2999
     5.9756   5.9756   5.9756   5.9756   7.0668   7.0668   7.0668   7.0668
     9.5792   9.5792   9.5792   9.5792  10.2425  10.2425  10.2425  10.2425
    12.0001  12.0001

     occupation numbers 
     1.0000   1.0000   1.0000   1.0000   1.0000   1.0000   1.0000   1.0000
     1.0000   1.0000   1.0000   1.0000   1.0000   1.0000   1.0000   1.0000
     1.0000   1.0000   1.0000   1.0000   1.0000   1.0000   1.0000   1.0000
     1.0000   1.0000   1.0000   1.0000   1.0000   1.0000   1.0000   1.0000
     1.0000   1.0000   1.0000   1.0000   1.0000   1.0000   1.0000   1.0000
     0.0000   0.0000   0.0000   0.0000   0.0000   0.0000   0.0000   0.0000
     0.0000   0.0000

          k =-0.5000-1.3581 0.2134 (  8532 PWs)   bands (ev):

   -13.2585 -13.2585 -13.2585 -13.2585 -13.2394 -13.2394 -13.2394 -13.2394
   -13.2269 -13.2269 -13.2269 -13.2269 -13.2063 -13.2063 -13.2063 -13.2063
   -13.1781 -13.1781 -13.1781 -13.1781  -4.6393  -4.6393  -4.6393  -4.6393
     0.7019   0.7019   0.7019   0.7019   5.1240   5.1240   5.1240   5.1240
     5.8446   5.8446   5.8446   5.8446   7.0595   7.0595   7.0595   7.0595
     9.5173   9.5173   9.5173   9.5173  10.7266  10.7266  10.7266  10.7266
    12.0110  12.0110

     occupation numbers 
     1.0000   1.0000   1.0000   1.0000   1.0000   1.0000   1.0000   1.0000
     1.0000   1.0000   1.0000   1.0000   1.0000   1.0000   1.0000   1.0000
     1.0000   1.0000   1.0000   1.0000   1.0000   1.0000   1.0000   1.0000
     1.0000   1.0000   1.0000   1.0000   1.0000   1.0000   1.0000   1.0000
     1.0000   1.0000   1.0000   1.0000   1.0000   1.0000   1.0000   1.0000
     0.0000   0.0000   0.0000   0.0000   0.0000   0.0000   0.0000   0.0000
     0.0000   0.0000

          k =-0.5000-1.3581 0.4269 (  8552 PWs)   bands (ev):

   -13.2606 -13.2606 -13.2606 -13.2606 -13.2388 -13.2388 -13.2388 -13.2388
   -13.2265 -13.2265 -13.2265 -13.2265 -13.2059 -13.2059 -13.2059 -13.2059
   -13.1781 -13.1781 -13.1781 -13.1781  -4.5979  -4.5979  -4.5979  -4.5979
     0.8037   0.8037   0.8037   0.8037   4.6663   4.6663   4.6663   4.6663
     5.6415   5.6415   5.6415   5.6415   6.8391   6.8391   6.8391   6.8391
     9.9097   9.9097   9.9097   9.9097  11.3272  11.3272  11.3272  11.3272
    12.2331  12.2331

     occupation numbers 
     1.0000   1.0000   1.0000   1.0000   1.0000   1.0000   1.0000   1.0000
     1.0000   1.0000   1.0000   1.0000   1.0000   1.0000   1.0000   1.0000
     1.0000   1.0000   1.0000   1.0000   1.0000   1.0000   1.0000   1.0000
     1.0000   1.0000   1.0000   1.0000   1.0000   1.0000   1.0000   1.0000
     1.0000   1.0000   1.0000   1.0000   1.0000   1.0000   1.0000   1.0000
     0.0000   0.0000   0.0000   0.0000   0.0000   0.0000   0.0000   0.0000
     0.0000   0.0000

          k =-0.5000-1.3581 0.6403 (  8528 PWs)   bands (ev):

   -13.2633 -13.2633 -13.2633 -13.2633 -13.2381 -13.2381 -13.2381 -13.2381
   -13.2258 -13.2258 -13.2258 -13.2258 -13.2051 -13.2051 -13.2051 -13.2051
   -13.1779 -13.1779 -13.1779 -13.1779  -4.5396  -4.5396  -4.5396  -4.5396
     0.9581   0.9581   0.9581   0.9581   4.1635   4.1635   4.1635   4.1635
     5.3086   5.3086   5.3086   5.3086   6.6197   6.6197   6.6197   6.6197
    10.5307  10.5307  10.5307  10.5307  11.5308  11.5308  11.5308  11.5308
    12.9573  12.9573

     occupation numbers 
     1.0000   1.0000   1.0000   1.0000   1.0000   1.0000   1.0000   1.0000
     1.0000   1.0000   1.0000   1.0000   1.0000   1.0000   1.0000   1.0000
     1.0000   1.0000   1.0000   1.0000   1.0000   1.0000   1.0000   1.0000
     1.0000   1.0000   1.0000   1.0000   1.0000   1.0000   1.0000   1.0000
     1.0000   1.0000   1.0000   1.0000   1.0000   1.0000   1.0000   1.0000
     0.0000   0.0000   0.0000   0.0000   0.0000   0.0000   0.0000   0.0000
     0.0000   0.0000

          k =-0.5000-1.3581 0.8538 (  8520 PWs)   bands (ev):

   -13.2660 -13.2660 -13.2660 -13.2660 -13.2375 -13.2375 -13.2375 -13.2375
   -13.2252 -13.2252 -13.2252 -13.2252 -13.2043 -13.2043 -13.2043 -13.2043
   -13.1778 -13.1778 -13.1778 -13.1778  -4.4793  -4.4793  -4.4793  -4.4793
     1.1357   1.1357   1.1357   1.1357   3.7641   3.7641   3.7641   3.7641
     4.8569   4.8569   4.8569   4.8569   6.5632   6.5632   6.5632   6.5632
    10.7482  10.7482  10.7482  10.7482  11.9948  11.9948  11.9948  11.9948
    13.7586  13.7586

     occupation numbers 
     1.0000   1.0000   1.0000   1.0000   1.0000   1.0000   1.0000   1.0000
     1.0000   1.0000   1.0000   1.0000   1.0000   1.0000   1.0000   1.0000
     1.0000   1.0000   1.0000   1.0000   1.0000   1.0000   1.0000   1.0000
     1.0000   1.0000   1.0000   1.0000   1.0000   1.0000   1.0000   1.0000
     1.0000   1.0000   1.0000   1.0000   1.0000   1.0000   1.0000   1.0000
     0.0000   0.0000   0.0000   0.0000   0.0000   0.0000   0.0000   0.0000
     0.0000   0.0000

          k =-0.5000-1.3581 1.0672 (  8496 PWs)   bands (ev):

   -13.2680 -13.2680 -13.2680 -13.2680 -13.2372 -13.2372 -13.2372 -13.2372
   -13.2246 -13.2246 -13.2246 -13.2246 -13.2036 -13.2036 -13.2036 -13.2036
   -13.1777 -13.1777 -13.1777 -13.1777  -4.4337  -4.4337  -4.4337  -4.4337
     1.2857   1.2857   1.2857   1.2857   3.5279   3.5279   3.5279   3.5279
     4.4703   4.4703   4.4703   4.4703   6.5800   6.5800   6.5800   6.5800
    10.6718  10.6718  10.6718  10.6718  12.5876  12.5876  12.5876  12.5876
    14.3712  14.3712

     occupation numbers 
     1.0000   1.0000   1.0000   1.0000   1.0000   1.0000   1.0000   1.0000
     1.0000   1.0000   1.0000   1.0000   1.0000   1.0000   1.0000   1.0000
     1.0000   1.0000   1.0000   1.0000   1.0000   1.0000   1.0000   1.0000
     1.0000   1.0000   1.0000   1.0000   1.0000   1.0000   1.0000   1.0000
     1.0000   1.0000   1.0000   1.0000   1.0000   1.0000   1.0000   1.0000
     0.0000   0.0000   0.0000   0.0000   0.0000   0.0000   0.0000   0.0000
     0.0000   0.0000

          k =-0.5000-1.3581-1.2807 (  8472 PWs)   bands (ev):

   -13.2687 -13.2687 -13.2687 -13.2687 -13.2371 -13.2371 -13.2371 -13.2371
   -13.2244 -13.2244 -13.2244 -13.2244 -13.2033 -13.2033 -13.2033 -13.2033
   -13.1776 -13.1776 -13.1776 -13.1776  -4.4167  -4.4167  -4.4167  -4.4167
     1.3460   1.3460   1.3460   1.3460   3.4562   3.4562   3.4562   3.4562
     4.3146   4.3146   4.3146   4.3146   6.5937   6.5937   6.5937   6.5937
    10.6238  10.6238  10.6238  10.6238  12.8388  12.8388  12.8388  12.8388
    14.6037  14.6037

     occupation numbers 
     1.0000   1.0000   1.0000   1.0000   1.0000   1.0000   1.0000   1.0000
     1.0000   1.0000   1.0000   1.0000   1.0000   1.0000   1.0000   1.0000
     1.0000   1.0000   1.0000   1.0000   1.0000   1.0000   1.0000   1.0000
     1.0000   1.0000   1.0000   1.0000   1.0000   1.0000   1.0000   1.0000
     1.0000   1.0000   1.0000   1.0000   1.0000   1.0000   1.0000   1.0000
     0.0000   0.0000   0.0000   0.0000   0.0000   0.0000   0.0000   0.0000
     0.0000   0.0000

     highest occupied, lowest unoccupied level (ev):     8.0983    8.6727

!    total energy              =    -827.62114126 Ry
     estimated scf accuracy    <          9.8E-10 Ry

     The total energy is the sum of the following terms:
     one-electron contribution =    -257.00352093 Ry
     hartree contribution      =     179.10590866 Ry
     xc contribution           =    -309.11871279 Ry
     ewald contribution        =    -440.60481620 Ry

     convergence has been achieved in   9 iterations

     Forces acting on atoms (cartesian axes, Ry/au):

     atom    1 type  2   force =     0.00869457    0.00000000   -0.00116291
     atom    2 type  1   force =    -0.00816789   -0.00000000   -0.00147483
     atom    3 type  2   force =    -0.00869457    0.00000000   -0.00116291
     atom    4 type  1   force =     0.00816789    0.00000000   -0.00147483
     atom    5 type  2   force =     0.00869457    0.00000000    0.00116291
     atom    6 type  1   force =    -0.00816789    0.00000000    0.00147483
     atom    7 type  2   force =    -0.00869457    0.00000000    0.00116291
     atom    8 type  1   force =     0.00816789   -0.00000000    0.00147483
     The non-local contrib.  to forces
     atom    1 type  2   force =    -0.11420755    0.00000000    0.09803502
     atom    2 type  1   force =     0.36357829    0.00000000    0.27050727
     atom    3 type  2   force =     0.11420755    0.00000000    0.09803502
     atom    4 type  1   force =    -0.36357829    0.00000000    0.27050727
     atom    5 type  2   force =    -0.11420755    0.00000000   -0.09803502
     atom    6 type  1   force =     0.36357829    0.00000000   -0.27050727
     atom    7 type  2   force =     0.11420755    0.00000000   -0.09803502
     atom    8 type  1   force =    -0.36357829    0.00000000   -0.27050727
     The ionic contribution  to forces
     atom    1 type  2   force =     1.53473235    0.00000000   -1.05154455
     atom    2 type  1   force =    -1.03769718    0.00000000   -0.57506129
     atom    3 type  2   force =    -1.53473235    0.00000000   -1.05154455
     atom    4 type  1   force =     1.03769718   -0.00000000   -0.57506129
     atom    5 type  2   force =     1.53473235    0.00000000    1.05154455
     atom    6 type  1   force =    -1.03769718   -0.00000000    0.57506129
     atom    7 type  2   force =    -1.53473235   -0.00000000    1.05154455
     atom    8 type  1   force =     1.03769718    0.00000000    0.57506129
     The local contribution  to forces
     atom    1 type  2   force =    -1.42435477   -0.00000000    0.96318708
     atom    2 type  1   force =     0.67146999   -0.00000000    0.30755327
     atom    3 type  2   force =     1.42435477   -0.00000000    0.96318708
     atom    4 type  1   force =    -0.67146999    0.00000000    0.30755327
     atom    5 type  2   force =    -1.42435477    0.00000000   -0.96318708
     atom    6 type  1   force =     0.67146999    0.00000000   -0.30755327
     atom    7 type  2   force =     1.42435477    0.00000000   -0.96318708
     atom    8 type  1   force =    -0.67146999    0.00000000   -0.30755327
     The core correction contribution to forces
     atom    1 type  2   force =     0.01249774   -0.00000000   -0.01084065
     atom    2 type  1   force =    -0.00546993   -0.00000000   -0.00450301
     atom    3 type  2   force =    -0.01249774    0.00000000   -0.01084065
     atom    4 type  1   force =     0.00546993    0.00000000   -0.00450301
     atom    5 type  2   force =     0.01249774   -0.00000000    0.01084065
     atom    6 type  1   force =    -0.00546993   -0.00000000    0.00450301
     atom    7 type  2   force =    -0.01249774   -0.00000000    0.01084065
     atom    8 type  1   force =     0.00546993    0.00000000    0.00450301
     The Hubbard contrib.    to forces
     atom    1 type  2   force =     0.00000000    0.00000000    0.00000000
     atom    2 type  1   force =     0.00000000    0.00000000    0.00000000
     atom    3 type  2   force =     0.00000000    0.00000000    0.00000000
     atom    4 type  1   force =     0.00000000    0.00000000    0.00000000
     atom    5 type  2   force =     0.00000000    0.00000000    0.00000000
     atom    6 type  1   force =     0.00000000    0.00000000    0.00000000
     atom    7 type  2   force =     0.00000000    0.00000000    0.00000000
     atom    8 type  1   force =     0.00000000    0.00000000    0.00000000
     The SCF correction term to forces
     atom    1 type  2   force =     0.00002680   -0.00000000    0.00000020
     atom    2 type  1   force =    -0.00004906    0.00000000    0.00002894
     atom    3 type  2   force =    -0.00002680   -0.00000000    0.00000020
     atom    4 type  1   force =     0.00004906    0.00000000    0.00002894
     atom    5 type  2   force =     0.00002680    0.00000000   -0.00000020
     atom    6 type  1   force =    -0.00004906    0.00000000   -0.00002894
     atom    7 type  2   force =    -0.00002680   -0.00000000   -0.00000020
     atom    8 type  1   force =     0.00004906   -0.00000000   -0.00002894

     Total force =     0.024153     Total SCF correction =     0.000126

     Writing output data file ./tmp/SnSe_pnma.save/

     init_run     :     21.24s CPU     25.29s WALL (       1 calls)
     electrons    :    759.41s CPU    839.52s WALL (       1 calls)
     forces       :     14.91s CPU     17.34s WALL (       1 calls)

     Called by init_run:
     wfcinit      :     16.31s CPU     19.12s WALL (       1 calls)
     wfcinit:atom :      0.21s CPU      0.22s WALL (      25 calls)
     wfcinit:wfcr :     14.57s CPU     17.52s WALL (      25 calls)
     potinit      :      1.42s CPU      1.56s WALL (       1 calls)
     hinit0       :      2.37s CPU      2.40s WALL (       1 calls)

     Called by electrons:
     c_bands      :    664.54s CPU    730.66s WALL (       9 calls)
     sum_band     :     78.70s CPU     86.73s WALL (       9 calls)
     v_of_rho     :      4.67s CPU      5.31s WALL (      10 calls)
     v_h          :      0.33s CPU      0.33s WALL (      10 calls)
     v_xc         :      4.78s CPU      5.46s WALL (      11 calls)
     newd         :     11.58s CPU     18.01s WALL (      10 calls)
     mix_rho      :      0.83s CPU      0.80s WALL (       9 calls)

     Called by c_bands:
     init_us_2    :      6.47s CPU      5.69s WALL (     500 calls)
     cegterg      :    434.11s CPU    502.88s WALL (     225 calls)

     Called by sum_band:
     sum_band:wei :      0.04s CPU      0.03s WALL (       9 calls)
     sum_band:loo :     65.94s CPU     73.29s WALL (       9 calls)
     sum_band:buf :      0.54s CPU      0.43s WALL (     225 calls)
     sum_band:ini :      3.03s CPU      2.51s WALL (     225 calls)
     sum_band:cal :     14.50s CPU     25.25s WALL (     225 calls)
     sum_band:bec :      0.04s CPU      0.03s WALL (     225 calls)
     addusdens    :      5.58s CPU      6.33s WALL (       9 calls)
     addusd:skk   :      0.02s CPU      0.03s WALL (      18 calls)
     addusd:dgemm :      1.89s CPU      2.23s WALL (      18 calls)
     addusd:qvan2 :      3.04s CPU      2.87s WALL (      18 calls)

     Called by *egterg:
     cdiaghg      :     26.53s CPU     50.95s WALL (    1008 calls)
     cegterg:over :     50.64s CPU     86.25s WALL (     783 calls)
     cegterg:upda :     15.39s CPU      8.30s WALL (     783 calls)
     cegterg:last :     26.95s CPU     10.23s WALL (     477 calls)
     h_psi        :    269.74s CPU    286.87s WALL (    1033 calls)
     s_psi        :     28.09s CPU     10.52s WALL (    1033 calls)
     g_psi        :      2.30s CPU      1.97s WALL (     783 calls)

     Called by h_psi:
     h_psi:calbec :     47.06s CPU     82.90s WALL (    1033 calls)
     vloc_psi     :    192.70s CPU    191.46s WALL (    1033 calls)
     add_vuspsi   :     28.41s CPU     10.65s WALL (    1033 calls)

     General routines
     calbec       :     66.35s CPU    115.06s WALL (    1358 calls)
     fft          :      2.90s CPU      2.88s WALL (     139 calls)
     ffts         :      0.09s CPU      0.08s WALL (      19 calls)
     fftw         :    194.35s CPU    191.06s WALL (   72566 calls)
     interpolate  :      0.30s CPU      0.30s WALL (      10 calls)

     Parallel routines

     PWSCF        :  13m19.57s CPU  14m46.65s WALL


   This run was terminated on:  18:31:52  18May2026            

=------------------------------------------------------------------------------=
   JOB DONE.
=------------------------------------------------------------------------------=
