
     Program PWSCF v.6.7MaX starts on 18May2026 at 18: 6:10 

     This program is part of the open-source Quantum ESPRESSO suite
     for quantum simulation of materials; please cite
         "P. Giannozzi et al., J. Phys.:Condens. Matter 21 395502 (2009);
         "P. Giannozzi et al., J. Phys.:Condens. Matter 29 465901 (2017);
          URL http://www.quantum-espresso.org", 
     in publications or presentations arising from this work. More details at
     http://www.quantum-espresso.org/quote

     Parallel version (MPI), running on     6 processors

     MPI processes distributed on     1 nodes
     K-points division:     npool     =       6
     Waiting for input...
     Reading input from standard input

     Current dimensions of program PWSCF are:
     Max number of different atomic species (ntypx) = 10
     Max number of k-points (npk) =  40000
     Max angular momentum in pseudopotentials (lmaxx) =  3

     Subspace diagonalization in iterative solution of the eigenvalue problem:
     a serial algorithm will be used


     G-vector sticks info
     --------------------
     sticks:   dense  smooth     PW     G-vecs:    dense   smooth      PW
     Sum        6765    2711    787               269075    68055   10687



     bravais-lattice index     =            8
     lattice parameter (alat)  =      21.4862  a.u.
     unit-cell volume          =    1425.7436 (a.u.)^3
     number of atoms/cell      =            8
     number of atomic types    =            2
     number of electrons       =        80.00
     number of Kohn-Sham states=           50
     kinetic-energy cutoff     =      50.0000  Ry
     charge density cutoff     =     500.0000  Ry
     scf convergence threshold =      1.0E-08
     mixing beta               =       0.7000
     number of iterations used =            8  plain     mixing
     Exchange-correlation= SLA  PW   PBE  PBE
                           (   1   4   3   4   0   0   0)

     celldm(1)=  21.486186  celldm(2)=   0.368162  celldm(3)=   0.390413
     celldm(4)=   0.000000  celldm(5)=   0.000000  celldm(6)=   0.000000

     crystal axes: (cart. coord. in units of alat)
               a(1) = (   1.000000   0.000000   0.000000 )  
               a(2) = (   0.000000   0.368162   0.000000 )  
               a(3) = (   0.000000   0.000000   0.390413 )  

     reciprocal axes: (cart. coord. in units 2 pi/alat)
               b(1) = (  1.000000  0.000000  0.000000 )  
               b(2) = (  0.000000  2.716197  0.000000 )  
               b(3) = (  0.000000  0.000000  2.561388 )  


     PseudoPot. # 1 for Sn read from file:
     ../pseudo/Sn_pbe_v1.uspp.F.UPF
     MD5 check sum: 4cf58ce39ec5d5d420df3dd08604eb00
     Pseudo is Ultrasoft + core correction, Zval = 14.0
     Generated by new atomic code, or converted to UPF format
     Using radial grid of  891 points,  6 beta functions with: 
                l(1) =   0
                l(2) =   0
                l(3) =   1
                l(4) =   1
                l(5) =   2
                l(6) =   2
     Q(r) pseudized with  6 coefficients,  rinner =    1.200   1.200   1.200
                                                       1.200   1.200

     PseudoPot. # 2 for Se read from file:
     ../pseudo/Se_pbe_v1.uspp.F.UPF
     MD5 check sum: 1b3568f3a8ae88f9a2a0ad0698632c85
     Pseudo is Ultrasoft + core correction, Zval =  6.0
     Generated by new atomic code, or converted to UPF format
     Using radial grid of  877 points,  6 beta functions with: 
                l(1) =   0
                l(2) =   0
                l(3) =   1
                l(4) =   1
                l(5) =   2
                l(6) =   2
     Q(r) pseudized with  8 coefficients,  rinner =    1.300   1.300   1.300
                                                       1.300   1.300

     atomic species   valence    mass     pseudopotential
        Sn            14.00   118.71000     Sn( 1.00)
        Se             6.00    78.97100     Se( 1.00)

      8 Sym. Ops., with inversion, found ( 6 have fractional translation)


                                    s                        frac. trans.

      isym =  1     identity                                     

 cryst.   s( 1) = (     1          0          0      )
                  (     0          1          0      )
                  (     0          0          1      )

 cart.    s( 1) = (  1.0000000  0.0000000  0.0000000 )
                  (  0.0000000  1.0000000  0.0000000 )
                  (  0.0000000  0.0000000  1.0000000 )


      isym =  2     180 deg rotation - cart. axis [0,0,1]        

 cryst.   s( 2) = (    -1          0          0      )    f =(  0.5000000 )
                  (     0         -1          0      )       (  0.0000000 )
                  (     0          0          1      )       (  0.5000000 )

 cart.    s( 2) = ( -1.0000000  0.0000000  0.0000000 )    f =(  0.5000000 )
                  (  0.0000000 -1.0000000  0.0000000 )       (  0.0000000 )
                  (  0.0000000  0.0000000  1.0000000 )       (  0.1952067 )


      isym =  3     180 deg rotation - cart. axis [0,1,0]        

 cryst.   s( 3) = (    -1          0          0      )    f =(  0.0000000 )
                  (     0          1          0      )       ( -0.5000000 )
                  (     0          0         -1      )       (  0.0000000 )

 cart.    s( 3) = ( -1.0000000  0.0000000  0.0000000 )    f =(  0.0000000 )
                  (  0.0000000  1.0000000  0.0000000 )       ( -0.1840809 )
                  (  0.0000000  0.0000000 -1.0000000 )       (  0.0000000 )


      isym =  4     180 deg rotation - cart. axis [1,0,0]        

 cryst.   s( 4) = (     1          0          0      )    f =(  0.5000000 )
                  (     0         -1          0      )       (  0.5000000 )
                  (     0          0         -1      )       (  0.5000000 )

 cart.    s( 4) = (  1.0000000  0.0000000  0.0000000 )    f =(  0.5000000 )
                  (  0.0000000 -1.0000000  0.0000000 )       (  0.1840809 )
                  (  0.0000000  0.0000000 -1.0000000 )       (  0.1952067 )


      isym =  5     inversion                                    

 cryst.   s( 5) = (    -1          0          0      )
                  (     0         -1          0      )
                  (     0          0         -1      )

 cart.    s( 5) = ( -1.0000000  0.0000000  0.0000000 )
                  (  0.0000000 -1.0000000  0.0000000 )
                  (  0.0000000  0.0000000 -1.0000000 )


      isym =  6     inv. 180 deg rotation - cart. axis [0,0,1]   

 cryst.   s( 6) = (     1          0          0      )    f =(  0.5000000 )
                  (     0          1          0      )       (  0.0000000 )
                  (     0          0         -1      )       (  0.5000000 )

 cart.    s( 6) = (  1.0000000  0.0000000  0.0000000 )    f =(  0.5000000 )
                  (  0.0000000  1.0000000  0.0000000 )       (  0.0000000 )
                  (  0.0000000  0.0000000 -1.0000000 )       (  0.1952067 )


      isym =  7     inv. 180 deg rotation - cart. axis [0,1,0]   

 cryst.   s( 7) = (     1          0          0      )    f =(  0.0000000 )
                  (     0         -1          0      )       (  0.5000000 )
                  (     0          0          1      )       (  0.0000000 )

 cart.    s( 7) = (  1.0000000  0.0000000  0.0000000 )    f =(  0.0000000 )
                  (  0.0000000 -1.0000000  0.0000000 )       (  0.1840809 )
                  (  0.0000000  0.0000000  1.0000000 )       (  0.0000000 )


      isym =  8     inv. 180 deg rotation - cart. axis [1,0,0]   

 cryst.   s( 8) = (    -1          0          0      )    f =(  0.5000000 )
                  (     0          1          0      )       ( -0.5000000 )
                  (     0          0          1      )       (  0.5000000 )

 cart.    s( 8) = ( -1.0000000  0.0000000  0.0000000 )    f =(  0.5000000 )
                  (  0.0000000  1.0000000  0.0000000 )       ( -0.1840809 )
                  (  0.0000000  0.0000000  1.0000000 )       (  0.1952067 )


     point group D_2h (mmm) 
     there are  8 classes
     the character table:

       E     C2    C2'   C2''  i     s_v   s_v'  s_v''
A_g    1.00  1.00  1.00  1.00  1.00  1.00  1.00  1.00
B_1g   1.00  1.00 -1.00 -1.00  1.00  1.00 -1.00 -1.00
B_2g   1.00 -1.00  1.00 -1.00  1.00 -1.00  1.00 -1.00
B_3g   1.00 -1.00 -1.00  1.00  1.00 -1.00 -1.00  1.00
A_u    1.00  1.00  1.00  1.00 -1.00 -1.00 -1.00 -1.00
B_1u   1.00  1.00 -1.00 -1.00 -1.00 -1.00  1.00  1.00
B_2u   1.00 -1.00  1.00 -1.00 -1.00  1.00 -1.00  1.00
B_3u   1.00 -1.00 -1.00  1.00 -1.00  1.00  1.00 -1.00

     the symmetry operations in each class and the name of the first element:

     E        1
          identity                                               
     C2       2
          180 deg rotation - cart. axis [0,0,1]                  
     C2'      4
          180 deg rotation - cart. axis [1,0,0]                  
     C2''     3
          180 deg rotation - cart. axis [0,1,0]                  
     i        5
          inversion                                              
     s_v      6
          inv. 180 deg rotation - cart. axis [0,0,1]             
     s_v'     8
          inv. 180 deg rotation - cart. axis [1,0,0]             
     s_v''    7
          inv. 180 deg rotation - cart. axis [0,1,0]             

   Cartesian axes

     site n.     atom                  positions (alat units)
         1           Se  tau(   1) = (   0.8555000   0.0920405   0.1884916  )
         2           Sn  tau(   2) = (   0.1187000   0.0920405   0.0385728  )
         3           Se  tau(   3) = (   0.6445000   0.2761214   0.3836983  )
         4           Sn  tau(   4) = (   0.3813000   0.2761214   0.2337795  )
         5           Se  tau(   5) = (   0.3555000   0.0920405   0.0067151  )
         6           Sn  tau(   6) = (   0.6187000   0.0920405   0.1566338  )
         7           Se  tau(   7) = (   0.1445000   0.2761214   0.2019218  )
         8           Sn  tau(   8) = (   0.8813000   0.2761214   0.3518405  )

   Crystallographic axes

     site n.     atom                  positions (cryst. coord.)
         1           Se  tau(   1) = (  0.8555000  0.2500000  0.4828000  )
         2           Sn  tau(   2) = (  0.1187000  0.2500000  0.0988000  )
         3           Se  tau(   3) = (  0.6445000  0.7500000  0.9828000  )
         4           Sn  tau(   4) = (  0.3813000  0.7500000  0.5988000  )
         5           Se  tau(   5) = (  0.3555000  0.2500000  0.0172000  )
         6           Sn  tau(   6) = (  0.6187000  0.2500000  0.4012000  )
         7           Se  tau(   7) = (  0.1445000  0.7500000  0.5172000  )
         8           Sn  tau(   8) = (  0.8813000  0.7500000  0.9012000  )

     number of k points=   108
                       cart. coord. in units 2pi/alat
        k(    1) = (   0.0000000   0.0000000   0.0000000), wk =   0.0050000
        k(    2) = (   0.0000000   0.0000000   0.2561388), wk =   0.0100000
        k(    3) = (   0.0000000   0.0000000   0.5122775), wk =   0.0100000
        k(    4) = (   0.0000000   0.0000000   0.7684163), wk =   0.0100000
        k(    5) = (   0.0000000   0.0000000   1.0245551), wk =   0.0100000
        k(    6) = (   0.0000000   0.0000000  -1.2806938), wk =   0.0050000
        k(    7) = (   0.0000000   0.2716197   0.0000000), wk =   0.0100000
        k(    8) = (   0.0000000   0.2716197   0.2561388), wk =   0.0200000
        k(    9) = (   0.0000000   0.2716197   0.5122775), wk =   0.0200000
        k(   10) = (   0.0000000   0.2716197   0.7684163), wk =   0.0200000
        k(   11) = (   0.0000000   0.2716197   1.0245551), wk =   0.0200000
        k(   12) = (   0.0000000   0.2716197  -1.2806938), wk =   0.0100000
        k(   13) = (   0.0000000   0.5432394   0.0000000), wk =   0.0100000
        k(   14) = (   0.0000000   0.5432394   0.2561388), wk =   0.0200000
        k(   15) = (   0.0000000   0.5432394   0.5122775), wk =   0.0200000
        k(   16) = (   0.0000000   0.5432394   0.7684163), wk =   0.0200000
        k(   17) = (   0.0000000   0.5432394   1.0245551), wk =   0.0200000
        k(   18) = (   0.0000000   0.5432394  -1.2806938), wk =   0.0100000
        k(   19) = (   0.0000000   0.8148591   0.0000000), wk =   0.0100000
        k(   20) = (   0.0000000   0.8148591   0.2561388), wk =   0.0200000
        k(   21) = (   0.0000000   0.8148591   0.5122775), wk =   0.0200000
        k(   22) = (   0.0000000   0.8148591   0.7684163), wk =   0.0200000
        k(   23) = (   0.0000000   0.8148591   1.0245551), wk =   0.0200000
        k(   24) = (   0.0000000   0.8148591  -1.2806938), wk =   0.0100000
        k(   25) = (   0.0000000   1.0864787   0.0000000), wk =   0.0100000
        k(   26) = (   0.0000000   1.0864787   0.2561388), wk =   0.0200000
        k(   27) = (   0.0000000   1.0864787   0.5122775), wk =   0.0200000
        k(   28) = (   0.0000000   1.0864787   0.7684163), wk =   0.0200000
        k(   29) = (   0.0000000   1.0864787   1.0245551), wk =   0.0200000
        k(   30) = (   0.0000000   1.0864787  -1.2806938), wk =   0.0100000
        k(   31) = (   0.0000000  -1.3580984   0.0000000), wk =   0.0050000
        k(   32) = (   0.0000000  -1.3580984   0.2561388), wk =   0.0100000
        k(   33) = (   0.0000000  -1.3580984   0.5122775), wk =   0.0100000
        k(   34) = (   0.0000000  -1.3580984   0.7684163), wk =   0.0100000
        k(   35) = (   0.0000000  -1.3580984   1.0245551), wk =   0.0100000
        k(   36) = (   0.0000000  -1.3580984  -1.2806938), wk =   0.0050000
        k(   37) = (   0.2500000   0.0000000   0.0000000), wk =   0.0100000
        k(   38) = (   0.2500000   0.0000000   0.2561388), wk =   0.0200000
        k(   39) = (   0.2500000   0.0000000   0.5122775), wk =   0.0200000
        k(   40) = (   0.2500000   0.0000000   0.7684163), wk =   0.0200000
        k(   41) = (   0.2500000   0.0000000   1.0245551), wk =   0.0200000
        k(   42) = (   0.2500000   0.0000000  -1.2806938), wk =   0.0100000
        k(   43) = (   0.2500000   0.2716197   0.0000000), wk =   0.0200000
        k(   44) = (   0.2500000   0.2716197   0.2561388), wk =   0.0400000
        k(   45) = (   0.2500000   0.2716197   0.5122775), wk =   0.0400000
        k(   46) = (   0.2500000   0.2716197   0.7684163), wk =   0.0400000
        k(   47) = (   0.2500000   0.2716197   1.0245551), wk =   0.0400000
        k(   48) = (   0.2500000   0.2716197  -1.2806938), wk =   0.0200000
        k(   49) = (   0.2500000   0.5432394   0.0000000), wk =   0.0200000
        k(   50) = (   0.2500000   0.5432394   0.2561388), wk =   0.0400000
        k(   51) = (   0.2500000   0.5432394   0.5122775), wk =   0.0400000
        k(   52) = (   0.2500000   0.5432394   0.7684163), wk =   0.0400000
        k(   53) = (   0.2500000   0.5432394   1.0245551), wk =   0.0400000
        k(   54) = (   0.2500000   0.5432394  -1.2806938), wk =   0.0200000
        k(   55) = (   0.2500000   0.8148591   0.0000000), wk =   0.0200000
        k(   56) = (   0.2500000   0.8148591   0.2561388), wk =   0.0400000
        k(   57) = (   0.2500000   0.8148591   0.5122775), wk =   0.0400000
        k(   58) = (   0.2500000   0.8148591   0.7684163), wk =   0.0400000
        k(   59) = (   0.2500000   0.8148591   1.0245551), wk =   0.0400000
        k(   60) = (   0.2500000   0.8148591  -1.2806938), wk =   0.0200000
        k(   61) = (   0.2500000   1.0864787   0.0000000), wk =   0.0200000
        k(   62) = (   0.2500000   1.0864787   0.2561388), wk =   0.0400000
        k(   63) = (   0.2500000   1.0864787   0.5122775), wk =   0.0400000
        k(   64) = (   0.2500000   1.0864787   0.7684163), wk =   0.0400000
        k(   65) = (   0.2500000   1.0864787   1.0245551), wk =   0.0400000
        k(   66) = (   0.2500000   1.0864787  -1.2806938), wk =   0.0200000
        k(   67) = (   0.2500000  -1.3580984   0.0000000), wk =   0.0100000
        k(   68) = (   0.2500000  -1.3580984   0.2561388), wk =   0.0200000
        k(   69) = (   0.2500000  -1.3580984   0.5122775), wk =   0.0200000
        k(   70) = (   0.2500000  -1.3580984   0.7684163), wk =   0.0200000
        k(   71) = (   0.2500000  -1.3580984   1.0245551), wk =   0.0200000
        k(   72) = (   0.2500000  -1.3580984  -1.2806938), wk =   0.0100000
        k(   73) = (  -0.5000000   0.0000000   0.0000000), wk =   0.0050000
        k(   74) = (  -0.5000000   0.0000000   0.2561388), wk =   0.0100000
        k(   75) = (  -0.5000000   0.0000000   0.5122775), wk =   0.0100000
        k(   76) = (  -0.5000000   0.0000000   0.7684163), wk =   0.0100000
        k(   77) = (  -0.5000000   0.0000000   1.0245551), wk =   0.0100000
        k(   78) = (  -0.5000000   0.0000000  -1.2806938), wk =   0.0050000
        k(   79) = (  -0.5000000   0.2716197   0.0000000), wk =   0.0100000
        k(   80) = (  -0.5000000   0.2716197   0.2561388), wk =   0.0200000
        k(   81) = (  -0.5000000   0.2716197   0.5122775), wk =   0.0200000
        k(   82) = (  -0.5000000   0.2716197   0.7684163), wk =   0.0200000
        k(   83) = (  -0.5000000   0.2716197   1.0245551), wk =   0.0200000
        k(   84) = (  -0.5000000   0.2716197  -1.2806938), wk =   0.0100000
        k(   85) = (  -0.5000000   0.5432394   0.0000000), wk =   0.0100000
        k(   86) = (  -0.5000000   0.5432394   0.2561388), wk =   0.0200000
        k(   87) = (  -0.5000000   0.5432394   0.5122775), wk =   0.0200000
        k(   88) = (  -0.5000000   0.5432394   0.7684163), wk =   0.0200000
        k(   89) = (  -0.5000000   0.5432394   1.0245551), wk =   0.0200000
        k(   90) = (  -0.5000000   0.5432394  -1.2806938), wk =   0.0100000
        k(   91) = (  -0.5000000   0.8148591   0.0000000), wk =   0.0100000
        k(   92) = (  -0.5000000   0.8148591   0.2561388), wk =   0.0200000
        k(   93) = (  -0.5000000   0.8148591   0.5122775), wk =   0.0200000
        k(   94) = (  -0.5000000   0.8148591   0.7684163), wk =   0.0200000
        k(   95) = (  -0.5000000   0.8148591   1.0245551), wk =   0.0200000
        k(   96) = (  -0.5000000   0.8148591  -1.2806938), wk =   0.0100000
        k(   97) = (  -0.5000000   1.0864787   0.0000000), wk =   0.0100000
        k(   98) = (  -0.5000000   1.0864787   0.2561388), wk =   0.0200000
        k(   99) = (  -0.5000000   1.0864787   0.5122775), wk =   0.0200000
        k(  100) = (  -0.5000000   1.0864787   0.7684163), wk =   0.0200000
        k(  101) = (  -0.5000000   1.0864787   1.0245551), wk =   0.0200000
        k(  102) = (  -0.5000000   1.0864787  -1.2806938), wk =   0.0100000
        k(  103) = (  -0.5000000  -1.3580984   0.0000000), wk =   0.0050000
        k(  104) = (  -0.5000000  -1.3580984   0.2561388), wk =   0.0100000
        k(  105) = (  -0.5000000  -1.3580984   0.5122775), wk =   0.0100000
        k(  106) = (  -0.5000000  -1.3580984   0.7684163), wk =   0.0100000
        k(  107) = (  -0.5000000  -1.3580984   1.0245551), wk =   0.0100000
        k(  108) = (  -0.5000000  -1.3580984  -1.2806938), wk =   0.0050000

                       cryst. coord.
        k(    1) = (   0.0000000   0.0000000   0.0000000), wk =   0.0050000
        k(    2) = (   0.0000000   0.0000000   0.1000000), wk =   0.0100000
        k(    3) = (   0.0000000   0.0000000   0.2000000), wk =   0.0100000
        k(    4) = (   0.0000000   0.0000000   0.3000000), wk =   0.0100000
        k(    5) = (   0.0000000   0.0000000   0.4000000), wk =   0.0100000
        k(    6) = (   0.0000000   0.0000000  -0.5000000), wk =   0.0050000
        k(    7) = (   0.0000000   0.1000000   0.0000000), wk =   0.0100000
        k(    8) = (   0.0000000   0.1000000   0.1000000), wk =   0.0200000
        k(    9) = (   0.0000000   0.1000000   0.2000000), wk =   0.0200000
        k(   10) = (   0.0000000   0.1000000   0.3000000), wk =   0.0200000
        k(   11) = (   0.0000000   0.1000000   0.4000000), wk =   0.0200000
        k(   12) = (   0.0000000   0.1000000  -0.5000000), wk =   0.0100000
        k(   13) = (   0.0000000   0.2000000   0.0000000), wk =   0.0100000
        k(   14) = (   0.0000000   0.2000000   0.1000000), wk =   0.0200000
        k(   15) = (   0.0000000   0.2000000   0.2000000), wk =   0.0200000
        k(   16) = (   0.0000000   0.2000000   0.3000000), wk =   0.0200000
        k(   17) = (   0.0000000   0.2000000   0.4000000), wk =   0.0200000
        k(   18) = (   0.0000000   0.2000000  -0.5000000), wk =   0.0100000
        k(   19) = (   0.0000000   0.3000000   0.0000000), wk =   0.0100000
        k(   20) = (   0.0000000   0.3000000   0.1000000), wk =   0.0200000
        k(   21) = (   0.0000000   0.3000000   0.2000000), wk =   0.0200000
        k(   22) = (   0.0000000   0.3000000   0.3000000), wk =   0.0200000
        k(   23) = (   0.0000000   0.3000000   0.4000000), wk =   0.0200000
        k(   24) = (   0.0000000   0.3000000  -0.5000000), wk =   0.0100000
        k(   25) = (   0.0000000   0.4000000   0.0000000), wk =   0.0100000
        k(   26) = (   0.0000000   0.4000000   0.1000000), wk =   0.0200000
        k(   27) = (   0.0000000   0.4000000   0.2000000), wk =   0.0200000
        k(   28) = (   0.0000000   0.4000000   0.3000000), wk =   0.0200000
        k(   29) = (   0.0000000   0.4000000   0.4000000), wk =   0.0200000
        k(   30) = (   0.0000000   0.4000000  -0.5000000), wk =   0.0100000
        k(   31) = (   0.0000000  -0.5000000   0.0000000), wk =   0.0050000
        k(   32) = (   0.0000000  -0.5000000   0.1000000), wk =   0.0100000
        k(   33) = (   0.0000000  -0.5000000   0.2000000), wk =   0.0100000
        k(   34) = (   0.0000000  -0.5000000   0.3000000), wk =   0.0100000
        k(   35) = (   0.0000000  -0.5000000   0.4000000), wk =   0.0100000
        k(   36) = (   0.0000000  -0.5000000  -0.5000000), wk =   0.0050000
        k(   37) = (   0.2500000   0.0000000   0.0000000), wk =   0.0100000
        k(   38) = (   0.2500000   0.0000000   0.1000000), wk =   0.0200000
        k(   39) = (   0.2500000   0.0000000   0.2000000), wk =   0.0200000
        k(   40) = (   0.2500000   0.0000000   0.3000000), wk =   0.0200000
        k(   41) = (   0.2500000   0.0000000   0.4000000), wk =   0.0200000
        k(   42) = (   0.2500000   0.0000000  -0.5000000), wk =   0.0100000
        k(   43) = (   0.2500000   0.1000000   0.0000000), wk =   0.0200000
        k(   44) = (   0.2500000   0.1000000   0.1000000), wk =   0.0400000
        k(   45) = (   0.2500000   0.1000000   0.2000000), wk =   0.0400000
        k(   46) = (   0.2500000   0.1000000   0.3000000), wk =   0.0400000
        k(   47) = (   0.2500000   0.1000000   0.4000000), wk =   0.0400000
        k(   48) = (   0.2500000   0.1000000  -0.5000000), wk =   0.0200000
        k(   49) = (   0.2500000   0.2000000   0.0000000), wk =   0.0200000
        k(   50) = (   0.2500000   0.2000000   0.1000000), wk =   0.0400000
        k(   51) = (   0.2500000   0.2000000   0.2000000), wk =   0.0400000
        k(   52) = (   0.2500000   0.2000000   0.3000000), wk =   0.0400000
        k(   53) = (   0.2500000   0.2000000   0.4000000), wk =   0.0400000
        k(   54) = (   0.2500000   0.2000000  -0.5000000), wk =   0.0200000
        k(   55) = (   0.2500000   0.3000000   0.0000000), wk =   0.0200000
        k(   56) = (   0.2500000   0.3000000   0.1000000), wk =   0.0400000
        k(   57) = (   0.2500000   0.3000000   0.2000000), wk =   0.0400000
        k(   58) = (   0.2500000   0.3000000   0.3000000), wk =   0.0400000
        k(   59) = (   0.2500000   0.3000000   0.4000000), wk =   0.0400000
        k(   60) = (   0.2500000   0.3000000  -0.5000000), wk =   0.0200000
        k(   61) = (   0.2500000   0.4000000   0.0000000), wk =   0.0200000
        k(   62) = (   0.2500000   0.4000000   0.1000000), wk =   0.0400000
        k(   63) = (   0.2500000   0.4000000   0.2000000), wk =   0.0400000
        k(   64) = (   0.2500000   0.4000000   0.3000000), wk =   0.0400000
        k(   65) = (   0.2500000   0.4000000   0.4000000), wk =   0.0400000
        k(   66) = (   0.2500000   0.4000000  -0.5000000), wk =   0.0200000
        k(   67) = (   0.2500000  -0.5000000   0.0000000), wk =   0.0100000
        k(   68) = (   0.2500000  -0.5000000   0.1000000), wk =   0.0200000
        k(   69) = (   0.2500000  -0.5000000   0.2000000), wk =   0.0200000
        k(   70) = (   0.2500000  -0.5000000   0.3000000), wk =   0.0200000
        k(   71) = (   0.2500000  -0.5000000   0.4000000), wk =   0.0200000
        k(   72) = (   0.2500000  -0.5000000  -0.5000000), wk =   0.0100000
        k(   73) = (  -0.5000000   0.0000000   0.0000000), wk =   0.0050000
        k(   74) = (  -0.5000000   0.0000000   0.1000000), wk =   0.0100000
        k(   75) = (  -0.5000000   0.0000000   0.2000000), wk =   0.0100000
        k(   76) = (  -0.5000000   0.0000000   0.3000000), wk =   0.0100000
        k(   77) = (  -0.5000000   0.0000000   0.4000000), wk =   0.0100000
        k(   78) = (  -0.5000000   0.0000000  -0.5000000), wk =   0.0050000
        k(   79) = (  -0.5000000   0.1000000   0.0000000), wk =   0.0100000
        k(   80) = (  -0.5000000   0.1000000   0.1000000), wk =   0.0200000
        k(   81) = (  -0.5000000   0.1000000   0.2000000), wk =   0.0200000
        k(   82) = (  -0.5000000   0.1000000   0.3000000), wk =   0.0200000
        k(   83) = (  -0.5000000   0.1000000   0.4000000), wk =   0.0200000
        k(   84) = (  -0.5000000   0.1000000  -0.5000000), wk =   0.0100000
        k(   85) = (  -0.5000000   0.2000000   0.0000000), wk =   0.0100000
        k(   86) = (  -0.5000000   0.2000000   0.1000000), wk =   0.0200000
        k(   87) = (  -0.5000000   0.2000000   0.2000000), wk =   0.0200000
        k(   88) = (  -0.5000000   0.2000000   0.3000000), wk =   0.0200000
        k(   89) = (  -0.5000000   0.2000000   0.4000000), wk =   0.0200000
        k(   90) = (  -0.5000000   0.2000000  -0.5000000), wk =   0.0100000
        k(   91) = (  -0.5000000   0.3000000   0.0000000), wk =   0.0100000
        k(   92) = (  -0.5000000   0.3000000   0.1000000), wk =   0.0200000
        k(   93) = (  -0.5000000   0.3000000   0.2000000), wk =   0.0200000
        k(   94) = (  -0.5000000   0.3000000   0.3000000), wk =   0.0200000
        k(   95) = (  -0.5000000   0.3000000   0.4000000), wk =   0.0200000
        k(   96) = (  -0.5000000   0.3000000  -0.5000000), wk =   0.0100000
        k(   97) = (  -0.5000000   0.4000000   0.0000000), wk =   0.0100000
        k(   98) = (  -0.5000000   0.4000000   0.1000000), wk =   0.0200000
        k(   99) = (  -0.5000000   0.4000000   0.2000000), wk =   0.0200000
        k(  100) = (  -0.5000000   0.4000000   0.3000000), wk =   0.0200000
        k(  101) = (  -0.5000000   0.4000000   0.4000000), wk =   0.0200000
        k(  102) = (  -0.5000000   0.4000000  -0.5000000), wk =   0.0100000
        k(  103) = (  -0.5000000  -0.5000000   0.0000000), wk =   0.0050000
        k(  104) = (  -0.5000000  -0.5000000   0.1000000), wk =   0.0100000
        k(  105) = (  -0.5000000  -0.5000000   0.2000000), wk =   0.0100000
        k(  106) = (  -0.5000000  -0.5000000   0.3000000), wk =   0.0100000
        k(  107) = (  -0.5000000  -0.5000000   0.4000000), wk =   0.0100000
        k(  108) = (  -0.5000000  -0.5000000  -0.5000000), wk =   0.0050000

     Dense  grid:   269075 G-vectors     FFT dimensions: ( 160,  60,  60)

     Smooth grid:    68055 G-vectors     FFT dimensions: ( 100,  36,  40)

     Dynamical RAM for                 wfc:       6.49 MB

     Dynamical RAM for     wfc (w. buffer):     123.39 MB

     Dynamical RAM for           str. fact:       8.21 MB

     Dynamical RAM for           local pot:       0.00 MB

     Dynamical RAM for          nlocal pot:      18.70 MB

     Dynamical RAM for                qrad:       3.59 MB

     Dynamical RAM for          rho,v,vnew:      25.50 MB

     Dynamical RAM for               rhoin:       8.50 MB

     Dynamical RAM for            rho*nmix:      65.69 MB

     Dynamical RAM for           G-vectors:      15.92 MB

     Dynamical RAM for          h,s,v(r/c):       0.46 MB

     Dynamical RAM for          <psi|beta>:       0.11 MB

     Dynamical RAM for                 psi:      12.99 MB

     Dynamical RAM for                hpsi:      12.99 MB

     Dynamical RAM for                spsi:      12.99 MB

     Dynamical RAM for      wfcinit/wfcrot:      13.57 MB

     Dynamical RAM for           addusdens:     133.43 MB

     Dynamical RAM for          addusforce:     136.19 MB

     Estimated static dynamical RAM per process >     303.79 MB

     Estimated max dynamical RAM per process >     439.98 MB

     Estimated total dynamical RAM >       2.58 GB

     Initial potential from superposition of free atoms

     starting charge   75.99954, renormalised to   80.00000
     Starting wfcs are   52 randomized atomic wfcs

     total cpu time spent up to now is       22.5 secs

     Self-consistent Calculation

     iteration #  1     ecut=    50.00 Ry     beta= 0.70
     Davidson diagonalization with overlap
     ethr =  1.00E-02,  avg # of iterations =  3.8

     total cpu time spent up to now is       95.4 secs

     total energy              =    -826.55277322 Ry
     estimated scf accuracy    <       2.63045232 Ry

     iteration #  2     ecut=    50.00 Ry     beta= 0.70
     Davidson diagonalization with overlap
     ethr =  3.29E-03,  avg # of iterations =  2.0

     total cpu time spent up to now is      156.5 secs

     total energy              =    -827.33845251 Ry
     estimated scf accuracy    <       1.08895737 Ry

     iteration #  3     ecut=    50.00 Ry     beta= 0.70
     Davidson diagonalization with overlap
     ethr =  1.36E-03,  avg # of iterations =  2.0

     total cpu time spent up to now is      214.5 secs

     total energy              =    -827.60916872 Ry
     estimated scf accuracy    <       0.06118795 Ry

     iteration #  4     ecut=    50.00 Ry     beta= 0.70
     Davidson diagonalization with overlap
     ethr =  7.65E-05,  avg # of iterations =  3.5

     total cpu time spent up to now is      276.9 secs

     total energy              =    -827.62030060 Ry
     estimated scf accuracy    <       0.00294717 Ry

     iteration #  5     ecut=    50.00 Ry     beta= 0.70
     Davidson diagonalization with overlap
     c_bands:  1 eigenvalues not converged
     ethr =  3.68E-06,  avg # of iterations =  6.0

     total cpu time spent up to now is      349.8 secs

     total energy              =    -827.62095359 Ry
     estimated scf accuracy    <       0.00081080 Ry

     iteration #  6     ecut=    50.00 Ry     beta= 0.70
     Davidson diagonalization with overlap
     ethr =  1.01E-06,  avg # of iterations =  2.2

     total cpu time spent up to now is      406.2 secs

     total energy              =    -827.62112860 Ry
     estimated scf accuracy    <       0.00004436 Ry

     iteration #  7     ecut=    50.00 Ry     beta= 0.70
     Davidson diagonalization with overlap
     ethr =  5.54E-08,  avg # of iterations =  5.0

     total cpu time spent up to now is      490.7 secs

     total energy              =    -827.62115655 Ry
     estimated scf accuracy    <       0.00000260 Ry

     iteration #  8     ecut=    50.00 Ry     beta= 0.70
     Davidson diagonalization with overlap
     ethr =  3.25E-09,  avg # of iterations =  3.5

     total cpu time spent up to now is      562.6 secs

     total energy              =    -827.62115765 Ry
     estimated scf accuracy    <       0.00000043 Ry

     iteration #  9     ecut=    50.00 Ry     beta= 0.70
     Davidson diagonalization with overlap
     ethr =  5.41E-10,  avg # of iterations =  2.9

     total cpu time spent up to now is      638.3 secs

     End of self-consistent calculation

          k = 0.0000 0.0000 0.0000 (  8475 PWs)   bands (ev):

   -13.2664 -13.2549 -13.2517 -13.2493 -13.2492 -13.2452 -13.2424 -13.2381
   -13.2346 -13.2330 -13.2328 -13.2254 -13.2181 -13.2112 -13.1970 -13.1924
   -13.1871 -13.1838 -13.1756 -13.1663  -5.7488  -5.3986  -4.6625  -4.1627
     0.8107   1.9491   2.5388   3.0741   3.2285   4.6620   4.7018   4.7759
     5.1807   5.2371   5.8089   6.3102   6.5337   6.9878   7.3973   7.5667
     8.8498  10.9496  11.0985  11.1318  11.3564  11.4509  12.3331  12.6290
    12.7032  12.7420

     occupation numbers 
     1.0000   1.0000   1.0000   1.0000   1.0000   1.0000   1.0000   1.0000
     1.0000   1.0000   1.0000   1.0000   1.0000   1.0000   1.0000   1.0000
     1.0000   1.0000   1.0000   1.0000   1.0000   1.0000   1.0000   1.0000
     1.0000   1.0000   1.0000   1.0000   1.0000   1.0000   1.0000   1.0000
     1.0000   1.0000   1.0000   1.0000   1.0000   1.0000   1.0000   1.0000
     0.0000   0.0000   0.0000   0.0000   0.0000   0.0000   0.0000   0.0000
     0.0000   0.0000

          k = 0.0000 0.0000 0.2561 (  8509 PWs)   bands (ev):

   -13.2658 -13.2544 -13.2517 -13.2499 -13.2489 -13.2460 -13.2427 -13.2385
   -13.2343 -13.2326 -13.2312 -13.2256 -13.2178 -13.2115 -13.1971 -13.1921
   -13.1876 -13.1841 -13.1753 -13.1666  -5.7056  -5.3591  -4.6559  -4.1731
     0.6589   1.8556   2.3248   2.8745   3.2087   4.6979   4.7279   5.0484
     5.2403   5.5575   5.8534   6.3496   6.5568   7.1771   7.2710   7.5924
     8.8785  10.5682  11.1255  11.1444  11.2654  11.2823  12.3421  12.4257
    12.4420  12.6752

     occupation numbers 
     1.0000   1.0000   1.0000   1.0000   1.0000   1.0000   1.0000   1.0000
     1.0000   1.0000   1.0000   1.0000   1.0000   1.0000   1.0000   1.0000
     1.0000   1.0000   1.0000   1.0000   1.0000   1.0000   1.0000   1.0000
     1.0000   1.0000   1.0000   1.0000   1.0000   1.0000   1.0000   1.0000
     1.0000   1.0000   1.0000   1.0000   1.0000   1.0000   1.0000   1.0000
     0.0000   0.0000   0.0000   0.0000   0.0000   0.0000   0.0000   0.0000
     0.0000   0.0000

          k = 0.0000 0.0000 0.5123 (  8475 PWs)   bands (ev):

   -13.2641 -13.2529 -13.2520 -13.2511 -13.2481 -13.2480 -13.2433 -13.2396
   -13.2333 -13.2302 -13.2280 -13.2259 -13.2171 -13.2122 -13.1971 -13.1914
   -13.1886 -13.1848 -13.1746 -13.1671  -5.5807  -5.2446  -4.6479  -4.2114
     0.3316   1.6288   1.7013   2.5640   3.2581   4.8961   4.9200   5.4131
     5.4887   5.9696   6.0353   6.6061   6.6832   7.0005   7.5647   7.6012
     9.0527   9.8339  10.4999  10.6460  11.1040  11.5030  11.6414  11.8689
    12.6084  12.8009

     occupation numbers 
     1.0000   1.0000   1.0000   1.0000   1.0000   1.0000   1.0000   1.0000
     1.0000   1.0000   1.0000   1.0000   1.0000   1.0000   1.0000   1.0000
     1.0000   1.0000   1.0000   1.0000   1.0000   1.0000   1.0000   1.0000
     1.0000   1.0000   1.0000   1.0000   1.0000   1.0000   1.0000   1.0000
     1.0000   1.0000   1.0000   1.0000   1.0000   1.0000   1.0000   1.0000
     0.0000   0.0000   0.0000   0.0000   0.0000   0.0000   0.0000   0.0000
     0.0000   0.0000

          k = 0.0000 0.0000 0.7684 (  8501 PWs)   bands (ev):

   -13.2617 -13.2527 -13.2526 -13.2512 -13.2504 -13.2474 -13.2440 -13.2412
   -13.2320 -13.2266 -13.2264 -13.2242 -13.2166 -13.2135 -13.1967 -13.1904
   -13.1902 -13.1859 -13.1735 -13.1681  -5.3893  -5.0682  -4.6712  -4.2945
     0.0393   1.0179   1.4119   2.1277   3.5216   5.0478   5.2194   5.6788
     5.9559   6.0962   6.2942   6.6219   6.8247   7.3668   7.4695   8.0404
     9.1229   9.4250   9.8097   9.8899  10.6863  10.8324  11.2678  11.3445
    12.2523  12.3647

     occupation numbers 
     1.0000   1.0000   1.0000   1.0000   1.0000   1.0000   1.0000   1.0000
     1.0000   1.0000   1.0000   1.0000   1.0000   1.0000   1.0000   1.0000
     1.0000   1.0000   1.0000   1.0000   1.0000   1.0000   1.0000   1.0000
     1.0000   1.0000   1.0000   1.0000   1.0000   1.0000   1.0000   1.0000
     1.0000   1.0000   1.0000   1.0000   1.0000   1.0000   1.0000   1.0000
     0.0000   0.0000   0.0000   0.0000   0.0000   0.0000   0.0000   0.0000
     0.0000   0.0000

          k = 0.0000 0.0000 1.0246 (  8491 PWs)   bands (ev):

   -13.2590 -13.2541 -13.2536 -13.2525 -13.2494 -13.2473 -13.2443 -13.2428
   -13.2305 -13.2277 -13.2222 -13.2207 -13.2169 -13.2153 -13.1955 -13.1920
   -13.1892 -13.1870 -13.1722 -13.1694  -5.1599  -4.8529  -4.7629  -4.4357
    -0.0714   0.4460   1.3291   1.7177   3.9178   4.8378   5.5838   5.9973
     6.1165   6.4316   6.5162   6.5284   6.9613   7.4471   7.8062   8.0048
     9.0271   9.2817   9.5620   9.9029  10.0042  10.1212  10.6997  11.1003
    11.4705  11.6833

     occupation numbers 
     1.0000   1.0000   1.0000   1.0000   1.0000   1.0000   1.0000   1.0000
     1.0000   1.0000   1.0000   1.0000   1.0000   1.0000   1.0000   1.0000
     1.0000   1.0000   1.0000   1.0000   1.0000   1.0000   1.0000   1.0000
     1.0000   1.0000   1.0000   1.0000   1.0000   1.0000   1.0000   1.0000
     1.0000   1.0000   1.0000   1.0000   1.0000   1.0000   1.0000   1.0000
     0.0000   0.0000   0.0000   0.0000   0.0000   0.0000   0.0000   0.0000
     0.0000   0.0000

          k = 0.0000 0.0000-1.2807 (  8454 PWs)   bands (ev):

   -13.2563 -13.2563 -13.2536 -13.2536 -13.2481 -13.2481 -13.2439 -13.2439
   -13.2290 -13.2290 -13.2186 -13.2186 -13.2178 -13.2178 -13.1938 -13.1938
   -13.1881 -13.1881 -13.1707 -13.1707  -4.9351  -4.9351  -4.6304  -4.6304
     0.0660   0.0660   1.4338   1.4338   4.3884   4.3884   5.9273   5.9273
     6.3044   6.3044   6.6769   6.6769   7.2593   7.2593   7.7967   7.7967
     9.3214   9.3214   9.6526   9.6526   9.7890   9.7890  10.7606  10.7606
    11.2266  11.2266

     occupation numbers 
     1.0000   1.0000   1.0000   1.0000   1.0000   1.0000   1.0000   1.0000
     1.0000   1.0000   1.0000   1.0000   1.0000   1.0000   1.0000   1.0000
     1.0000   1.0000   1.0000   1.0000   1.0000   1.0000   1.0000   1.0000
     1.0000   1.0000   1.0000   1.0000   1.0000   1.0000   1.0000   1.0000
     1.0000   1.0000   1.0000   1.0000   1.0000   1.0000   1.0000   1.0000
     0.0000   0.0000   0.0000   0.0000   0.0000   0.0000   0.0000   0.0000
     0.0000   0.0000

          k = 0.0000 0.2716 0.0000 (  8490 PWs)   bands (ev):

   -13.2641 -13.2538 -13.2502 -13.2498 -13.2482 -13.2471 -13.2440 -13.2392
   -13.2361 -13.2315 -13.2307 -13.2271 -13.2165 -13.2115 -13.1959 -13.1930
   -13.1864 -13.1850 -13.1756 -13.1672  -5.6947  -5.3525  -4.6384  -4.1647
     0.7333   1.7887   2.4966   2.7686   3.2082   4.5879   4.8433   4.9159
     5.1652   5.2965   5.9531   6.3411   6.5207   7.1545   7.4050   7.5204
     8.9362  10.6361  10.9920  11.2797  11.2928  11.4313  12.0704  12.2679
    12.5073  12.8920

     occupation numbers 
     1.0000   1.0000   1.0000   1.0000   1.0000   1.0000   1.0000   1.0000
     1.0000   1.0000   1.0000   1.0000   1.0000   1.0000   1.0000   1.0000
     1.0000   1.0000   1.0000   1.0000   1.0000   1.0000   1.0000   1.0000
     1.0000   1.0000   1.0000   1.0000   1.0000   1.0000   1.0000   1.0000
     1.0000   1.0000   1.0000   1.0000   1.0000   1.0000   1.0000   1.0000
     0.0000   0.0000   0.0000   0.0000   0.0000   0.0000   0.0000   0.0000
     0.0000   0.0000

          k = 0.0000 0.2716 0.2561 (  8498 PWs)   bands (ev):

   -13.2636 -13.2534 -13.2507 -13.2498 -13.2479 -13.2475 -13.2443 -13.2398
   -13.2359 -13.2304 -13.2297 -13.2272 -13.2164 -13.2117 -13.1961 -13.1927
   -13.1868 -13.1853 -13.1754 -13.1674  -5.6521  -5.3136  -4.6316  -4.1739
     0.6126   1.7372   2.2708   2.6823   3.2014   4.4491   4.6110   5.2909
     5.4797   5.4837   5.8096   6.3884   6.6531   7.2820   7.3778   7.5598
     8.9686  10.2601  10.8456  11.1294  11.1345  11.4042  11.8635  12.2509
    12.5453  12.9710

     occupation numbers 
     1.0000   1.0000   1.0000   1.0000   1.0000   1.0000   1.0000   1.0000
     1.0000   1.0000   1.0000   1.0000   1.0000   1.0000   1.0000   1.0000
     1.0000   1.0000   1.0000   1.0000   1.0000   1.0000   1.0000   1.0000
     1.0000   1.0000   1.0000   1.0000   1.0000   1.0000   1.0000   1.0000
     1.0000   1.0000   1.0000   1.0000   1.0000   1.0000   1.0000   1.0000
     0.0000   0.0000   0.0000   0.0000   0.0000   0.0000   0.0000   0.0000
     0.0000   0.0000

          k = 0.0000 0.2716 0.5123 (  8496 PWs)   bands (ev):

   -13.2623 -13.2524 -13.2523 -13.2499 -13.2485 -13.2471 -13.2450 -13.2416
   -13.2349 -13.2277 -13.2274 -13.2270 -13.2161 -13.2121 -13.1961 -13.1919
   -13.1879 -13.1859 -13.1747 -13.1679  -5.5289  -5.2011  -4.6231  -4.2085
     0.3399   1.5932   1.6959   2.4472   3.3109   4.3873   4.5612   5.6752
     5.7506   5.8060   5.9444   6.3746   7.0688   7.0739   7.5669   7.7078
     9.1385   9.7388  10.0479  10.4812  11.1021  11.4136  11.7907  11.8677
    12.5427  12.8981

     occupation numbers 
     1.0000   1.0000   1.0000   1.0000   1.0000   1.0000   1.0000   1.0000
     1.0000   1.0000   1.0000   1.0000   1.0000   1.0000   1.0000   1.0000
     1.0000   1.0000   1.0000   1.0000   1.0000   1.0000   1.0000   1.0000
     1.0000   1.0000   1.0000   1.0000   1.0000   1.0000   1.0000   1.0000
     1.0000   1.0000   1.0000   1.0000   1.0000   1.0000   1.0000   1.0000
     0.0000   0.0000   0.0000   0.0000   0.0000   0.0000   0.0000   0.0000
     0.0000   0.0000

          k = 0.0000 0.2716 0.7684 (  8515 PWs)   bands (ev):

   -13.2605 -13.2541 -13.2522 -13.2504 -13.2488 -13.2468 -13.2454 -13.2436
   -13.2334 -13.2281 -13.2243 -13.2233 -13.2160 -13.2128 -13.1957 -13.1909
   -13.1894 -13.1868 -13.1737 -13.1688  -5.3407  -5.0284  -4.6443  -4.2852
     0.0868   1.0534   1.4349   2.0912   3.5802   4.5349   4.6763   5.6923
     5.8410   6.0209   6.3692   6.4057   7.0380   7.4080   7.5721   7.8049
     9.4434   9.4746   9.5898   9.7438  10.7982  10.8884  11.2433  11.8536
    12.5105  12.5699

     occupation numbers 
     1.0000   1.0000   1.0000   1.0000   1.0000   1.0000   1.0000   1.0000
     1.0000   1.0000   1.0000   1.0000   1.0000   1.0000   1.0000   1.0000
     1.0000   1.0000   1.0000   1.0000   1.0000   1.0000   1.0000   1.0000
     1.0000   1.0000   1.0000   1.0000   1.0000   1.0000   1.0000   1.0000
     1.0000   1.0000   1.0000   1.0000   1.0000   1.0000   1.0000   1.0000
     0.0000   0.0000   0.0000   0.0000   0.0000   0.0000   0.0000   0.0000
     0.0000   0.0000

          k = 0.0000 0.2716 1.0246 (  8490 PWs)   bands (ev):

   -13.2586 -13.2558 -13.2527 -13.2513 -13.2479 -13.2473 -13.2453 -13.2451
   -13.2318 -13.2290 -13.2208 -13.2196 -13.2165 -13.2142 -13.1946 -13.1911
   -13.1898 -13.1878 -13.1725 -13.1699  -5.1162  -4.8188  -4.7317  -4.4182
    -0.0055   0.5041   1.3744   1.7331   3.9607   4.6462   4.9501   5.6696
     5.6897   5.9472   6.4331   6.6716   7.2618   7.4733   7.6381   7.7789
     9.2465   9.2585   9.6224   9.6392  10.4898  10.5970  11.0739  11.3778
    11.9288  12.2106

     occupation numbers 
     1.0000   1.0000   1.0000   1.0000   1.0000   1.0000   1.0000   1.0000
     1.0000   1.0000   1.0000   1.0000   1.0000   1.0000   1.0000   1.0000
     1.0000   1.0000   1.0000   1.0000   1.0000   1.0000   1.0000   1.0000
     1.0000   1.0000   1.0000   1.0000   1.0000   1.0000   1.0000   1.0000
     1.0000   1.0000   1.0000   1.0000   1.0000   1.0000   1.0000   1.0000
     0.0000   0.0000   0.0000   0.0000   0.0000   0.0000   0.0000   0.0000
     0.0000   0.0000

          k = 0.0000 0.2716-1.2807 (  8490 PWs)   bands (ev):

   -13.2571 -13.2571 -13.2524 -13.2524 -13.2475 -13.2475 -13.2455 -13.2455
   -13.2303 -13.2303 -13.2181 -13.2181 -13.2164 -13.2164 -13.1929 -13.1929
   -13.1888 -13.1888 -13.1712 -13.1712  -4.8977  -4.8977  -4.6040  -4.6040
     0.1341   0.1341   1.4750   1.4750   4.3799   4.3799   5.3732   5.3732
     5.7545   5.7545   6.5826   6.5826   7.5750   7.5750   7.6067   7.6067
     9.1911   9.1911   9.5189   9.5189  10.6793  10.6793  11.0409  11.0409
    11.7627  11.7627

     occupation numbers 
     1.0000   1.0000   1.0000   1.0000   1.0000   1.0000   1.0000   1.0000
     1.0000   1.0000   1.0000   1.0000   1.0000   1.0000   1.0000   1.0000
     1.0000   1.0000   1.0000   1.0000   1.0000   1.0000   1.0000   1.0000
     1.0000   1.0000   1.0000   1.0000   1.0000   1.0000   1.0000   1.0000
     1.0000   1.0000   1.0000   1.0000   1.0000   1.0000   1.0000   1.0000
     0.0000   0.0000   0.0000   0.0000   0.0000   0.0000   0.0000   0.0000
     0.0000   0.0000

          k = 0.0000 0.5432 0.0000 (  8510 PWs)   bands (ev):

   -13.2582 -13.2532 -13.2522 -13.2486 -13.2481 -13.2456 -13.2449 -13.2421
   -13.2372 -13.2301 -13.2293 -13.2267 -13.2134 -13.2128 -13.1948 -13.1930
   -13.1887 -13.1844 -13.1756 -13.1693  -5.5376  -5.2209  -4.5787  -4.1848
     0.5348   1.4279   2.0975   2.2630   3.2885   4.6850   5.0413   5.1623
     5.1958   5.4627   6.2073   6.4193   6.5424   7.3627   7.4067   7.5923
     9.1541   9.5676  10.7040  10.9242  10.9886  11.4144  11.5791  11.9156
    12.6206  12.9464

     occupation numbers 
     1.0000   1.0000   1.0000   1.0000   1.0000   1.0000   1.0000   1.0000
     1.0000   1.0000   1.0000   1.0000   1.0000   1.0000   1.0000   1.0000
     1.0000   1.0000   1.0000   1.0000   1.0000   1.0000   1.0000   1.0000
     1.0000   1.0000   1.0000   1.0000   1.0000   1.0000   1.0000   1.0000
     1.0000   1.0000   1.0000   1.0000   1.0000   1.0000   1.0000   1.0000
     0.0000   0.0000   0.0000   0.0000   0.0000   0.0000   0.0000   0.0000
     0.0000   0.0000

          k = 0.0000 0.5432 0.2561 (  8517 PWs)   bands (ev):

   -13.2585 -13.2531 -13.2529 -13.2486 -13.2482 -13.2452 -13.2448 -13.2429
   -13.2368 -13.2301 -13.2285 -13.2257 -13.2142 -13.2120 -13.1948 -13.1928
   -13.1888 -13.1848 -13.1754 -13.1694  -5.4967  -5.1840  -4.5715  -4.1901
     0.4837   1.4427   2.0040   2.1945   3.3326   4.2618   4.5490   5.3739
     5.6229   5.7817   5.8585   6.3828   6.8615   7.3035   7.4560   7.6842
     9.1856   9.5070  10.2769  10.3835  11.0857  11.4507  11.8961  12.0324
    12.6009  12.7662

     occupation numbers 
     1.0000   1.0000   1.0000   1.0000   1.0000   1.0000   1.0000   1.0000
     1.0000   1.0000   1.0000   1.0000   1.0000   1.0000   1.0000   1.0000
     1.0000   1.0000   1.0000   1.0000   1.0000   1.0000   1.0000   1.0000
     1.0000   1.0000   1.0000   1.0000   1.0000   1.0000   1.0000   1.0000
     1.0000   1.0000   1.0000   1.0000   1.0000   1.0000   1.0000   1.0000
     0.0000   0.0000   0.0000   0.0000   0.0000   0.0000   0.0000   0.0000
     0.0000   0.0000

          k = 0.0000 0.5432 0.5123 (  8520 PWs)   bands (ev):

   -13.2593 -13.2548 -13.2527 -13.2499 -13.2471 -13.2449 -13.2449 -13.2442
   -13.2357 -13.2302 -13.2260 -13.2233 -13.2149 -13.2114 -13.1946 -13.1924
   -13.1893 -13.1857 -13.1749 -13.1697  -5.3792  -5.0780  -4.5605  -4.2128
     0.3532   1.4665   1.6402   2.0970   3.4847   3.9079   4.1524   5.2798
     5.4430   6.0976   6.2784   6.2983   7.0961   7.2138   7.4794   7.5705
     9.2618   9.6706   9.7420  10.1622  10.9766  11.2302  11.7118  12.3066
    12.7954  12.9605

     occupation numbers 
     1.0000   1.0000   1.0000   1.0000   1.0000   1.0000   1.0000   1.0000
     1.0000   1.0000   1.0000   1.0000   1.0000   1.0000   1.0000   1.0000
     1.0000   1.0000   1.0000   1.0000   1.0000   1.0000   1.0000   1.0000
     1.0000   1.0000   1.0000   1.0000   1.0000   1.0000   1.0000   1.0000
     1.0000   1.0000   1.0000   1.0000   1.0000   1.0000   1.0000   1.0000
     0.0000   0.0000   0.0000   0.0000   0.0000   0.0000   0.0000   0.0000
     0.0000   0.0000

          k = 0.0000 0.5432 0.7684 (  8522 PWs)   bands (ev):

   -13.2605 -13.2573 -13.2522 -13.2514 -13.2474 -13.2453 -13.2453 -13.2432
   -13.2344 -13.2306 -13.2228 -13.2201 -13.2154 -13.2115 -13.1940 -13.1917
   -13.1900 -13.1870 -13.1740 -13.1703  -5.2014  -4.9172  -4.5747  -4.2697
     0.2182   1.1392   1.4720   1.9463   3.7454   3.8213   4.0499   5.1788
     5.2442   5.9319   6.1134   6.5784   6.8877   7.2463   7.3025   7.5659
     9.1236   9.5304  10.2044  10.5652  10.8126  11.1006  11.5201  12.5724
    12.8638  13.0897

     occupation numbers 
     1.0000   1.0000   1.0000   1.0000   1.0000   1.0000   1.0000   1.0000
     1.0000   1.0000   1.0000   1.0000   1.0000   1.0000   1.0000   1.0000
     1.0000   1.0000   1.0000   1.0000   1.0000   1.0000   1.0000   1.0000
     1.0000   1.0000   1.0000   1.0000   1.0000   1.0000   1.0000   1.0000
     1.0000   1.0000   1.0000   1.0000   1.0000   1.0000   1.0000   1.0000
     0.0000   0.0000   0.0000   0.0000   0.0000   0.0000   0.0000   0.0000
     0.0000   0.0000

          k = 0.0000 0.5432 1.0246 (  8494 PWs)   bands (ev):

   -13.2612 -13.2596 -13.2525 -13.2522 -13.2479 -13.2460 -13.2441 -13.2428
   -13.2330 -13.2311 -13.2197 -13.2167 -13.2160 -13.2123 -13.1930 -13.1908
   -13.1907 -13.1882 -13.1730 -13.1710  -4.9927  -4.7257  -4.6479  -4.3767
     0.1854   0.6680   1.4881   1.7484   3.9956   4.0544   4.1893   4.9520
     5.1335   5.5170   5.9311   6.4067   6.7747   7.1898   7.2522   7.5705
     9.0384   9.9064   9.9784  10.8421  11.1775  11.3262  11.6886  12.4692
    12.5330  12.9949

     occupation numbers 
     1.0000   1.0000   1.0000   1.0000   1.0000   1.0000   1.0000   1.0000
     1.0000   1.0000   1.0000   1.0000   1.0000   1.0000   1.0000   1.0000
     1.0000   1.0000   1.0000   1.0000   1.0000   1.0000   1.0000   1.0000
     1.0000   1.0000   1.0000   1.0000   1.0000   1.0000   1.0000   1.0000
     1.0000   1.0000   1.0000   1.0000   1.0000   1.0000   1.0000   1.0000
     0.0000   0.0000   0.0000   0.0000   0.0000   0.0000   0.0000   0.0000
     0.0000   0.0000

          k = 0.0000 0.5432-1.2807 (  8500 PWs)   bands (ev):

   -13.2610 -13.2610 -13.2527 -13.2527 -13.2471 -13.2471 -13.2432 -13.2432
   -13.2319 -13.2319 -13.2173 -13.2173 -13.2141 -13.2141 -13.1918 -13.1918
   -13.1895 -13.1895 -13.1719 -13.1719  -4.7942  -4.7942  -4.5350  -4.5350
     0.3323   0.3323   1.5767   1.5767   4.1996   4.1996   4.5133   4.5133
     5.1778   5.1778   6.0731   6.0731   6.9396   6.9396   7.4165   7.4165
     9.3947   9.3947  10.4779  10.4779  11.5580  11.5580  12.0970  12.0970
    12.5362  12.5362

     occupation numbers 
     1.0000   1.0000   1.0000   1.0000   1.0000   1.0000   1.0000   1.0000
     1.0000   1.0000   1.0000   1.0000   1.0000   1.0000   1.0000   1.0000
     1.0000   1.0000   1.0000   1.0000   1.0000   1.0000   1.0000   1.0000
     1.0000   1.0000   1.0000   1.0000   1.0000   1.0000   1.0000   1.0000
     1.0000   1.0000   1.0000   1.0000   1.0000   1.0000   1.0000   1.0000
     0.0000   0.0000   0.0000   0.0000   0.0000   0.0000   0.0000   0.0000
     0.0000   0.0000

          k = 0.0000 0.8149 0.0000 (  8526 PWs)   bands (ev):

   -13.2566 -13.2545 -13.2530 -13.2527 -13.2451 -13.2439 -13.2427 -13.2392
   -13.2365 -13.2326 -13.2280 -13.2215 -13.2153 -13.2102 -13.1976 -13.1946
   -13.1888 -13.1817 -13.1754 -13.1721  -5.2936  -5.0258  -4.5220  -4.2601
     0.3170   1.0922   1.3717   1.8338   3.5711   4.9106   5.2902   5.3446
     5.3858   5.6910   6.3995   6.4380   6.7441   7.2063   7.3580   8.0065
     8.6899   9.4479  10.0659  10.1379  10.2842  10.8573  10.8608  11.7027
    12.1768  12.4950

     occupation numbers 
     1.0000   1.0000   1.0000   1.0000   1.0000   1.0000   1.0000   1.0000
     1.0000   1.0000   1.0000   1.0000   1.0000   1.0000   1.0000   1.0000
     1.0000   1.0000   1.0000   1.0000   1.0000   1.0000   1.0000   1.0000
     1.0000   1.0000   1.0000   1.0000   1.0000   1.0000   1.0000   1.0000
     1.0000   1.0000   1.0000   1.0000   1.0000   1.0000   1.0000   1.0000
     0.0000   0.0000   0.0000   0.0000   0.0000   0.0000   0.0000   0.0000
     0.0000   0.0000

          k = 0.0000 0.8149 0.2561 (  8525 PWs)   bands (ev):

   -13.2581 -13.2555 -13.2535 -13.2527 -13.2452 -13.2434 -13.2423 -13.2391
   -13.2359 -13.2325 -13.2272 -13.2209 -13.2155 -13.2101 -13.1974 -13.1945
   -13.1888 -13.1821 -13.1752 -13.1721  -5.2563  -4.9927  -4.5130  -4.2582
     0.3300   1.1405   1.3912   1.7885   3.6241   4.3185   4.6597   5.4200
     5.7933   5.9824   6.0127   6.3376   6.9154   7.3076   7.3332   7.6753
     9.1487   9.3986   9.6183   9.7585  10.8830  10.9984  11.2752  11.6467
    12.5406  12.7798

     occupation numbers 
     1.0000   1.0000   1.0000   1.0000   1.0000   1.0000   1.0000   1.0000
     1.0000   1.0000   1.0000   1.0000   1.0000   1.0000   1.0000   1.0000
     1.0000   1.0000   1.0000   1.0000   1.0000   1.0000   1.0000   1.0000
     1.0000   1.0000   1.0000   1.0000   1.0000   1.0000   1.0000   1.0000
     1.0000   1.0000   1.0000   1.0000   1.0000   1.0000   1.0000   1.0000
     0.0000   0.0000   0.0000   0.0000   0.0000   0.0000   0.0000   0.0000
     0.0000   0.0000

          k = 0.0000 0.8149 0.5123 (  8532 PWs)   bands (ev):

   -13.2612 -13.2582 -13.2551 -13.2537 -13.2452 -13.2421 -13.2414 -13.2390
   -13.2346 -13.2323 -13.2251 -13.2191 -13.2159 -13.2098 -13.1969 -13.1944
   -13.1887 -13.1830 -13.1748 -13.1720  -5.1499  -4.8987  -4.4953  -4.2593
     0.3612   1.2728   1.3956   1.6827   3.7227   3.7739   4.0658   4.9919
     5.3767   5.9586   6.0438   6.5185   6.6587   7.1917   7.1967   7.4008
     9.0748   9.5603  10.0834  10.1972  10.8092  11.4473  11.6678  12.3753
    12.6943  12.8829

     occupation numbers 
     1.0000   1.0000   1.0000   1.0000   1.0000   1.0000   1.0000   1.0000
     1.0000   1.0000   1.0000   1.0000   1.0000   1.0000   1.0000   1.0000
     1.0000   1.0000   1.0000   1.0000   1.0000   1.0000   1.0000   1.0000
     1.0000   1.0000   1.0000   1.0000   1.0000   1.0000   1.0000   1.0000
     1.0000   1.0000   1.0000   1.0000   1.0000   1.0000   1.0000   1.0000
     0.0000   0.0000   0.0000   0.0000   0.0000   0.0000   0.0000   0.0000
     0.0000   0.0000

          k = 0.0000 0.8149 0.7684 (  8504 PWs)   bands (ev):

   -13.2641 -13.2615 -13.2569 -13.2558 -13.2445 -13.2407 -13.2405 -13.2390
   -13.2333 -13.2320 -13.2224 -13.2166 -13.2160 -13.2100 -13.1961 -13.1942
   -13.1883 -13.1840 -13.1741 -13.1721  -4.9922  -4.7596  -4.4943  -4.2810
     0.4025   1.2068   1.4454   1.6650   3.3858   3.7159   3.9767   4.6253
     4.9462   5.5096   5.7866   6.2138   6.4325   6.7840   7.0146   7.4792
     8.8813  10.1675  11.0465  11.1038  11.2316  11.2554  11.9527  12.7137
    13.0451  13.0916

     occupation numbers 
     1.0000   1.0000   1.0000   1.0000   1.0000   1.0000   1.0000   1.0000
     1.0000   1.0000   1.0000   1.0000   1.0000   1.0000   1.0000   1.0000
     1.0000   1.0000   1.0000   1.0000   1.0000   1.0000   1.0000   1.0000
     1.0000   1.0000   1.0000   1.0000   1.0000   1.0000   1.0000   1.0000
     1.0000   1.0000   1.0000   1.0000   1.0000   1.0000   1.0000   1.0000
     0.0000   0.0000   0.0000   0.0000   0.0000   0.0000   0.0000   0.0000
     0.0000   0.0000

          k = 0.0000 0.8149 1.0246 (  8512 PWs)   bands (ev):

   -13.2659 -13.2645 -13.2584 -13.2578 -13.2433 -13.2408 -13.2397 -13.2390
   -13.2323 -13.2318 -13.2197 -13.2164 -13.2140 -13.2108 -13.1952 -13.1943
   -13.1875 -13.1851 -13.1734 -13.1723  -4.8130  -4.6008  -4.5406  -4.3427
     0.4783   0.9023   1.5871   1.6846   3.3602   3.6993   3.9864   4.3275
     4.6975   5.2478   5.3479   5.9490   6.0602   6.5634   6.9979   7.1941
     9.2626  10.5411  10.9273  11.6147  11.9668  12.0431  12.5668  12.8145
    13.0291  13.0683

     occupation numbers 
     1.0000   1.0000   1.0000   1.0000   1.0000   1.0000   1.0000   1.0000
     1.0000   1.0000   1.0000   1.0000   1.0000   1.0000   1.0000   1.0000
     1.0000   1.0000   1.0000   1.0000   1.0000   1.0000   1.0000   1.0000
     1.0000   1.0000   1.0000   1.0000   1.0000   1.0000   1.0000   1.0000
     1.0000   1.0000   1.0000   1.0000   1.0000   1.0000   1.0000   1.0000
     0.0000   0.0000   0.0000   0.0000   0.0000   0.0000   0.0000   0.0000
     0.0000   0.0000

          k = 0.0000 0.8149-1.2807 (  8510 PWs)   bands (ev):

   -13.2662 -13.2662 -13.2588 -13.2588 -13.2419 -13.2419 -13.2391 -13.2391
   -13.2318 -13.2318 -13.2176 -13.2176 -13.2121 -13.2121 -13.1946 -13.1946
   -13.1863 -13.1863 -13.1728 -13.1728  -4.6509  -4.6509  -4.4530  -4.4530
     0.6394   0.6394   1.6619   1.6619   3.6225   3.6225   3.9727   3.9727
     4.8921   4.8921   5.4913   5.4913   6.2570   6.2570   7.0359   7.0359
     9.8675   9.8675  11.5119  11.5119  12.5364  12.5364  12.7724  12.7724
    12.9758  12.9758

     occupation numbers 
     1.0000   1.0000   1.0000   1.0000   1.0000   1.0000   1.0000   1.0000
     1.0000   1.0000   1.0000   1.0000   1.0000   1.0000   1.0000   1.0000
     1.0000   1.0000   1.0000   1.0000   1.0000   1.0000   1.0000   1.0000
     1.0000   1.0000   1.0000   1.0000   1.0000   1.0000   1.0000   1.0000
     1.0000   1.0000   1.0000   1.0000   1.0000   1.0000   1.0000   1.0000
     0.0000   0.0000   0.0000   0.0000   0.0000   0.0000   0.0000   0.0000
     0.0000   0.0000

          k = 0.0000 1.0865 0.0000 (  8544 PWs)   bands (ev):

   -13.2591 -13.2571 -13.2559 -13.2536 -13.2416 -13.2413 -13.2408 -13.2370
   -13.2323 -13.2319 -13.2278 -13.2195 -13.2155 -13.2071 -13.2017 -13.2009
   -13.1841 -13.1790 -13.1756 -13.1754  -4.9937  -4.8072  -4.5231  -4.4266
     0.2212   0.7592   0.9477   1.3831   3.9947   4.9006   5.4574   5.6346
     5.8253   5.8768   6.2041   6.5960   7.0705   7.2335   7.2500   7.4494
     8.9930   9.4106   9.4382   9.7099   9.8511  10.1977  10.4885  11.1140
    11.4538  11.8313

     occupation numbers 
     1.0000   1.0000   1.0000   1.0000   1.0000   1.0000   1.0000   1.0000
     1.0000   1.0000   1.0000   1.0000   1.0000   1.0000   1.0000   1.0000
     1.0000   1.0000   1.0000   1.0000   1.0000   1.0000   1.0000   1.0000
     1.0000   1.0000   1.0000   1.0000   1.0000   1.0000   1.0000   1.0000
     1.0000   1.0000   1.0000   1.0000   1.0000   1.0000   1.0000   1.0000
     0.0000   0.0000   0.0000   0.0000   0.0000   0.0000   0.0000   0.0000
     0.0000   0.0000

          k = 0.0000 1.0865 0.2561 (  8538 PWs)   bands (ev):

   -13.2605 -13.2585 -13.2564 -13.2545 -13.2420 -13.2405 -13.2400 -13.2366
   -13.2318 -13.2317 -13.2272 -13.2194 -13.2152 -13.2075 -13.2010 -13.2005
   -13.1841 -13.1794 -13.1754 -13.1751  -4.9623  -4.7800  -4.5100  -4.4146
     0.2705   0.8096   0.9996   1.3897   4.0300   4.5611   4.8275   5.5992
     5.6382   5.7190   6.3773   6.4521   6.7893   7.1249   7.3027   7.5198
     8.9958   9.2370   9.4278   9.6657  10.5317  10.7635  11.0338  11.0522
    11.9681  12.2543

     occupation numbers 
     1.0000   1.0000   1.0000   1.0000   1.0000   1.0000   1.0000   1.0000
     1.0000   1.0000   1.0000   1.0000   1.0000   1.0000   1.0000   1.0000
     1.0000   1.0000   1.0000   1.0000   1.0000   1.0000   1.0000   1.0000
     1.0000   1.0000   1.0000   1.0000   1.0000   1.0000   1.0000   1.0000
     1.0000   1.0000   1.0000   1.0000   1.0000   1.0000   1.0000   1.0000
     0.0000   0.0000   0.0000   0.0000   0.0000   0.0000   0.0000   0.0000
     0.0000   0.0000

          k = 0.0000 1.0865 0.5123 (  8535 PWs)   bands (ev):

   -13.2637 -13.2618 -13.2583 -13.2569 -13.2419 -13.2398 -13.2381 -13.2358
   -13.2314 -13.2308 -13.2255 -13.2191 -13.2144 -13.2084 -13.1997 -13.1997
   -13.1842 -13.1803 -13.1750 -13.1746  -4.8744  -4.7044  -4.4784  -4.3857
     0.4097   0.9492   1.1467   1.3973   3.8599   4.1128   4.2553   4.8935
     5.1331   5.5864   6.0199   6.1629   6.4330   6.6661   7.2192   7.4842
     8.8680   9.6747   9.9760  10.5475  11.1682  11.4736  11.9709  11.9954
    12.3699  12.7512

     occupation numbers 
     1.0000   1.0000   1.0000   1.0000   1.0000   1.0000   1.0000   1.0000
     1.0000   1.0000   1.0000   1.0000   1.0000   1.0000   1.0000   1.0000
     1.0000   1.0000   1.0000   1.0000   1.0000   1.0000   1.0000   1.0000
     1.0000   1.0000   1.0000   1.0000   1.0000   1.0000   1.0000   1.0000
     1.0000   1.0000   1.0000   1.0000   1.0000   1.0000   1.0000   1.0000
     0.0000   0.0000   0.0000   0.0000   0.0000   0.0000   0.0000   0.0000
     0.0000   0.0000

          k = 0.0000 1.0865 0.7684 (  8505 PWs)   bands (ev):

   -13.2673 -13.2657 -13.2607 -13.2598 -13.2414 -13.2393 -13.2363 -13.2350
   -13.2307 -13.2300 -13.2232 -13.2187 -13.2129 -13.2090 -13.1986 -13.1983
   -13.1840 -13.1812 -13.1745 -13.1741  -4.7491  -4.5979  -4.4503  -4.3586
     0.6104   1.1186   1.3566   1.4004   3.3230   3.7906   4.1016   4.2109
     4.7657   5.3119   5.3511   5.7081   6.1019   6.2485   7.0044   7.1759
     9.2042  10.4748  10.9164  11.3985  11.8693  11.9065  12.5199  12.8050
    12.8213  12.9208

     occupation numbers 
     1.0000   1.0000   1.0000   1.0000   1.0000   1.0000   1.0000   1.0000
     1.0000   1.0000   1.0000   1.0000   1.0000   1.0000   1.0000   1.0000
     1.0000   1.0000   1.0000   1.0000   1.0000   1.0000   1.0000   1.0000
     1.0000   1.0000   1.0000   1.0000   1.0000   1.0000   1.0000   1.0000
     1.0000   1.0000   1.0000   1.0000   1.0000   1.0000   1.0000   1.0000
     0.0000   0.0000   0.0000   0.0000   0.0000   0.0000   0.0000   0.0000
     0.0000   0.0000

          k = 0.0000 1.0865 1.0246 (  8507 PWs)   bands (ev):

   -13.2699 -13.2690 -13.2627 -13.2623 -13.2407 -13.2394 -13.2350 -13.2344
   -13.2301 -13.2295 -13.2212 -13.2188 -13.2114 -13.2095 -13.1977 -13.1975
   -13.1835 -13.1820 -13.1741 -13.1738  -4.6163  -4.4871  -4.4539  -4.3578
     0.8235   1.1351   1.5025   1.5521   3.0761   3.5720   3.5836   3.9537
     4.5970   4.8056   4.9977   5.6086   5.7330   5.9949   6.8261   6.8683
     9.8022  10.9210  11.2372  11.5981  12.5406  12.6264  12.7829  12.9260
    13.0895  13.5425

     occupation numbers 
     1.0000   1.0000   1.0000   1.0000   1.0000   1.0000   1.0000   1.0000
     1.0000   1.0000   1.0000   1.0000   1.0000   1.0000   1.0000   1.0000
     1.0000   1.0000   1.0000   1.0000   1.0000   1.0000   1.0000   1.0000
     1.0000   1.0000   1.0000   1.0000   1.0000   1.0000   1.0000   1.0000
     1.0000   1.0000   1.0000   1.0000   1.0000   1.0000   1.0000   1.0000
     0.0000   0.0000   0.0000   0.0000   0.0000   0.0000   0.0000   0.0000
     0.0000   0.0000

          k = 0.0000 1.0865-1.2807 (  8514 PWs)   bands (ev):

   -13.2705 -13.2705 -13.2633 -13.2633 -13.2400 -13.2400 -13.2344 -13.2344
   -13.2296 -13.2296 -13.2196 -13.2196 -13.2102 -13.2102 -13.1973 -13.1973
   -13.1828 -13.1828 -13.1739 -13.1739  -4.5098  -4.5098  -4.4007  -4.4007
     1.0056   1.0056   1.6110   1.6110   3.1727   3.1727   3.6864   3.6864
     4.5094   4.5094   5.2518   5.2518   5.7904   5.7904   6.7701   6.7701
    10.4056  10.4056  11.5855  11.5855  12.7792  12.7792  13.0264  13.0264
    13.3842  13.3842

     occupation numbers 
     1.0000   1.0000   1.0000   1.0000   1.0000   1.0000   1.0000   1.0000
     1.0000   1.0000   1.0000   1.0000   1.0000   1.0000   1.0000   1.0000
     1.0000   1.0000   1.0000   1.0000   1.0000   1.0000   1.0000   1.0000
     1.0000   1.0000   1.0000   1.0000   1.0000   1.0000   1.0000   1.0000
     1.0000   1.0000   1.0000   1.0000   1.0000   1.0000   1.0000   1.0000
     0.0000   0.0000   0.0000   0.0000   0.0000   0.0000   0.0000   0.0000
     0.0000   0.0000

          k = 0.0000-1.3581 0.0000 (  8578 PWs)   bands (ev):

   -13.2594 -13.2594 -13.2556 -13.2556 -13.2403 -13.2403 -13.2386 -13.2386
   -13.2291 -13.2291 -13.2255 -13.2255 -13.2088 -13.2088 -13.2041 -13.2041
   -13.1795 -13.1795 -13.1768 -13.1768  -4.6853  -4.6853  -4.6220  -4.6220
     0.3591   0.3591   1.0558   1.0558   4.4829   4.4829   5.8484   5.8484
     5.8636   5.8636   6.3753   6.3753   7.1064   7.1064   7.3066   7.3066
     9.1106   9.1106   9.5452   9.5452   9.8209   9.8209  10.6273  10.6273
    11.3367  11.3367

     occupation numbers 
     1.0000   1.0000   1.0000   1.0000   1.0000   1.0000   1.0000   1.0000
     1.0000   1.0000   1.0000   1.0000   1.0000   1.0000   1.0000   1.0000
     1.0000   1.0000   1.0000   1.0000   1.0000   1.0000   1.0000   1.0000
     1.0000   1.0000   1.0000   1.0000   1.0000   1.0000   1.0000   1.0000
     1.0000   1.0000   1.0000   1.0000   1.0000   1.0000   1.0000   1.0000
     0.0000   0.0000   0.0000   0.0000   0.0000   0.0000   0.0000   0.0000
     0.0000   0.0000

          k = 0.0000-1.3581 0.2561 (  8526 PWs)   bands (ev):

   -13.2607 -13.2607 -13.2564 -13.2564 -13.2403 -13.2403 -13.2378 -13.2378
   -13.2290 -13.2290 -13.2250 -13.2250 -13.2093 -13.2093 -13.2032 -13.2032
   -13.1798 -13.1798 -13.1764 -13.1764  -4.6627  -4.6627  -4.6020  -4.6020
     0.4186   0.4186   1.0931   1.0931   4.4531   4.4531   5.1890   5.1890
     5.6632   5.6632   6.5269   6.5269   6.8655   6.8655   7.3602   7.3602
     9.0245   9.0245   9.5772   9.5772  10.3917  10.3917  11.2334  11.2334
    11.6394  11.6394

     occupation numbers 
     1.0000   1.0000   1.0000   1.0000   1.0000   1.0000   1.0000   1.0000
     1.0000   1.0000   1.0000   1.0000   1.0000   1.0000   1.0000   1.0000
     1.0000   1.0000   1.0000   1.0000   1.0000   1.0000   1.0000   1.0000
     1.0000   1.0000   1.0000   1.0000   1.0000   1.0000   1.0000   1.0000
     1.0000   1.0000   1.0000   1.0000   1.0000   1.0000   1.0000   1.0000
     0.0000   0.0000   0.0000   0.0000   0.0000   0.0000   0.0000   0.0000
     0.0000   0.0000

          k = 0.0000-1.3581 0.5123 (  8534 PWs)   bands (ev):

   -13.2641 -13.2641 -13.2588 -13.2588 -13.2401 -13.2401 -13.2362 -13.2362
   -13.2286 -13.2286 -13.2238 -13.2238 -13.2099 -13.2099 -13.2016 -13.2016
   -13.1804 -13.1804 -13.1758 -13.1758  -4.6018  -4.6018  -4.5491  -4.5491
     0.5910   0.5910   1.1940   1.1940   4.1981   4.1981   4.4952   4.4952
     5.2666   5.2666   5.9967   5.9967   6.3845   6.3845   7.3695   7.3695
     9.1307   9.1307  10.5041  10.5041  11.4308  11.4308  11.8484  11.8484
    12.6082  12.6082

     occupation numbers 
     1.0000   1.0000   1.0000   1.0000   1.0000   1.0000   1.0000   1.0000
     1.0000   1.0000   1.0000   1.0000   1.0000   1.0000   1.0000   1.0000
     1.0000   1.0000   1.0000   1.0000   1.0000   1.0000   1.0000   1.0000
     1.0000   1.0000   1.0000   1.0000   1.0000   1.0000   1.0000   1.0000
     1.0000   1.0000   1.0000   1.0000   1.0000   1.0000   1.0000   1.0000
     0.0000   0.0000   0.0000   0.0000   0.0000   0.0000   0.0000   0.0000
     0.0000   0.0000

          k = 0.0000-1.3581 0.7684 (  8514 PWs)   bands (ev):

   -13.2680 -13.2680 -13.2617 -13.2617 -13.2397 -13.2397 -13.2345 -13.2345
   -13.2280 -13.2280 -13.2225 -13.2225 -13.2099 -13.2099 -13.1999 -13.1999
   -13.1809 -13.1809 -13.1752 -13.1752  -4.5222  -4.5222  -4.4826  -4.4826
     0.8521   0.8521   1.3226   1.3226   3.6137   3.6137   4.1070   4.1070
     4.8375   4.8375   5.6024   5.6024   5.8682   5.8682   7.0325   7.0325
     9.8012   9.8012  11.4039  11.4039  12.3413  12.3413  12.4824  12.4824
    12.6936  12.6936

     occupation numbers 
     1.0000   1.0000   1.0000   1.0000   1.0000   1.0000   1.0000   1.0000
     1.0000   1.0000   1.0000   1.0000   1.0000   1.0000   1.0000   1.0000
     1.0000   1.0000   1.0000   1.0000   1.0000   1.0000   1.0000   1.0000
     1.0000   1.0000   1.0000   1.0000   1.0000   1.0000   1.0000   1.0000
     1.0000   1.0000   1.0000   1.0000   1.0000   1.0000   1.0000   1.0000
     0.0000   0.0000   0.0000   0.0000   0.0000   0.0000   0.0000   0.0000
     0.0000   0.0000

          k = 0.0000-1.3581 1.0246 (  8510 PWs)   bands (ev):

   -13.2711 -13.2711 -13.2640 -13.2640 -13.2395 -13.2395 -13.2334 -13.2334
   -13.2274 -13.2274 -13.2217 -13.2217 -13.2096 -13.2096 -13.1988 -13.1988
   -13.1810 -13.1810 -13.1748 -13.1748  -4.4523  -4.4523  -4.4295  -4.4295
     1.1372   1.1372   1.4198   1.4198   3.1872   3.1872   3.7402   3.7402
     4.5070   4.5070   5.2227   5.2227   5.7318   5.7318   6.7632   6.7632
    10.4419  10.4419  11.4696  11.4696  12.7132  12.7132  12.9054  12.9054
    13.3436  13.3436

     occupation numbers 
     1.0000   1.0000   1.0000   1.0000   1.0000   1.0000   1.0000   1.0000
     1.0000   1.0000   1.0000   1.0000   1.0000   1.0000   1.0000   1.0000
     1.0000   1.0000   1.0000   1.0000   1.0000   1.0000   1.0000   1.0000
     1.0000   1.0000   1.0000   1.0000   1.0000   1.0000   1.0000   1.0000
     1.0000   1.0000   1.0000   1.0000   1.0000   1.0000   1.0000   1.0000
     0.0000   0.0000   0.0000   0.0000   0.0000   0.0000   0.0000   0.0000
     0.0000   0.0000

          k = 0.0000-1.3581-1.2807 (  8524 PWs)   bands (ev):

   -13.2722 -13.2722 -13.2650 -13.2650 -13.2395 -13.2395 -13.2330 -13.2330
   -13.2272 -13.2272 -13.2215 -13.2215 -13.2094 -13.2094 -13.1984 -13.1984
   -13.1810 -13.1810 -13.1746 -13.1746  -4.4217  -4.4217  -4.4119  -4.4119
     1.2899   1.2899   1.4400   1.4400   3.0375   3.0375   3.5530   3.5530
     4.4677   4.4677   4.9490   4.9490   5.8000   5.8000   6.6410   6.6410
    10.8671  10.8671  11.1740  11.1740  12.8442  12.8442  12.9769  12.9769
    13.7127  13.7127

     occupation numbers 
     1.0000   1.0000   1.0000   1.0000   1.0000   1.0000   1.0000   1.0000
     1.0000   1.0000   1.0000   1.0000   1.0000   1.0000   1.0000   1.0000
     1.0000   1.0000   1.0000   1.0000   1.0000   1.0000   1.0000   1.0000
     1.0000   1.0000   1.0000   1.0000   1.0000   1.0000   1.0000   1.0000
     1.0000   1.0000   1.0000   1.0000   1.0000   1.0000   1.0000   1.0000
     0.0000   0.0000   0.0000   0.0000   0.0000   0.0000   0.0000   0.0000
     0.0000   0.0000

          k = 0.2500 0.0000 0.0000 (  8502 PWs)   bands (ev):

   -13.2648 -13.2563 -13.2522 -13.2499 -13.2490 -13.2464 -13.2413 -13.2384
   -13.2335 -13.2328 -13.2324 -13.2270 -13.2171 -13.2122 -13.1962 -13.1930
   -13.1867 -13.1843 -13.1740 -13.1675  -5.7119  -5.4738  -4.5656  -4.2217
     0.8951   1.5705   2.8791   3.0611   3.4079   4.5353   4.7119   4.8312
     5.0531   5.3691   5.9656   6.1993   6.3832   6.4525   7.4445   7.5681
     9.6565  10.7596  10.8759  11.2832  11.5305  11.6029  12.1568  12.3511
    12.9340  13.1535

     occupation numbers 
     1.0000   1.0000   1.0000   1.0000   1.0000   1.0000   1.0000   1.0000
     1.0000   1.0000   1.0000   1.0000   1.0000   1.0000   1.0000   1.0000
     1.0000   1.0000   1.0000   1.0000   1.0000   1.0000   1.0000   1.0000
     1.0000   1.0000   1.0000   1.0000   1.0000   1.0000   1.0000   1.0000
     1.0000   1.0000   1.0000   1.0000   1.0000   1.0000   1.0000   1.0000
     0.0000   0.0000   0.0000   0.0000   0.0000   0.0000   0.0000   0.0000
     0.0000   0.0000

          k = 0.2500 0.0000 0.2561 (  8484 PWs)   bands (ev):

   -13.2643 -13.2560 -13.2518 -13.2495 -13.2495 -13.2469 -13.2418 -13.2389
   -13.2331 -13.2320 -13.2311 -13.2270 -13.2169 -13.2124 -13.1963 -13.1928
   -13.1870 -13.1846 -13.1738 -13.1677  -5.6691  -5.4338  -4.5613  -4.2295
     0.7490   1.4577   2.6028   2.8800   3.4527   4.6355   4.7772   5.0155
     5.1143   5.5683   6.0065   6.2169   6.4786   6.6759   7.3522   7.5763
     9.6564  10.5998  10.9670  11.2231  11.2282  11.4385  11.8777  12.3072
    12.8454  12.9301

     occupation numbers 
     1.0000   1.0000   1.0000   1.0000   1.0000   1.0000   1.0000   1.0000
     1.0000   1.0000   1.0000   1.0000   1.0000   1.0000   1.0000   1.0000
     1.0000   1.0000   1.0000   1.0000   1.0000   1.0000   1.0000   1.0000
     1.0000   1.0000   1.0000   1.0000   1.0000   1.0000   1.0000   1.0000
     1.0000   1.0000   1.0000   1.0000   1.0000   1.0000   1.0000   1.0000
     0.0000   0.0000   0.0000   0.0000   0.0000   0.0000   0.0000   0.0000
     0.0000   0.0000

          k = 0.2500 0.0000 0.5123 (  8505 PWs)   bands (ev):

   -13.2628 -13.2553 -13.2510 -13.2508 -13.2486 -13.2485 -13.2429 -13.2402
   -13.2322 -13.2296 -13.2281 -13.2271 -13.2165 -13.2130 -13.1963 -13.1924
   -13.1879 -13.1853 -13.1734 -13.1682  -5.5457  -5.3185  -4.5592  -4.2610
     0.4294   1.1632   2.0359   2.4891   3.5859   4.8682   4.9675   5.2914
     5.4256   5.8410   6.1119   6.5373   6.5940   7.1056   7.2038   7.5816
     9.6863  10.0773  10.5895  10.7363  10.9971  11.2512  11.3779  12.2624
    12.3206  13.0141

     occupation numbers 
     1.0000   1.0000   1.0000   1.0000   1.0000   1.0000   1.0000   1.0000
     1.0000   1.0000   1.0000   1.0000   1.0000   1.0000   1.0000   1.0000
     1.0000   1.0000   1.0000   1.0000   1.0000   1.0000   1.0000   1.0000
     1.0000   1.0000   1.0000   1.0000   1.0000   1.0000   1.0000   1.0000
     1.0000   1.0000   1.0000   1.0000   1.0000   1.0000   1.0000   1.0000
     0.0000   0.0000   0.0000   0.0000   0.0000   0.0000   0.0000   0.0000
     0.0000   0.0000

          k = 0.2500 0.0000 0.7684 (  8517 PWs)   bands (ev):

   -13.2607 -13.2547 -13.2522 -13.2505 -13.2501 -13.2479 -13.2440 -13.2419
   -13.2311 -13.2273 -13.2259 -13.2243 -13.2163 -13.2141 -13.1959 -13.1920
   -13.1888 -13.1863 -13.1727 -13.1689  -5.3573  -5.1439  -4.5875  -4.3347
     0.1364   0.7817   1.5438   2.0180   3.8475   5.1251   5.2632   5.5623
     5.6952   6.1417   6.2221   6.5680   6.8854   7.1830   7.4644   7.8515
     9.3091   9.8531   9.9810  10.1621  10.5843  10.5882  11.1310  11.5779
    12.1685  12.2403

     occupation numbers 
     1.0000   1.0000   1.0000   1.0000   1.0000   1.0000   1.0000   1.0000
     1.0000   1.0000   1.0000   1.0000   1.0000   1.0000   1.0000   1.0000
     1.0000   1.0000   1.0000   1.0000   1.0000   1.0000   1.0000   1.0000
     1.0000   1.0000   1.0000   1.0000   1.0000   1.0000   1.0000   1.0000
     1.0000   1.0000   1.0000   1.0000   1.0000   1.0000   1.0000   1.0000
     0.0000   0.0000   0.0000   0.0000   0.0000   0.0000   0.0000   0.0000
     0.0000   0.0000

          k = 0.2500 0.0000 1.0246 (  8503 PWs)   bands (ev):

   -13.2583 -13.2549 -13.2532 -13.2523 -13.2491 -13.2477 -13.2447 -13.2435
   -13.2299 -13.2279 -13.2218 -13.2208 -13.2168 -13.2157 -13.1949 -13.1925
   -13.1889 -13.1873 -13.1718 -13.1698  -5.1340  -4.9501  -4.6632  -4.4651
     0.0093   0.3927   1.3036   1.6027   4.2235   5.0705   5.6201   5.8604
     5.8705   6.2411   6.3767   6.4904   7.0766   7.2960   7.8661   7.9989
     9.0223   9.4343   9.6413   9.8830  10.0404  10.5114  10.5548  11.1616
    11.5775  11.6107

     occupation numbers 
     1.0000   1.0000   1.0000   1.0000   1.0000   1.0000   1.0000   1.0000
     1.0000   1.0000   1.0000   1.0000   1.0000   1.0000   1.0000   1.0000
     1.0000   1.0000   1.0000   1.0000   1.0000   1.0000   1.0000   1.0000
     1.0000   1.0000   1.0000   1.0000   1.0000   1.0000   1.0000   1.0000
     1.0000   1.0000   1.0000   1.0000   1.0000   1.0000   1.0000   1.0000
     0.0000   0.0000   0.0000   0.0000   0.0000   0.0000   0.0000   0.0000
     0.0000   0.0000

          k = 0.2500 0.0000-1.2807 (  8490 PWs)   bands (ev):

   -13.2562 -13.2562 -13.2532 -13.2532 -13.2482 -13.2482 -13.2445 -13.2445
   -13.2288 -13.2288 -13.2185 -13.2185 -13.2179 -13.2179 -13.1936 -13.1936
   -13.1883 -13.1883 -13.1708 -13.1708  -4.9336  -4.9336  -4.6326  -4.6326
     0.1037   0.1037   1.3404   1.3404   4.6685   4.6685   5.9337   5.9337
     6.1803   6.1803   6.2948   6.2948   7.4336   7.4336   7.8298   7.8298
     9.2437   9.2437   9.6832   9.6832   9.8583   9.8583  11.0398  11.0398
    11.1735  11.1735

     occupation numbers 
     1.0000   1.0000   1.0000   1.0000   1.0000   1.0000   1.0000   1.0000
     1.0000   1.0000   1.0000   1.0000   1.0000   1.0000   1.0000   1.0000
     1.0000   1.0000   1.0000   1.0000   1.0000   1.0000   1.0000   1.0000
     1.0000   1.0000   1.0000   1.0000   1.0000   1.0000   1.0000   1.0000
     1.0000   1.0000   1.0000   1.0000   1.0000   1.0000   1.0000   1.0000
     0.0000   0.0000   0.0000   0.0000   0.0000   0.0000   0.0000   0.0000
     0.0000   0.0000

          k = 0.2500 0.2716 0.0000 (  8499 PWs)   bands (ev):

   -13.2626 -13.2549 -13.2507 -13.2499 -13.2488 -13.2478 -13.2427 -13.2396
   -13.2350 -13.2313 -13.2305 -13.2283 -13.2159 -13.2123 -13.1953 -13.1931
   -13.1864 -13.1853 -13.1742 -13.1683  -5.6586  -5.4258  -4.5458  -4.2200
     0.8161   1.4646   2.7138   2.7753   3.4359   4.5980   4.6481   5.0439
     5.0514   5.4326   6.0111   6.2323   6.4465   6.5837   7.4702   7.5526
     9.7312  10.7028  10.9165  11.2313  11.2355  11.5051  11.7186  12.3457
    12.7798  13.1052

     occupation numbers 
     1.0000   1.0000   1.0000   1.0000   1.0000   1.0000   1.0000   1.0000
     1.0000   1.0000   1.0000   1.0000   1.0000   1.0000   1.0000   1.0000
     1.0000   1.0000   1.0000   1.0000   1.0000   1.0000   1.0000   1.0000
     1.0000   1.0000   1.0000   1.0000   1.0000   1.0000   1.0000   1.0000
     1.0000   1.0000   1.0000   1.0000   1.0000   1.0000   1.0000   1.0000
     0.0000   0.0000   0.0000   0.0000   0.0000   0.0000   0.0000   0.0000
     0.0000   0.0000

          k = 0.2500 0.2716 0.2561 (  8491 PWs)   bands (ev):

   -13.2622 -13.2547 -13.2504 -13.2504 -13.2485 -13.2482 -13.2432 -13.2402
   -13.2347 -13.2303 -13.2295 -13.2282 -13.2158 -13.2125 -13.1954 -13.1929
   -13.1867 -13.1856 -13.1741 -13.1684  -5.6164  -5.3864  -4.5413  -4.2269
     0.7014   1.3869   2.4741   2.6759   3.4821   4.4614   4.6556   5.0163
     5.3747   5.6687   5.8842   6.1713   6.6135   6.9576   7.3817   7.5748
     9.7263  10.3224  10.7977  11.0461  11.1195  11.4002  11.8191  12.3964
    12.4755  13.0206

     occupation numbers 
     1.0000   1.0000   1.0000   1.0000   1.0000   1.0000   1.0000   1.0000
     1.0000   1.0000   1.0000   1.0000   1.0000   1.0000   1.0000   1.0000
     1.0000   1.0000   1.0000   1.0000   1.0000   1.0000   1.0000   1.0000
     1.0000   1.0000   1.0000   1.0000   1.0000   1.0000   1.0000   1.0000
     1.0000   1.0000   1.0000   1.0000   1.0000   1.0000   1.0000   1.0000
     0.0000   0.0000   0.0000   0.0000   0.0000   0.0000   0.0000   0.0000
     0.0000   0.0000

          k = 0.2500 0.2716 0.5123 (  8501 PWs)   bands (ev):

   -13.2611 -13.2541 -13.2519 -13.2500 -13.2489 -13.2476 -13.2442 -13.2418
   -13.2337 -13.2287 -13.2272 -13.2269 -13.2157 -13.2128 -13.1953 -13.1923
   -13.1877 -13.1863 -13.1736 -13.1688  -5.4947  -5.2730  -4.5383  -4.2552
     0.4371   1.1594   1.9921   2.3821   3.6314   4.4178   4.6231   5.3336
     5.5277   5.9116   6.1178   6.2015   7.0058   7.2313   7.3522   7.6119
     9.6599   9.8509  10.1786  10.5093  11.1194  11.3350  11.7177  11.9151
    12.4303  12.6340

     occupation numbers 
     1.0000   1.0000   1.0000   1.0000   1.0000   1.0000   1.0000   1.0000
     1.0000   1.0000   1.0000   1.0000   1.0000   1.0000   1.0000   1.0000
     1.0000   1.0000   1.0000   1.0000   1.0000   1.0000   1.0000   1.0000
     1.0000   1.0000   1.0000   1.0000   1.0000   1.0000   1.0000   1.0000
     1.0000   1.0000   1.0000   1.0000   1.0000   1.0000   1.0000   1.0000
     0.0000   0.0000   0.0000   0.0000   0.0000   0.0000   0.0000   0.0000
     0.0000   0.0000

          k = 0.2500 0.2716 0.7684 (  8508 PWs)   bands (ev):

   -13.2595 -13.2538 -13.2537 -13.2513 -13.2481 -13.2469 -13.2453 -13.2436
   -13.2324 -13.2287 -13.2240 -13.2233 -13.2157 -13.2135 -13.1949 -13.1917
   -13.1890 -13.1873 -13.1728 -13.1694  -5.3095  -5.1018  -4.5642  -4.3234
     0.1833   0.8215   1.5594   1.9923   3.8858   4.5721   4.7632   5.5128
     5.6762   5.9843   6.1743   6.5219   7.1320   7.3594   7.4351   7.6875
     9.4980   9.6095   9.7879  10.2100  10.6873  10.8896  11.3151  11.5965
    12.4369  12.4961

     occupation numbers 
     1.0000   1.0000   1.0000   1.0000   1.0000   1.0000   1.0000   1.0000
     1.0000   1.0000   1.0000   1.0000   1.0000   1.0000   1.0000   1.0000
     1.0000   1.0000   1.0000   1.0000   1.0000   1.0000   1.0000   1.0000
     1.0000   1.0000   1.0000   1.0000   1.0000   1.0000   1.0000   1.0000
     1.0000   1.0000   1.0000   1.0000   1.0000   1.0000   1.0000   1.0000
     0.0000   0.0000   0.0000   0.0000   0.0000   0.0000   0.0000   0.0000
     0.0000   0.0000

          k = 0.2500 0.2716 1.0246 (  8490 PWs)   bands (ev):

   -13.2579 -13.2554 -13.2536 -13.2525 -13.2473 -13.2471 -13.2457 -13.2450
   -13.2311 -13.2292 -13.2206 -13.2197 -13.2163 -13.2147 -13.1940 -13.1915
   -13.1897 -13.1883 -13.1720 -13.1702  -5.0910  -4.9127  -4.6359  -4.4462
     0.0738   0.4509   1.3489   1.6259   4.2357   4.7844   5.0354   5.4329
     5.8175   5.9265   6.0881   6.5966   7.2736   7.4441   7.5183   7.6862
     9.3005   9.5406   9.6369  10.0495  10.3466  10.8152  11.0138  11.1389
    12.0786  12.1384

     occupation numbers 
     1.0000   1.0000   1.0000   1.0000   1.0000   1.0000   1.0000   1.0000
     1.0000   1.0000   1.0000   1.0000   1.0000   1.0000   1.0000   1.0000
[...]
     0.0000   0.0000   0.0000   0.0000   0.0000   0.0000   0.0000   0.0000
     0.0000   0.0000

          k =-0.5000 1.0865 0.2561 (  8542 PWs)   bands (ev):

   -13.2590 -13.2590 -13.2562 -13.2562 -13.2407 -13.2407 -13.2393 -13.2393
   -13.2311 -13.2311 -13.2244 -13.2244 -13.2100 -13.2100 -13.2014 -13.2014
   -13.1814 -13.1814 -13.1754 -13.1754  -4.8854  -4.8854  -4.4482  -4.4482
     0.5750   0.5750   1.0799   1.0799   4.6317   4.6317   5.1848   5.1848
     5.6418   5.6418   6.1601   6.1601   6.8205   6.8205   7.2456   7.2456
     9.4934   9.4934   9.8151   9.8151  10.6081  10.6081  11.3906  11.3906
    11.8460  11.8460

     occupation numbers 
     1.0000   1.0000   1.0000   1.0000   1.0000   1.0000   1.0000   1.0000
     1.0000   1.0000   1.0000   1.0000   1.0000   1.0000   1.0000   1.0000
     1.0000   1.0000   1.0000   1.0000   1.0000   1.0000   1.0000   1.0000
     1.0000   1.0000   1.0000   1.0000   1.0000   1.0000   1.0000   1.0000
     1.0000   1.0000   1.0000   1.0000   1.0000   1.0000   1.0000   1.0000
     0.0000   0.0000   0.0000   0.0000   0.0000   0.0000   0.0000   0.0000
     0.0000   0.0000

          k =-0.5000 1.0865 0.5123 (  8548 PWs)   bands (ev):

   -13.2616 -13.2616 -13.2589 -13.2589 -13.2397 -13.2397 -13.2387 -13.2387
   -13.2302 -13.2302 -13.2235 -13.2235 -13.2093 -13.2093 -13.2010 -13.2010
   -13.1815 -13.1815 -13.1752 -13.1752  -4.8033  -4.8033  -4.4183  -4.4183
     0.7131   0.7131   1.1706   1.1706   4.0567   4.0567   4.8594   4.8594
     5.2246   5.2246   5.9085   5.9085   6.4854   6.4854   7.1614   7.1614
     9.8535   9.8535  10.3975  10.3975  11.1909  11.1909  11.7279  11.7279
    12.0771  12.0771

     occupation numbers 
     1.0000   1.0000   1.0000   1.0000   1.0000   1.0000   1.0000   1.0000
     1.0000   1.0000   1.0000   1.0000   1.0000   1.0000   1.0000   1.0000
     1.0000   1.0000   1.0000   1.0000   1.0000   1.0000   1.0000   1.0000
     1.0000   1.0000   1.0000   1.0000   1.0000   1.0000   1.0000   1.0000
     1.0000   1.0000   1.0000   1.0000   1.0000   1.0000   1.0000   1.0000
     0.0000   0.0000   0.0000   0.0000   0.0000   0.0000   0.0000   0.0000
     0.0000   0.0000

          k =-0.5000 1.0865 0.7684 (  8522 PWs)   bands (ev):

   -13.2648 -13.2648 -13.2621 -13.2621 -13.2390 -13.2390 -13.2378 -13.2378
   -13.2292 -13.2292 -13.2225 -13.2225 -13.2082 -13.2082 -13.2005 -13.2005
   -13.1815 -13.1815 -13.1749 -13.1749  -4.6879  -4.6879  -4.3903  -4.3903
     0.8844   0.8844   1.3069   1.3069   3.5848   3.5848   4.3858   4.3858
     4.7994   4.7994   5.4407   5.4407   6.3501   6.3501   6.9333   6.9333
    10.4757  10.4757  10.9069  10.9069  11.2865  11.2865  12.2730  12.2730
    12.7773  12.7773

     occupation numbers 
     1.0000   1.0000   1.0000   1.0000   1.0000   1.0000   1.0000   1.0000
     1.0000   1.0000   1.0000   1.0000   1.0000   1.0000   1.0000   1.0000
     1.0000   1.0000   1.0000   1.0000   1.0000   1.0000   1.0000   1.0000
     1.0000   1.0000   1.0000   1.0000   1.0000   1.0000   1.0000   1.0000
     1.0000   1.0000   1.0000   1.0000   1.0000   1.0000   1.0000   1.0000
     0.0000   0.0000   0.0000   0.0000   0.0000   0.0000   0.0000   0.0000
     0.0000   0.0000

          k =-0.5000 1.0865 1.0246 (  8490 PWs)   bands (ev):

   -13.2673 -13.2673 -13.2647 -13.2647 -13.2387 -13.2387 -13.2371 -13.2371
   -13.2284 -13.2284 -13.2218 -13.2218 -13.2072 -13.2072 -13.2000 -13.2000
   -13.1814 -13.1814 -13.1746 -13.1746  -4.5709  -4.5709  -4.3868  -4.3868
     0.9949   0.9949   1.4749   1.4749   3.3761   3.3761   3.9038   3.9038
     4.4849   4.4849   5.0012   5.0012   6.3835   6.3835   6.7669   6.7669
    10.5394  10.5394  10.9875  10.9875  11.9579  11.9579  12.7411  12.7411
    13.5986  13.5986

     occupation numbers 
     1.0000   1.0000   1.0000   1.0000   1.0000   1.0000   1.0000   1.0000
     1.0000   1.0000   1.0000   1.0000   1.0000   1.0000   1.0000   1.0000
     1.0000   1.0000   1.0000   1.0000   1.0000   1.0000   1.0000   1.0000
     1.0000   1.0000   1.0000   1.0000   1.0000   1.0000   1.0000   1.0000
     1.0000   1.0000   1.0000   1.0000   1.0000   1.0000   1.0000   1.0000
     0.0000   0.0000   0.0000   0.0000   0.0000   0.0000   0.0000   0.0000
     0.0000   0.0000

          k =-0.5000 1.0865-1.2807 (  8492 PWs)   bands (ev):

   -13.2682 -13.2682 -13.2657 -13.2657 -13.2386 -13.2386 -13.2369 -13.2369
   -13.2280 -13.2280 -13.2215 -13.2215 -13.2067 -13.2067 -13.1998 -13.1998
   -13.1814 -13.1814 -13.1745 -13.1745  -4.5085  -4.5085  -4.4021  -4.4021
     1.0225   1.0225   1.5655   1.5655   3.4784   3.4784   3.5087   3.5087
     4.5281   4.5281   4.6942   4.6942   6.4704   6.4704   6.6671   6.6671
    10.4831  10.4831  10.9801  10.9801  12.5521  12.5521  12.6596  12.6596
    14.1268  14.1271

     occupation numbers 
     1.0000   1.0000   1.0000   1.0000   1.0000   1.0000   1.0000   1.0000
     1.0000   1.0000   1.0000   1.0000   1.0000   1.0000   1.0000   1.0000
     1.0000   1.0000   1.0000   1.0000   1.0000   1.0000   1.0000   1.0000
     1.0000   1.0000   1.0000   1.0000   1.0000   1.0000   1.0000   1.0000
     1.0000   1.0000   1.0000   1.0000   1.0000   1.0000   1.0000   1.0000
     0.0000   0.0000   0.0000   0.0000   0.0000   0.0000   0.0000   0.0000
     0.0000   0.0000

          k =-0.5000-1.3581 0.0000 (  8560 PWs)   bands (ev):

   -13.2576 -13.2576 -13.2576 -13.2576 -13.2396 -13.2396 -13.2396 -13.2396
   -13.2271 -13.2271 -13.2271 -13.2271 -13.2064 -13.2064 -13.2064 -13.2064
   -13.1781 -13.1781 -13.1781 -13.1781  -4.6542  -4.6542  -4.6542  -4.6542
     0.6667   0.6667   0.6667   0.6667   5.2999   5.2999   5.2999   5.2999
     5.9756   5.9756   5.9756   5.9756   7.0668   7.0668   7.0668   7.0668
     9.5792   9.5792   9.5792   9.5792  10.2426  10.2426  10.2426  10.2426
    12.0002  12.0002

     occupation numbers 
     1.0000   1.0000   1.0000   1.0000   1.0000   1.0000   1.0000   1.0000
     1.0000   1.0000   1.0000   1.0000   1.0000   1.0000   1.0000   1.0000
     1.0000   1.0000   1.0000   1.0000   1.0000   1.0000   1.0000   1.0000
     1.0000   1.0000   1.0000   1.0000   1.0000   1.0000   1.0000   1.0000
     1.0000   1.0000   1.0000   1.0000   1.0000   1.0000   1.0000   1.0000
     0.0000   0.0000   0.0000   0.0000   0.0000   0.0000   0.0000   0.0000
     0.0000   0.0000

          k =-0.5000-1.3581 0.2561 (  8536 PWs)   bands (ev):

   -13.2587 -13.2587 -13.2587 -13.2587 -13.2392 -13.2392 -13.2392 -13.2392
   -13.2268 -13.2268 -13.2268 -13.2268 -13.2062 -13.2062 -13.2062 -13.2062
   -13.1780 -13.1780 -13.1780 -13.1780  -4.6329  -4.6329  -4.6329  -4.6329
     0.7173   0.7173   0.7173   0.7173   5.0481   5.0481   5.0481   5.0481
     5.8066   5.8066   5.8066   5.8066   7.0338   7.0338   7.0338   7.0338
     9.5521   9.5521   9.5521   9.5521  10.8695  10.8695  10.8695  10.8695
    12.0237  12.0237

     occupation numbers 
     1.0000   1.0000   1.0000   1.0000   1.0000   1.0000   1.0000   1.0000
     1.0000   1.0000   1.0000   1.0000   1.0000   1.0000   1.0000   1.0000
     1.0000   1.0000   1.0000   1.0000   1.0000   1.0000   1.0000   1.0000
     1.0000   1.0000   1.0000   1.0000   1.0000   1.0000   1.0000   1.0000
     1.0000   1.0000   1.0000   1.0000   1.0000   1.0000   1.0000   1.0000
     0.0000   0.0000   0.0000   0.0000   0.0000   0.0000   0.0000   0.0000
     0.0000   0.0000

          k =-0.5000-1.3581 0.5123 (  8560 PWs)   bands (ev):

   -13.2615 -13.2615 -13.2615 -13.2615 -13.2384 -13.2384 -13.2384 -13.2384
   -13.2262 -13.2262 -13.2262 -13.2262 -13.2055 -13.2055 -13.2055 -13.2055
   -13.1780 -13.1780 -13.1780 -13.1780  -4.5759  -4.5759  -4.5759  -4.5759
     0.8604   0.8604   0.8604   0.8604   4.4593   4.4593   4.4593   4.4593
     5.5304   5.5304   5.5304   5.5304   6.7325   6.7325   6.7325   6.7325
    10.1659  10.1659  10.1659  10.1659  11.4291  11.4291  11.4291  11.4291
    12.4817  12.4817

     occupation numbers 
     1.0000   1.0000   1.0000   1.0000   1.0000   1.0000   1.0000   1.0000
     1.0000   1.0000   1.0000   1.0000   1.0000   1.0000   1.0000   1.0000
     1.0000   1.0000   1.0000   1.0000   1.0000   1.0000   1.0000   1.0000
     1.0000   1.0000   1.0000   1.0000   1.0000   1.0000   1.0000   1.0000
     1.0000   1.0000   1.0000   1.0000   1.0000   1.0000   1.0000   1.0000
     0.0000   0.0000   0.0000   0.0000   0.0000   0.0000   0.0000   0.0000
     0.0000   0.0000

          k =-0.5000-1.3581 0.7684 (  8520 PWs)   bands (ev):

   -13.2649 -13.2649 -13.2649 -13.2649 -13.2376 -13.2376 -13.2376 -13.2376
   -13.2254 -13.2254 -13.2254 -13.2254 -13.2045 -13.2045 -13.2045 -13.2045
   -13.1778 -13.1778 -13.1778 -13.1778  -4.5026  -4.5026  -4.5026  -4.5026
     1.0646   1.0646   1.0646   1.0646   3.9063   3.9063   3.9063   3.9063
     5.0405   5.0405   5.0405   5.0405   6.5708   6.5708   6.5708   6.5708
    10.7264  10.7264  10.7264  10.7264  11.7577  11.7577  11.7577  11.7577
    13.4506  13.4506

     occupation numbers 
     1.0000   1.0000   1.0000   1.0000   1.0000   1.0000   1.0000   1.0000
     1.0000   1.0000   1.0000   1.0000   1.0000   1.0000   1.0000   1.0000
     1.0000   1.0000   1.0000   1.0000   1.0000   1.0000   1.0000   1.0000
     1.0000   1.0000   1.0000   1.0000   1.0000   1.0000   1.0000   1.0000
     1.0000   1.0000   1.0000   1.0000   1.0000   1.0000   1.0000   1.0000
     0.0000   0.0000   0.0000   0.0000   0.0000   0.0000   0.0000   0.0000
     0.0000   0.0000

          k =-0.5000-1.3581 1.0246 (  8512 PWs)   bands (ev):

   -13.2676 -13.2676 -13.2676 -13.2676 -13.2372 -13.2372 -13.2372 -13.2372
   -13.2246 -13.2246 -13.2246 -13.2246 -13.2036 -13.2036 -13.2036 -13.2036
   -13.1776 -13.1776 -13.1776 -13.1776  -4.4409  -4.4409  -4.4409  -4.4409
     1.2610   1.2610   1.2610   1.2610   3.5612   3.5612   3.5612   3.5612
     4.5338   4.5338   4.5338   4.5338   6.5752   6.5752   6.5752   6.5752
    10.6899  10.6899  10.6899  10.6899  12.4860  12.4860  12.4860  12.4860
    14.2729  14.2729

     occupation numbers 
     1.0000   1.0000   1.0000   1.0000   1.0000   1.0000   1.0000   1.0000
     1.0000   1.0000   1.0000   1.0000   1.0000   1.0000   1.0000   1.0000
     1.0000   1.0000   1.0000   1.0000   1.0000   1.0000   1.0000   1.0000
     1.0000   1.0000   1.0000   1.0000   1.0000   1.0000   1.0000   1.0000
     1.0000   1.0000   1.0000   1.0000   1.0000   1.0000   1.0000   1.0000
     0.0000   0.0000   0.0000   0.0000   0.0000   0.0000   0.0000   0.0000
     0.0000   0.0000

          k =-0.5000-1.3581-1.2807 (  8472 PWs)   bands (ev):

   -13.2685 -13.2685 -13.2685 -13.2685 -13.2371 -13.2371 -13.2371 -13.2371
   -13.2243 -13.2243 -13.2243 -13.2243 -13.2032 -13.2032 -13.2032 -13.2032
   -13.1775 -13.1775 -13.1775 -13.1775  -4.4168  -4.4168  -4.4168  -4.4168
     1.3460   1.3460   1.3460   1.3460   3.4562   3.4562   3.4562   3.4562
     4.3146   4.3146   4.3146   4.3146   6.5937   6.5937   6.5937   6.5937
    10.6238  10.6238  10.6238  10.6238  12.8388  12.8388  12.8388  12.8388
    14.6038  14.6038

     occupation numbers 
     1.0000   1.0000   1.0000   1.0000   1.0000   1.0000   1.0000   1.0000
     1.0000   1.0000   1.0000   1.0000   1.0000   1.0000   1.0000   1.0000
     1.0000   1.0000   1.0000   1.0000   1.0000   1.0000   1.0000   1.0000
     1.0000   1.0000   1.0000   1.0000   1.0000   1.0000   1.0000   1.0000
     1.0000   1.0000   1.0000   1.0000   1.0000   1.0000   1.0000   1.0000
     0.0000   0.0000   0.0000   0.0000   0.0000   0.0000   0.0000   0.0000
     0.0000   0.0000

     highest occupied, lowest unoccupied level (ev):     8.0404    8.6899

!    total energy              =    -827.62115782 Ry
     estimated scf accuracy    <          9.8E-10 Ry

     The total energy is the sum of the following terms:
     one-electron contribution =    -257.00375439 Ry
     hartree contribution      =     179.10612465 Ry
     xc contribution           =    -309.11871188 Ry
     ewald contribution        =    -440.60481620 Ry

     convergence has been achieved in   9 iterations

     Forces acting on atoms (cartesian axes, Ry/au):

     atom    1 type  2   force =     0.00873055    0.00000000   -0.00115958
     atom    2 type  1   force =    -0.00815110    0.00000000   -0.00146647
     atom    3 type  2   force =    -0.00873055    0.00000000   -0.00115958
     atom    4 type  1   force =     0.00815110    0.00000000   -0.00146647
     atom    5 type  2   force =     0.00873055    0.00000000    0.00115958
     atom    6 type  1   force =    -0.00815110   -0.00000000    0.00146647
     atom    7 type  2   force =    -0.00873055    0.00000000    0.00115958
     atom    8 type  1   force =     0.00815110   -0.00000000    0.00146647
     The non-local contrib.  to forces
     atom    1 type  2   force =    -0.11421900    0.00000000    0.09802956
     atom    2 type  1   force =     0.36350298    0.00000000    0.27052444
     atom    3 type  2   force =     0.11421900    0.00000000    0.09802956
     atom    4 type  1   force =    -0.36350298    0.00000000    0.27052444
     atom    5 type  2   force =    -0.11421900    0.00000000   -0.09802956
     atom    6 type  1   force =     0.36350298    0.00000000   -0.27052444
     atom    7 type  2   force =     0.11421900    0.00000000   -0.09802956
     atom    8 type  1   force =    -0.36350298    0.00000000   -0.27052444
     The ionic contribution  to forces
     atom    1 type  2   force =     1.53473235    0.00000000   -1.05154455
     atom    2 type  1   force =    -1.03769718    0.00000000   -0.57506129
     atom    3 type  2   force =    -1.53473235    0.00000000   -1.05154455
     atom    4 type  1   force =     1.03769718   -0.00000000   -0.57506129
     atom    5 type  2   force =     1.53473235    0.00000000    1.05154455
     atom    6 type  1   force =    -1.03769718   -0.00000000    0.57506129
     atom    7 type  2   force =    -1.53473235   -0.00000000    1.05154455
     atom    8 type  1   force =     1.03769718    0.00000000    0.57506129
     The local contribution  to forces
     atom    1 type  2   force =    -1.42430863   -0.00000000    0.96319534
     atom    2 type  1   force =     0.67155759   -0.00000000    0.30754356
     atom    3 type  2   force =     1.42430863   -0.00000000    0.96319534
     atom    4 type  1   force =    -0.67155759    0.00000000    0.30754356
     atom    5 type  2   force =    -1.42430863    0.00000000   -0.96319534
     atom    6 type  1   force =     0.67155759    0.00000000   -0.30754356
     atom    7 type  2   force =     1.42430863    0.00000000   -0.96319534
     atom    8 type  1   force =    -0.67155759    0.00000000   -0.30754356
     The core correction contribution to forces
     atom    1 type  2   force =     0.01249928   -0.00000000   -0.01084015
     atom    2 type  1   force =    -0.00546709   -0.00000000   -0.00450299
     atom    3 type  2   force =    -0.01249928   -0.00000000   -0.01084015
     atom    4 type  1   force =     0.00546709    0.00000000   -0.00450299
     atom    5 type  2   force =     0.01249928   -0.00000000    0.01084015
     atom    6 type  1   force =    -0.00546709   -0.00000000    0.00450299
     atom    7 type  2   force =    -0.01249928   -0.00000000    0.01084015
     atom    8 type  1   force =     0.00546709    0.00000000    0.00450299
     The Hubbard contrib.    to forces
     atom    1 type  2   force =     0.00000000    0.00000000    0.00000000
     atom    2 type  1   force =     0.00000000    0.00000000    0.00000000
     atom    3 type  2   force =     0.00000000    0.00000000    0.00000000
     atom    4 type  1   force =     0.00000000    0.00000000    0.00000000
     atom    5 type  2   force =     0.00000000    0.00000000    0.00000000
     atom    6 type  1   force =     0.00000000    0.00000000    0.00000000
     atom    7 type  2   force =     0.00000000    0.00000000    0.00000000
     atom    8 type  1   force =     0.00000000    0.00000000    0.00000000
     The SCF correction term to forces
     atom    1 type  2   force =     0.00002655    0.00000000    0.00000022
     atom    2 type  1   force =    -0.00004740    0.00000000    0.00002981
     atom    3 type  2   force =    -0.00002655    0.00000000    0.00000022
     atom    4 type  1   force =     0.00004740   -0.00000000    0.00002981
     atom    5 type  2   force =     0.00002655    0.00000000   -0.00000022
     atom    6 type  1   force =    -0.00004740    0.00000000   -0.00002981
     atom    7 type  2   force =    -0.00002655    0.00000000   -0.00000022
     atom    8 type  1   force =     0.00004740   -0.00000000   -0.00002981

     Total force =     0.024179     Total SCF correction =     0.000124

     Writing output data file ./tmp/SnSe_pnma.save/

     init_run     :     17.42s CPU     21.03s WALL (       1 calls)
     electrons    :    571.08s CPU    615.87s WALL (       1 calls)
     forces       :     13.90s CPU     15.69s WALL (       1 calls)

     Called by init_run:
     wfcinit      :     12.74s CPU     15.54s WALL (       1 calls)
     wfcinit:atom :      0.15s CPU      0.12s WALL (      18 calls)
     wfcinit:wfcr :     11.49s CPU     14.51s WALL (      18 calls)
     potinit      :      1.34s CPU      1.44s WALL (       1 calls)
     hinit0       :      2.24s CPU      2.27s WALL (       1 calls)

     Called by electrons:
     c_bands      :    492.35s CPU    529.83s WALL (       9 calls)
     sum_band     :     60.48s CPU     63.10s WALL (       9 calls)
     v_of_rho     :      4.66s CPU      5.26s WALL (      10 calls)
     v_h          :      0.35s CPU      0.36s WALL (      10 calls)
     v_xc         :      4.75s CPU      5.38s WALL (      11 calls)
     newd         :     13.66s CPU     18.41s WALL (      10 calls)
     mix_rho      :      0.81s CPU      0.79s WALL (       9 calls)

     Called by c_bands:
     init_us_2    :      4.47s CPU      4.06s WALL (     360 calls)
     cegterg      :    310.10s CPU    346.42s WALL (     162 calls)

     Called by sum_band:
     sum_band:wei :      0.04s CPU      0.02s WALL (       9 calls)
     sum_band:loo :     44.02s CPU     45.34s WALL (       9 calls)
     sum_band:buf :      0.37s CPU      0.31s WALL (     162 calls)
     sum_band:ini :      2.01s CPU      1.70s WALL (     162 calls)
     sum_band:cal :      8.76s CPU     13.07s WALL (     162 calls)
     sum_band:bec :      0.03s CPU      0.02s WALL (     162 calls)
     addusdens    :      5.05s CPU      6.28s WALL (       9 calls)
     addusd:skk   :      0.02s CPU      0.04s WALL (      18 calls)
     addusd:dgemm :      1.70s CPU      2.15s WALL (      18 calls)
     addusd:qvan2 :      2.85s CPU      2.90s WALL (      18 calls)

     Called by *egterg:
     cdiaghg      :     18.92s CPU     34.79s WALL (     746 calls)
     cegterg:over :     32.31s CPU     50.80s WALL (     584 calls)
     cegterg:upda :     11.48s CPU      6.29s WALL (     584 calls)
     cegterg:last :     19.49s CPU      7.69s WALL (     344 calls)
     h_psi        :    196.40s CPU    206.08s WALL (     764 calls)
     s_psi        :     20.81s CPU      7.92s WALL (     764 calls)
     g_psi        :      1.67s CPU      1.45s WALL (     584 calls)

     Called by h_psi:
     h_psi:calbec :     33.62s CPU     58.78s WALL (     764 calls)
     vloc_psi     :    140.99s CPU    137.92s WALL (     764 calls)
     add_vuspsi   :     20.70s CPU      8.03s WALL (     764 calls)

     General routines
     calbec       :     46.04s CPU     75.02s WALL (     998 calls)
     fft          :      2.96s CPU      2.96s WALL (     139 calls)
     ffts         :      0.08s CPU      0.08s WALL (      19 calls)
     fftw         :    140.13s CPU    135.56s WALL (   52522 calls)
     interpolate  :      0.30s CPU      0.30s WALL (      10 calls)

     Parallel routines

     PWSCF        :  10m 4.06s CPU  10m54.54s WALL


   This run was terminated on:  18:17: 5  18May2026            

=------------------------------------------------------------------------------=
   JOB DONE.
=------------------------------------------------------------------------------=
