
     Program PWSCF v.6.7MaX starts on 17May2026 at 23:28:29 

     This program is part of the open-source Quantum ESPRESSO suite
     for quantum simulation of materials; please cite
         "P. Giannozzi et al., J. Phys.:Condens. Matter 21 395502 (2009);
         "P. Giannozzi et al., J. Phys.:Condens. Matter 29 465901 (2017);
          URL http://www.quantum-espresso.org", 
     in publications or presentations arising from this work. More details at
     http://www.quantum-espresso.org/quote

     Parallel version (MPI), running on     6 processors

     MPI processes distributed on     1 nodes
     K-points division:     npool     =       3
     R & G space division:  proc/nbgrp/npool/nimage =       2
     Waiting for input...
     Reading input from standard input

     Current dimensions of program PWSCF are:
     Max number of different atomic species (ntypx) = 10
     Max number of k-points (npk) =  40000
     Max angular momentum in pseudopotentials (lmaxx) =  3

     Subspace diagonalization in iterative solution of the eigenvalue problem:
     a serial algorithm will be used


     Parallelization info
     --------------------
     sticks:   dense  smooth     PW     G-vecs:    dense   smooth      PW
     Min        3382    1355    384               134537    34027    5142
     Max        3383    1356    385               134538    34028    5143
     Sum        6765    2711    769               269075    68055   10285



     bravais-lattice index     =            8
     lattice parameter (alat)  =      21.4862  a.u.
     unit-cell volume          =    1425.7436 (a.u.)^3
     number of atoms/cell      =            8
     number of atomic types    =            2
     number of electrons       =        80.00
     number of Kohn-Sham states=           50
     kinetic-energy cutoff     =      50.0000  Ry
     charge density cutoff     =     500.0000  Ry
     scf convergence threshold =      1.0E-08
     mixing beta               =       0.7000
     number of iterations used =            8  plain     mixing
     Exchange-correlation= SLA  PW   PBE  PBE
                           (   1   4   3   4   0   0   0)

     celldm(1)=  21.486186  celldm(2)=   0.368162  celldm(3)=   0.390413
     celldm(4)=   0.000000  celldm(5)=   0.000000  celldm(6)=   0.000000

     crystal axes: (cart. coord. in units of alat)
               a(1) = (   1.000000   0.000000   0.000000 )  
               a(2) = (   0.000000   0.368162   0.000000 )  
               a(3) = (   0.000000   0.000000   0.390413 )  

     reciprocal axes: (cart. coord. in units 2 pi/alat)
               b(1) = (  1.000000  0.000000  0.000000 )  
               b(2) = (  0.000000  2.716197  0.000000 )  
               b(3) = (  0.000000  0.000000  2.561388 )  


     PseudoPot. # 1 for Sn read from file:
     ../pseudo/Sn_pbe_v1.uspp.F.UPF
     MD5 check sum: 4cf58ce39ec5d5d420df3dd08604eb00
     Pseudo is Ultrasoft + core correction, Zval = 14.0
     Generated by new atomic code, or converted to UPF format
     Using radial grid of  891 points,  6 beta functions with: 
                l(1) =   0
                l(2) =   0
                l(3) =   1
                l(4) =   1
                l(5) =   2
                l(6) =   2
     Q(r) pseudized with  6 coefficients,  rinner =    1.200   1.200   1.200
                                                       1.200   1.200

     PseudoPot. # 2 for Se read from file:
     ../pseudo/Se_pbe_v1.uspp.F.UPF
     MD5 check sum: 1b3568f3a8ae88f9a2a0ad0698632c85
     Pseudo is Ultrasoft + core correction, Zval =  6.0
     Generated by new atomic code, or converted to UPF format
     Using radial grid of  877 points,  6 beta functions with: 
                l(1) =   0
                l(2) =   0
                l(3) =   1
                l(4) =   1
                l(5) =   2
                l(6) =   2
     Q(r) pseudized with  8 coefficients,  rinner =    1.300   1.300   1.300
                                                       1.300   1.300

     atomic species   valence    mass     pseudopotential
        Sn            14.00   118.71000     Sn( 1.00)
        Se             6.00    78.97100     Se( 1.00)

      8 Sym. Ops., with inversion, found ( 6 have fractional translation)


                                    s                        frac. trans.

      isym =  1     identity                                     

 cryst.   s( 1) = (     1          0          0      )
                  (     0          1          0      )
                  (     0          0          1      )

 cart.    s( 1) = (  1.0000000  0.0000000  0.0000000 )
                  (  0.0000000  1.0000000  0.0000000 )
                  (  0.0000000  0.0000000  1.0000000 )


      isym =  2     180 deg rotation - cart. axis [0,0,1]        

 cryst.   s( 2) = (    -1          0          0      )    f =(  0.5000000 )
                  (     0         -1          0      )       (  0.0000000 )
                  (     0          0          1      )       (  0.5000000 )

 cart.    s( 2) = ( -1.0000000  0.0000000  0.0000000 )    f =(  0.5000000 )
                  (  0.0000000 -1.0000000  0.0000000 )       (  0.0000000 )
                  (  0.0000000  0.0000000  1.0000000 )       (  0.1952067 )


      isym =  3     180 deg rotation - cart. axis [0,1,0]        

 cryst.   s( 3) = (    -1          0          0      )    f =(  0.0000000 )
                  (     0          1          0      )       ( -0.5000000 )
                  (     0          0         -1      )       (  0.0000000 )

 cart.    s( 3) = ( -1.0000000  0.0000000  0.0000000 )    f =(  0.0000000 )
                  (  0.0000000  1.0000000  0.0000000 )       ( -0.1840809 )
                  (  0.0000000  0.0000000 -1.0000000 )       (  0.0000000 )


      isym =  4     180 deg rotation - cart. axis [1,0,0]        

 cryst.   s( 4) = (     1          0          0      )    f =(  0.5000000 )
                  (     0         -1          0      )       (  0.5000000 )
                  (     0          0         -1      )       (  0.5000000 )

 cart.    s( 4) = (  1.0000000  0.0000000  0.0000000 )    f =(  0.5000000 )
                  (  0.0000000 -1.0000000  0.0000000 )       (  0.1840809 )
                  (  0.0000000  0.0000000 -1.0000000 )       (  0.1952067 )


      isym =  5     inversion                                    

 cryst.   s( 5) = (    -1          0          0      )
                  (     0         -1          0      )
                  (     0          0         -1      )

 cart.    s( 5) = ( -1.0000000  0.0000000  0.0000000 )
                  (  0.0000000 -1.0000000  0.0000000 )
                  (  0.0000000  0.0000000 -1.0000000 )


      isym =  6     inv. 180 deg rotation - cart. axis [0,0,1]   

 cryst.   s( 6) = (     1          0          0      )    f =(  0.5000000 )
                  (     0          1          0      )       (  0.0000000 )
                  (     0          0         -1      )       (  0.5000000 )

 cart.    s( 6) = (  1.0000000  0.0000000  0.0000000 )    f =(  0.5000000 )
                  (  0.0000000  1.0000000  0.0000000 )       (  0.0000000 )
                  (  0.0000000  0.0000000 -1.0000000 )       (  0.1952067 )


      isym =  7     inv. 180 deg rotation - cart. axis [0,1,0]   

 cryst.   s( 7) = (     1          0          0      )    f =(  0.0000000 )
                  (     0         -1          0      )       (  0.5000000 )
                  (     0          0          1      )       (  0.0000000 )

 cart.    s( 7) = (  1.0000000  0.0000000  0.0000000 )    f =(  0.0000000 )
                  (  0.0000000 -1.0000000  0.0000000 )       (  0.1840809 )
                  (  0.0000000  0.0000000  1.0000000 )       (  0.0000000 )


      isym =  8     inv. 180 deg rotation - cart. axis [1,0,0]   

 cryst.   s( 8) = (    -1          0          0      )    f =(  0.5000000 )
                  (     0          1          0      )       ( -0.5000000 )
                  (     0          0          1      )       (  0.5000000 )

 cart.    s( 8) = ( -1.0000000  0.0000000  0.0000000 )    f =(  0.5000000 )
                  (  0.0000000  1.0000000  0.0000000 )       ( -0.1840809 )
                  (  0.0000000  0.0000000  1.0000000 )       (  0.1952067 )


     point group D_2h (mmm) 
     there are  8 classes
     the character table:

       E     C2    C2'   C2''  i     s_v   s_v'  s_v''
A_g    1.00  1.00  1.00  1.00  1.00  1.00  1.00  1.00
B_1g   1.00  1.00 -1.00 -1.00  1.00  1.00 -1.00 -1.00
B_2g   1.00 -1.00  1.00 -1.00  1.00 -1.00  1.00 -1.00
B_3g   1.00 -1.00 -1.00  1.00  1.00 -1.00 -1.00  1.00
A_u    1.00  1.00  1.00  1.00 -1.00 -1.00 -1.00 -1.00
B_1u   1.00  1.00 -1.00 -1.00 -1.00 -1.00  1.00  1.00
B_2u   1.00 -1.00  1.00 -1.00 -1.00  1.00 -1.00  1.00
B_3u   1.00 -1.00 -1.00  1.00 -1.00  1.00  1.00 -1.00

     the symmetry operations in each class and the name of the first element:

     E        1
          identity                                               
     C2       2
          180 deg rotation - cart. axis [0,0,1]                  
     C2'      4
          180 deg rotation - cart. axis [1,0,0]                  
     C2''     3
          180 deg rotation - cart. axis [0,1,0]                  
     i        5
          inversion                                              
     s_v      6
          inv. 180 deg rotation - cart. axis [0,0,1]             
     s_v'     8
          inv. 180 deg rotation - cart. axis [1,0,0]             
     s_v''    7
          inv. 180 deg rotation - cart. axis [0,1,0]             

   Cartesian axes

     site n.     atom                  positions (alat units)
         1           Se  tau(   1) = (   0.8555000   0.0920405   0.1884916  )
         2           Sn  tau(   2) = (   0.1187000   0.0920405   0.0385728  )
         3           Se  tau(   3) = (   0.6445000   0.2761214   0.3836983  )
         4           Sn  tau(   4) = (   0.3813000   0.2761214   0.2337795  )
         5           Se  tau(   5) = (   0.3555000   0.0920405   0.0067151  )
         6           Sn  tau(   6) = (   0.6187000   0.0920405   0.1566338  )
         7           Se  tau(   7) = (   0.1445000   0.2761214   0.2019218  )
         8           Sn  tau(   8) = (   0.8813000   0.2761214   0.3518405  )

   Crystallographic axes

     site n.     atom                  positions (cryst. coord.)
         1           Se  tau(   1) = (  0.8555000  0.2500000  0.4828000  )
         2           Sn  tau(   2) = (  0.1187000  0.2500000  0.0988000  )
         3           Se  tau(   3) = (  0.6445000  0.7500000  0.9828000  )
         4           Sn  tau(   4) = (  0.3813000  0.7500000  0.5988000  )
         5           Se  tau(   5) = (  0.3555000  0.2500000  0.0172000  )
         6           Sn  tau(   6) = (  0.6187000  0.2500000  0.4012000  )
         7           Se  tau(   7) = (  0.1445000  0.7500000  0.5172000  )
         8           Sn  tau(   8) = (  0.8813000  0.7500000  0.9012000  )

     number of k points=     9
                       cart. coord. in units 2pi/alat
        k(    1) = (   0.2500000   0.2263497   0.2134490), wk =   0.2222222
        k(    2) = (   0.2500000   0.2263497   0.6403469), wk =   0.2222222
        k(    3) = (   0.2500000   0.2263497   1.0672449), wk =   0.2222222
        k(    4) = (   0.2500000   0.6790492   0.2134490), wk =   0.2222222
        k(    5) = (   0.2500000   0.6790492   0.6403469), wk =   0.2222222
        k(    6) = (   0.2500000   0.6790492   1.0672449), wk =   0.2222222
        k(    7) = (   0.2500000   1.1317487   0.2134490), wk =   0.2222222
        k(    8) = (   0.2500000   1.1317487   0.6403469), wk =   0.2222222
        k(    9) = (   0.2500000   1.1317487   1.0672449), wk =   0.2222222

                       cryst. coord.
        k(    1) = (   0.2500000   0.0833333   0.0833333), wk =   0.2222222
        k(    2) = (   0.2500000   0.0833333   0.2500000), wk =   0.2222222
        k(    3) = (   0.2500000   0.0833333   0.4166667), wk =   0.2222222
        k(    4) = (   0.2500000   0.2500000   0.0833333), wk =   0.2222222
        k(    5) = (   0.2500000   0.2500000   0.2500000), wk =   0.2222222
        k(    6) = (   0.2500000   0.2500000   0.4166667), wk =   0.2222222
        k(    7) = (   0.2500000   0.4166667   0.0833333), wk =   0.2222222
        k(    8) = (   0.2500000   0.4166667   0.2500000), wk =   0.2222222
        k(    9) = (   0.2500000   0.4166667   0.4166667), wk =   0.2222222

     Dense  grid:   269075 G-vectors     FFT dimensions: ( 160,  60,  60)

     Smooth grid:    68055 G-vectors     FFT dimensions: ( 100,  36,  40)

     Dynamical RAM for                 wfc:       3.25 MB

     Dynamical RAM for     wfc (w. buffer):      12.99 MB

     Dynamical RAM for           str. fact:       4.11 MB

     Dynamical RAM for           local pot:       0.00 MB

     Dynamical RAM for          nlocal pot:       9.35 MB

     Dynamical RAM for                qrad:       3.59 MB

     Dynamical RAM for          rho,v,vnew:      12.75 MB

     Dynamical RAM for               rhoin:       4.25 MB

     Dynamical RAM for            rho*nmix:      32.85 MB

     Dynamical RAM for           G-vectors:       7.96 MB

     Dynamical RAM for          h,s,v(r/c):       0.46 MB

     Dynamical RAM for          <psi|beta>:       0.11 MB

     Dynamical RAM for                 psi:       6.49 MB

     Dynamical RAM for                hpsi:       6.49 MB

     Dynamical RAM for                spsi:       6.49 MB

     Dynamical RAM for      wfcinit/wfcrot:       6.82 MB

     Dynamical RAM for           addusdens:     131.38 MB

     Dynamical RAM for          addusforce:     135.16 MB

     Estimated static dynamical RAM per process >     104.98 MB

     Estimated max dynamical RAM per process >     240.15 MB

     Estimated total dynamical RAM >       1.41 GB

     Initial potential from superposition of free atoms

     starting charge   75.99954, renormalised to   80.00000
     Starting wfcs are   52 randomized atomic wfcs

     total cpu time spent up to now is        7.5 secs

     Self-consistent Calculation

     iteration #  1     ecut=    50.00 Ry     beta= 0.70
     Davidson diagonalization with overlap
     ethr =  1.00E-02,  avg # of iterations =  4.0

     total cpu time spent up to now is       18.0 secs

     total energy              =    -826.55382543 Ry
     estimated scf accuracy    <       2.63118416 Ry

     iteration #  2     ecut=    50.00 Ry     beta= 0.70
     Davidson diagonalization with overlap
     ethr =  3.29E-03,  avg # of iterations =  2.0

     total cpu time spent up to now is       27.1 secs

     total energy              =    -827.34237923 Ry
     estimated scf accuracy    <       1.08563416 Ry

     iteration #  3     ecut=    50.00 Ry     beta= 0.70
     Davidson diagonalization with overlap
     ethr =  1.36E-03,  avg # of iterations =  2.0

     total cpu time spent up to now is       35.3 secs

     total energy              =    -827.61155438 Ry
     estimated scf accuracy    <       0.06062597 Ry

     iteration #  4     ecut=    50.00 Ry     beta= 0.70
     Davidson diagonalization with overlap
     ethr =  7.58E-05,  avg # of iterations =  3.3

     total cpu time spent up to now is       43.4 secs

     total energy              =    -827.62264781 Ry
     estimated scf accuracy    <       0.00289816 Ry

     iteration #  5     ecut=    50.00 Ry     beta= 0.70
     Davidson diagonalization with overlap
     ethr =  3.62E-06,  avg # of iterations =  7.0

     total cpu time spent up to now is       55.2 secs

     total energy              =    -827.62328824 Ry
     estimated scf accuracy    <       0.00080594 Ry

     iteration #  6     ecut=    50.00 Ry     beta= 0.70
     Davidson diagonalization with overlap
     ethr =  1.01E-06,  avg # of iterations =  2.0

     total cpu time spent up to now is       63.9 secs

     total energy              =    -827.62346283 Ry
     estimated scf accuracy    <       0.00004257 Ry

     iteration #  7     ecut=    50.00 Ry     beta= 0.70
     Davidson diagonalization with overlap
     ethr =  5.32E-08,  avg # of iterations =  5.0

     total cpu time spent up to now is       75.3 secs

     total energy              =    -827.62349108 Ry
     estimated scf accuracy    <       0.00000247 Ry

     iteration #  8     ecut=    50.00 Ry     beta= 0.70
     Davidson diagonalization with overlap
     ethr =  3.09E-09,  avg # of iterations =  3.9

     total cpu time spent up to now is       84.3 secs

     total energy              =    -827.62349221 Ry
     estimated scf accuracy    <       0.00000040 Ry

     iteration #  9     ecut=    50.00 Ry     beta= 0.70
     Davidson diagonalization with overlap
     ethr =  5.06E-10,  avg # of iterations =  3.2

     total cpu time spent up to now is       95.9 secs

     End of self-consistent calculation

          k = 0.2500 0.2263 0.2134 (  8491 PWs)   bands (ev):

   -13.2618 -13.2542 -13.2502 -13.2494 -13.2481 -13.2472 -13.2421 -13.2391
   -13.2339 -13.2300 -13.2299 -13.2271 -13.2153 -13.2112 -13.1949 -13.1926
   -13.1861 -13.1849 -13.1736 -13.1676  -5.6477  -5.4152  -4.5515  -4.2283
     0.7515   1.4350   2.5825   2.7719   3.4552   4.5133   4.6834   4.9683
     5.2749   5.5783   5.9172   6.1907   6.5138   6.8206   7.3921   7.5701
     9.7070  10.5201  10.9605  11.0727  11.1557  11.3879  11.8561  12.3841
    12.6453  13.1023

     occupation numbers 
     1.0000   1.0000   1.0000   1.0000   1.0000   1.0000   1.0000   1.0000
     1.0000   1.0000   1.0000   1.0000   1.0000   1.0000   1.0000   1.0000
     1.0000   1.0000   1.0000   1.0000   1.0000   1.0000   1.0000   1.0000
     1.0000   1.0000   1.0000   1.0000   1.0000   1.0000   1.0000   1.0000
     1.0000   1.0000   1.0000   1.0000   1.0000   1.0000   1.0000   1.0000
     0.0000   0.0000   0.0000   0.0000   0.0000   0.0000   0.0000   0.0000
     0.0000   0.0000

          k = 0.2500 0.2263 0.6403 (  8507 PWs)   bands (ev):

   -13.2596 -13.2532 -13.2518 -13.2499 -13.2482 -13.2466 -13.2440 -13.2418
   -13.2320 -13.2275 -13.2254 -13.2249 -13.2151 -13.2121 -13.1948 -13.1916
   -13.1878 -13.1862 -13.1727 -13.1684  -5.4262  -5.2089  -4.5554  -4.2886
     0.2902   0.9941   1.7591   2.2111   3.7304   4.5816   4.7743   5.4959
     5.5985   6.0046   6.2258   6.2819   7.0319   7.3019   7.3610   7.6712
     9.5527   9.7337  10.1044  10.2334  10.9755  11.0611  11.5274  11.7302
    12.4348  12.5360

     occupation numbers 
     1.0000   1.0000   1.0000   1.0000   1.0000   1.0000   1.0000   1.0000
     1.0000   1.0000   1.0000   1.0000   1.0000   1.0000   1.0000   1.0000
     1.0000   1.0000   1.0000   1.0000   1.0000   1.0000   1.0000   1.0000
     1.0000   1.0000   1.0000   1.0000   1.0000   1.0000   1.0000   1.0000
     1.0000   1.0000   1.0000   1.0000   1.0000   1.0000   1.0000   1.0000
     0.0000   0.0000   0.0000   0.0000   0.0000   0.0000   0.0000   0.0000
     0.0000   0.0000

          k = 0.2500 0.2263 1.0672 (  8486 PWs)   bands (ev):

   -13.2566 -13.2545 -13.2528 -13.2521 -13.2468 -13.2464 -13.2450 -13.2444
   -13.2298 -13.2282 -13.2194 -13.2190 -13.2160 -13.2144 -13.1933 -13.1912
   -13.1892 -13.1879 -13.1713 -13.1697  -5.0702  -4.9018  -4.6588  -4.4808
     0.0552   0.3762   1.3249   1.5666   4.2988   4.8647   5.2201   5.5234
     5.9185   5.9413   6.1335   6.5684   7.3209   7.5103   7.5489   7.7565
     9.2633   9.3997   9.5606  10.0277  10.2332  10.7146  10.8976  11.0247
    11.8889  11.9329

     occupation numbers 
     1.0000   1.0000   1.0000   1.0000   1.0000   1.0000   1.0000   1.0000
     1.0000   1.0000   1.0000   1.0000   1.0000   1.0000   1.0000   1.0000
     1.0000   1.0000   1.0000   1.0000   1.0000   1.0000   1.0000   1.0000
     1.0000   1.0000   1.0000   1.0000   1.0000   1.0000   1.0000   1.0000
     1.0000   1.0000   1.0000   1.0000   1.0000   1.0000   1.0000   1.0000
     0.0000   0.0000   0.0000   0.0000   0.0000   0.0000   0.0000   0.0000
     0.0000   0.0000

          k = 0.2500 0.6790 0.2134 (  8540 PWs)   bands (ev):

   -13.2559 -13.2544 -13.2519 -13.2501 -13.2456 -13.2435 -13.2434 -13.2418
   -13.2350 -13.2312 -13.2262 -13.2239 -13.2128 -13.2112 -13.1954 -13.1929
   -13.1882 -13.1835 -13.1741 -13.1708  -5.3686  -5.1690  -4.4769  -4.2533
     0.4896   1.0612   1.7732   1.9927   3.7185   4.3944   4.7317   5.1856
     5.6099   5.8927   6.0362   6.2164   6.7894   7.1142   7.4362   7.6651
     9.2473   9.7706  10.1267  10.3817  10.9274  11.1992  11.4021  11.9017
    12.3959  12.6409

     occupation numbers 
     1.0000   1.0000   1.0000   1.0000   1.0000   1.0000   1.0000   1.0000
     1.0000   1.0000   1.0000   1.0000   1.0000   1.0000   1.0000   1.0000
     1.0000   1.0000   1.0000   1.0000   1.0000   1.0000   1.0000   1.0000
     1.0000   1.0000   1.0000   1.0000   1.0000   1.0000   1.0000   1.0000
     1.0000   1.0000   1.0000   1.0000   1.0000   1.0000   1.0000   1.0000
     0.0000   0.0000   0.0000   0.0000   0.0000   0.0000   0.0000   0.0000
     0.0000   0.0000

          k = 0.2500 0.6790 0.6403 (  8508 PWs)   bands (ev):

   -13.2598 -13.2573 -13.2541 -13.2523 -13.2449 -13.2431 -13.2414 -13.2410
   -13.2334 -13.2310 -13.2224 -13.2202 -13.2135 -13.2106 -13.1949 -13.1930
   -13.1883 -13.1848 -13.1733 -13.1708  -5.1680  -4.9850  -4.4662  -4.2768
     0.4219   1.0585   1.6049   1.8118   3.6754   3.8155   4.1906   4.8930
     5.0314   5.7748   6.2288   6.5867   6.6061   6.7494   7.3834   7.5891
     9.4594   9.8188  10.1829  10.5570  10.8249  11.3273  11.5566  12.2886
    12.6319  13.1166

     occupation numbers 
     1.0000   1.0000   1.0000   1.0000   1.0000   1.0000   1.0000   1.0000
     1.0000   1.0000   1.0000   1.0000   1.0000   1.0000   1.0000   1.0000
     1.0000   1.0000   1.0000   1.0000   1.0000   1.0000   1.0000   1.0000
     1.0000   1.0000   1.0000   1.0000   1.0000   1.0000   1.0000   1.0000
     1.0000   1.0000   1.0000   1.0000   1.0000   1.0000   1.0000   1.0000
     0.0000   0.0000   0.0000   0.0000   0.0000   0.0000   0.0000   0.0000
     0.0000   0.0000

          k = 0.2500 0.6790 1.0672 (  8494 PWs)   bands (ev):

   -13.2625 -13.2615 -13.2563 -13.2556 -13.2434 -13.2422 -13.2405 -13.2401
   -13.2318 -13.2311 -13.2180 -13.2167 -13.2130 -13.2113 -13.1940 -13.1933
   -13.1878 -13.1864 -13.1721 -13.1712  -4.8587  -4.7221  -4.5316  -4.3980
     0.4017   0.6847   1.5252   1.6496   3.7167   3.8971   4.3099   4.4984
     4.8197   5.3912   5.7591   6.0866   6.3054   6.5270   7.0405   7.3144
     9.6618  10.3692  10.6207  11.1840  11.5214  11.7161  11.9822  12.3226
    12.7824  13.0760

     occupation numbers 
     1.0000   1.0000   1.0000   1.0000   1.0000   1.0000   1.0000   1.0000
     1.0000   1.0000   1.0000   1.0000   1.0000   1.0000   1.0000   1.0000
     1.0000   1.0000   1.0000   1.0000   1.0000   1.0000   1.0000   1.0000
     1.0000   1.0000   1.0000   1.0000   1.0000   1.0000   1.0000   1.0000
     1.0000   1.0000   1.0000   1.0000   1.0000   1.0000   1.0000   1.0000
     0.0000   0.0000   0.0000   0.0000   0.0000   0.0000   0.0000   0.0000
     0.0000   0.0000

          k = 0.2500 1.1317 0.2134 (  8545 PWs)   bands (ev):

   -13.2594 -13.2576 -13.2567 -13.2547 -13.2402 -13.2395 -13.2391 -13.2369
   -13.2298 -13.2294 -13.2254 -13.2209 -13.2120 -13.2073 -13.2023 -13.2012
   -13.1820 -13.1789 -13.1754 -13.1751  -4.9038  -4.7894  -4.5077  -4.4625
     0.3440   0.7878   0.8461   1.2221   4.3316   4.7916   5.0594   5.4443
     5.7284   5.8369   6.1267   6.4187   6.8632   6.9994   7.1761   7.3762
     9.1765   9.3476   9.6278   9.7559  10.3177  10.6481  10.8894  11.0939
    11.6143  11.9960

     occupation numbers 
     1.0000   1.0000   1.0000   1.0000   1.0000   1.0000   1.0000   1.0000
     1.0000   1.0000   1.0000   1.0000   1.0000   1.0000   1.0000   1.0000
     1.0000   1.0000   1.0000   1.0000   1.0000   1.0000   1.0000   1.0000
     1.0000   1.0000   1.0000   1.0000   1.0000   1.0000   1.0000   1.0000
     1.0000   1.0000   1.0000   1.0000   1.0000   1.0000   1.0000   1.0000
     0.0000   0.0000   0.0000   0.0000   0.0000   0.0000   0.0000   0.0000
     0.0000   0.0000

          k = 0.2500 1.1317 0.6403 (  8519 PWs)   bands (ev):

   -13.2646 -13.2631 -13.2603 -13.2590 -13.2396 -13.2382 -13.2365 -13.2355
   -13.2289 -13.2279 -13.2232 -13.2201 -13.2106 -13.2079 -13.2005 -13.1999
   -13.1820 -13.1798 -13.1746 -13.1745  -4.7572  -4.6585  -4.4500  -4.4050
     0.6102   1.0035   1.1263   1.3140   3.6687   3.9696   4.3879   4.5891
     4.7429   5.4044   5.5098   5.9891   6.1287   6.5125   6.8146   7.2763
     9.5095  10.1799  10.5287  11.0261  11.4251  11.5699  11.9928  12.2084
    12.5493  12.6428

     occupation numbers 
     1.0000   1.0000   1.0000   1.0000   1.0000   1.0000   1.0000   1.0000
     1.0000   1.0000   1.0000   1.0000   1.0000   1.0000   1.0000   1.0000
     1.0000   1.0000   1.0000   1.0000   1.0000   1.0000   1.0000   1.0000
     1.0000   1.0000   1.0000   1.0000   1.0000   1.0000   1.0000   1.0000
     1.0000   1.0000   1.0000   1.0000   1.0000   1.0000   1.0000   1.0000
     0.0000   0.0000   0.0000   0.0000   0.0000   0.0000   0.0000   0.0000
     0.0000   0.0000

          k = 0.2500 1.1317 1.0672 (  8510 PWs)   bands (ev):

   -13.2692 -13.2686 -13.2639 -13.2635 -13.2387 -13.2379 -13.2346 -13.2343
   -13.2275 -13.2271 -13.2208 -13.2195 -13.2086 -13.2079 -13.1989 -13.1987
   -13.1814 -13.1806 -13.1740 -13.1739  -4.5599  -4.4961  -4.4207  -4.3779
     0.9573   1.1324   1.4748   1.5185   3.1436   3.5145   3.5660   3.9524
     4.3350   4.5690   4.8178   5.3169   5.9093   6.2306   6.7584   6.8557
    10.1551  10.7174  11.0486  11.4444  12.2743  12.3971  12.7932  12.9011
    13.6171  13.9225

     occupation numbers 
     1.0000   1.0000   1.0000   1.0000   1.0000   1.0000   1.0000   1.0000
     1.0000   1.0000   1.0000   1.0000   1.0000   1.0000   1.0000   1.0000
     1.0000   1.0000   1.0000   1.0000   1.0000   1.0000   1.0000   1.0000
     1.0000   1.0000   1.0000   1.0000   1.0000   1.0000   1.0000   1.0000
     1.0000   1.0000   1.0000   1.0000   1.0000   1.0000   1.0000   1.0000
     0.0000   0.0000   0.0000   0.0000   0.0000   0.0000   0.0000   0.0000
     0.0000   0.0000

     highest occupied, lowest unoccupied level (ev):     7.7565    9.1765

!    total energy              =    -827.62349239 Ry
     estimated scf accuracy    <          1.1E-09 Ry

     The total energy is the sum of the following terms:
     one-electron contribution =    -257.00549981 Ry
     hartree contribution      =     179.10306934 Ry
     xc contribution           =    -309.11624573 Ry
     ewald contribution        =    -440.60481620 Ry

     convergence has been achieved in   9 iterations

     Forces acting on atoms (cartesian axes, Ry/au):

     atom    1 type  2   force =     0.00949902    0.00000000   -0.00178862
     atom    2 type  1   force =    -0.00892169    0.00000000   -0.00172397
     atom    3 type  2   force =    -0.00949902    0.00000000   -0.00178862
     atom    4 type  1   force =     0.00892169   -0.00000000   -0.00172397
     atom    5 type  2   force =     0.00949902    0.00000000    0.00178862
     atom    6 type  1   force =    -0.00892169    0.00000000    0.00172397
     atom    7 type  2   force =    -0.00949902    0.00000000    0.00178862
     atom    8 type  1   force =     0.00892169    0.00000000    0.00172397
     The non-local contrib.  to forces
     atom    1 type  2   force =    -0.11070466    0.00000000    0.10028448
     atom    2 type  1   force =     0.35379363    0.00000000    0.27494653
     atom    3 type  2   force =     0.11070466    0.00000000    0.10028448
     atom    4 type  1   force =    -0.35379363    0.00000000    0.27494653
     atom    5 type  2   force =    -0.11070466    0.00000000   -0.10028448
     atom    6 type  1   force =     0.35379363    0.00000000   -0.27494653
     atom    7 type  2   force =     0.11070466    0.00000000   -0.10028448
     atom    8 type  1   force =    -0.35379363    0.00000000   -0.27494653
     The ionic contribution  to forces
     atom    1 type  2   force =     1.53473235   -0.00000000   -1.05154455
     atom    2 type  1   force =    -1.03769718    0.00000000   -0.57506129
     atom    3 type  2   force =    -1.53473235   -0.00000000   -1.05154455
     atom    4 type  1   force =     1.03769718    0.00000000   -0.57506129
     atom    5 type  2   force =     1.53473235    0.00000000    1.05154455
     atom    6 type  1   force =    -1.03769718   -0.00000000    0.57506129
     atom    7 type  2   force =    -1.53473235   -0.00000000    1.05154455
     atom    8 type  1   force =     1.03769718    0.00000000    0.57506129
     The local contribution  to forces
     atom    1 type  2   force =    -1.42663236   -0.00000000    0.96059042
     atom    2 type  1   force =     0.68019160   -0.00000000    0.30300249
     atom    3 type  2   force =     1.42663236   -0.00000000    0.96059042
     atom    4 type  1   force =    -0.68019160    0.00000000    0.30300249
     atom    5 type  2   force =    -1.42663236    0.00000000   -0.96059042
     atom    6 type  1   force =     0.68019160    0.00000000   -0.30300249
     atom    7 type  2   force =     1.42663236    0.00000000   -0.96059042
     atom    8 type  1   force =    -0.68019160    0.00000000   -0.30300249
     The core correction contribution to forces
     atom    1 type  2   force =     0.01207780    0.00000000   -0.01111853
     atom    2 type  1   force =    -0.00516814   -0.00000000   -0.00464415
     atom    3 type  2   force =    -0.01207780    0.00000000   -0.01111853
     atom    4 type  1   force =     0.00516814    0.00000000   -0.00464415
     atom    5 type  2   force =     0.01207780   -0.00000000    0.01111853
     atom    6 type  1   force =    -0.00516814    0.00000000    0.00464415
     atom    7 type  2   force =    -0.01207780    0.00000000    0.01111853
     atom    8 type  1   force =     0.00516814    0.00000000    0.00464415
     The Hubbard contrib.    to forces
     atom    1 type  2   force =     0.00000000    0.00000000    0.00000000
     atom    2 type  1   force =     0.00000000    0.00000000    0.00000000
     atom    3 type  2   force =     0.00000000    0.00000000    0.00000000
     atom    4 type  1   force =     0.00000000    0.00000000    0.00000000
     atom    5 type  2   force =     0.00000000    0.00000000    0.00000000
     atom    6 type  1   force =     0.00000000    0.00000000    0.00000000
     atom    7 type  2   force =     0.00000000    0.00000000    0.00000000
     atom    8 type  1   force =     0.00000000    0.00000000    0.00000000
     The SCF correction term to forces
     atom    1 type  2   force =     0.00002588   -0.00000000   -0.00000045
     atom    2 type  1   force =    -0.00004159    0.00000000    0.00003246
     atom    3 type  2   force =    -0.00002588   -0.00000000   -0.00000045
     atom    4 type  1   force =     0.00004159    0.00000000    0.00003246
     atom    5 type  2   force =     0.00002588    0.00000000    0.00000045
     atom    6 type  1   force =    -0.00004159   -0.00000000   -0.00003246
     atom    7 type  2   force =    -0.00002588    0.00000000    0.00000045
     atom    8 type  1   force =     0.00004159    0.00000000   -0.00003246

     Total force =     0.026533     Total SCF correction =     0.000118

     Writing output data file ./tmp/SnSe_pnma.save/

     init_run     :      6.21s CPU      7.30s WALL (       1 calls)
     electrons    :     77.54s CPU     88.47s WALL (       1 calls)
     forces       :      5.35s CPU      7.04s WALL (       1 calls)

     Called by init_run:
     wfcinit      :      1.20s CPU      1.46s WALL (       1 calls)
     wfcinit:atom :      0.01s CPU      0.01s WALL (       3 calls)
     wfcinit:wfcr :      1.10s CPU      1.36s WALL (       3 calls)
     potinit      :      1.16s CPU      1.26s WALL (       1 calls)
     hinit0       :      1.87s CPU      1.90s WALL (       1 calls)

     Called by electrons:
     c_bands      :     51.24s CPU     54.87s WALL (       9 calls)
     sum_band     :     11.05s CPU     12.58s WALL (       9 calls)
     v_of_rho     :      3.47s CPU      4.10s WALL (      10 calls)
     v_h          :      0.30s CPU      0.35s WALL (      10 calls)
     v_xc         :      3.46s CPU      4.10s WALL (      11 calls)
     newd         :     12.89s CPU     18.75s WALL (      10 calls)
     mix_rho      :      0.60s CPU      0.61s WALL (       9 calls)

     Called by c_bands:
     init_us_2    :      0.40s CPU      0.34s WALL (      60 calls)
     cegterg      :     35.48s CPU     39.84s WALL (      27 calls)

     Called by sum_band:
     sum_band:wei :      0.02s CPU      0.02s WALL (       9 calls)
     sum_band:loo :      4.24s CPU      4.77s WALL (       9 calls)
     sum_band:buf :      0.04s CPU      0.04s WALL (      27 calls)
     sum_band:ini :      0.16s CPU      0.14s WALL (      27 calls)
     sum_band:cal :      1.28s CPU      1.91s WALL (      27 calls)
     sum_band:bec :      0.00s CPU      0.00s WALL (      27 calls)
     addusdens    :      5.51s CPU      6.55s WALL (       9 calls)
     addusd:skk   :      0.02s CPU      0.04s WALL (      18 calls)
     addusd:dgemm :      1.98s CPU      2.75s WALL (      18 calls)
     addusd:qvan2 :      3.10s CPU      2.76s WALL (      18 calls)

     Called by *egterg:
     cdiaghg      :      2.79s CPU      6.68s WALL (     123 calls)
     cegterg:over :      6.36s CPU      8.47s WALL (      96 calls)
     cegterg:upda :      1.11s CPU      0.83s WALL (      96 calls)
     cegterg:last :      1.97s CPU      0.97s WALL (      60 calls)
     h_psi        :     19.61s CPU     19.59s WALL (     126 calls)
     s_psi        :      2.04s CPU      0.97s WALL (     126 calls)
     g_psi        :      0.13s CPU      0.11s WALL (      96 calls)

     Called by h_psi:
     h_psi:calbec :      5.07s CPU      6.62s WALL (     126 calls)
     vloc_psi     :     12.31s CPU     11.86s WALL (     126 calls)
     add_vuspsi   :      2.14s CPU      1.00s WALL (     126 calls)

     General routines
     calbec       :      6.70s CPU      8.91s WALL (     165 calls)
     fft          :      3.27s CPU      3.54s WALL (     139 calls)
     ffts         :      0.06s CPU      0.06s WALL (      19 calls)
     fftw         :     12.76s CPU     12.31s WALL (    8874 calls)
     interpolate  :      0.29s CPU      0.31s WALL (      10 calls)

     Parallel routines
     fft_scatt_xy :      2.92s CPU      2.84s WALL (    9032 calls)
     fft_scatt_yz :      4.04s CPU      4.14s WALL (    9032 calls)

     PWSCF        :   1m29.37s CPU   1m43.16s WALL


   This run was terminated on:  23:30:12  17May2026            

=------------------------------------------------------------------------------=
   JOB DONE.
=------------------------------------------------------------------------------=
