
     Program PWSCF v.6.7MaX starts on 17May2026 at 23:30:12 

     This program is part of the open-source Quantum ESPRESSO suite
     for quantum simulation of materials; please cite
         "P. Giannozzi et al., J. Phys.:Condens. Matter 21 395502 (2009);
         "P. Giannozzi et al., J. Phys.:Condens. Matter 29 465901 (2017);
          URL http://www.quantum-espresso.org", 
     in publications or presentations arising from this work. More details at
     http://www.quantum-espresso.org/quote

     Parallel version (MPI), running on     6 processors

     MPI processes distributed on     1 nodes
     K-points division:     npool     =       3
     R & G space division:  proc/nbgrp/npool/nimage =       2
     Waiting for input...
     Reading input from standard input

     Current dimensions of program PWSCF are:
     Max number of different atomic species (ntypx) = 10
     Max number of k-points (npk) =  40000
     Max angular momentum in pseudopotentials (lmaxx) =  3

     Subspace diagonalization in iterative solution of the eigenvalue problem:
     a serial algorithm will be used


     Parallelization info
     --------------------
     sticks:   dense  smooth     PW     G-vecs:    dense   smooth      PW
     Min        3382    1355    390               134537    34027    5216
     Max        3383    1356    391               134538    34028    5217
     Sum        6765    2711    781               269075    68055   10433



     bravais-lattice index     =            8
     lattice parameter (alat)  =      21.4862  a.u.
     unit-cell volume          =    1425.7436 (a.u.)^3
     number of atoms/cell      =            8
     number of atomic types    =            2
     number of electrons       =        80.00
     number of Kohn-Sham states=           50
     kinetic-energy cutoff     =      50.0000  Ry
     charge density cutoff     =     500.0000  Ry
     scf convergence threshold =      1.0E-08
     mixing beta               =       0.7000
     number of iterations used =            8  plain     mixing
     Exchange-correlation= SLA  PW   PBE  PBE
                           (   1   4   3   4   0   0   0)

     celldm(1)=  21.486186  celldm(2)=   0.368162  celldm(3)=   0.390413
     celldm(4)=   0.000000  celldm(5)=   0.000000  celldm(6)=   0.000000

     crystal axes: (cart. coord. in units of alat)
               a(1) = (   1.000000   0.000000   0.000000 )  
               a(2) = (   0.000000   0.368162   0.000000 )  
               a(3) = (   0.000000   0.000000   0.390413 )  

     reciprocal axes: (cart. coord. in units 2 pi/alat)
               b(1) = (  1.000000  0.000000  0.000000 )  
               b(2) = (  0.000000  2.716197  0.000000 )  
               b(3) = (  0.000000  0.000000  2.561388 )  


     PseudoPot. # 1 for Sn read from file:
     ../pseudo/Sn_pbe_v1.uspp.F.UPF
     MD5 check sum: 4cf58ce39ec5d5d420df3dd08604eb00
     Pseudo is Ultrasoft + core correction, Zval = 14.0
     Generated by new atomic code, or converted to UPF format
     Using radial grid of  891 points,  6 beta functions with: 
                l(1) =   0
                l(2) =   0
                l(3) =   1
                l(4) =   1
                l(5) =   2
                l(6) =   2
     Q(r) pseudized with  6 coefficients,  rinner =    1.200   1.200   1.200
                                                       1.200   1.200

     PseudoPot. # 2 for Se read from file:
     ../pseudo/Se_pbe_v1.uspp.F.UPF
     MD5 check sum: 1b3568f3a8ae88f9a2a0ad0698632c85
     Pseudo is Ultrasoft + core correction, Zval =  6.0
     Generated by new atomic code, or converted to UPF format
     Using radial grid of  877 points,  6 beta functions with: 
                l(1) =   0
                l(2) =   0
                l(3) =   1
                l(4) =   1
                l(5) =   2
                l(6) =   2
     Q(r) pseudized with  8 coefficients,  rinner =    1.300   1.300   1.300
                                                       1.300   1.300

     atomic species   valence    mass     pseudopotential
        Sn            14.00   118.71000     Sn( 1.00)
        Se             6.00    78.97100     Se( 1.00)

      8 Sym. Ops., with inversion, found ( 6 have fractional translation)


                                    s                        frac. trans.

      isym =  1     identity                                     

 cryst.   s( 1) = (     1          0          0      )
                  (     0          1          0      )
                  (     0          0          1      )

 cart.    s( 1) = (  1.0000000  0.0000000  0.0000000 )
                  (  0.0000000  1.0000000  0.0000000 )
                  (  0.0000000  0.0000000  1.0000000 )


      isym =  2     180 deg rotation - cart. axis [0,0,1]        

 cryst.   s( 2) = (    -1          0          0      )    f =(  0.5000000 )
                  (     0         -1          0      )       (  0.0000000 )
                  (     0          0          1      )       (  0.5000000 )

 cart.    s( 2) = ( -1.0000000  0.0000000  0.0000000 )    f =(  0.5000000 )
                  (  0.0000000 -1.0000000  0.0000000 )       (  0.0000000 )
                  (  0.0000000  0.0000000  1.0000000 )       (  0.1952067 )


      isym =  3     180 deg rotation - cart. axis [0,1,0]        

 cryst.   s( 3) = (    -1          0          0      )    f =(  0.0000000 )
                  (     0          1          0      )       ( -0.5000000 )
                  (     0          0         -1      )       (  0.0000000 )

 cart.    s( 3) = ( -1.0000000  0.0000000  0.0000000 )    f =(  0.0000000 )
                  (  0.0000000  1.0000000  0.0000000 )       ( -0.1840809 )
                  (  0.0000000  0.0000000 -1.0000000 )       (  0.0000000 )


      isym =  4     180 deg rotation - cart. axis [1,0,0]        

 cryst.   s( 4) = (     1          0          0      )    f =(  0.5000000 )
                  (     0         -1          0      )       (  0.5000000 )
                  (     0          0         -1      )       (  0.5000000 )

 cart.    s( 4) = (  1.0000000  0.0000000  0.0000000 )    f =(  0.5000000 )
                  (  0.0000000 -1.0000000  0.0000000 )       (  0.1840809 )
                  (  0.0000000  0.0000000 -1.0000000 )       (  0.1952067 )


      isym =  5     inversion                                    

 cryst.   s( 5) = (    -1          0          0      )
                  (     0         -1          0      )
                  (     0          0         -1      )

 cart.    s( 5) = ( -1.0000000  0.0000000  0.0000000 )
                  (  0.0000000 -1.0000000  0.0000000 )
                  (  0.0000000  0.0000000 -1.0000000 )


      isym =  6     inv. 180 deg rotation - cart. axis [0,0,1]   

 cryst.   s( 6) = (     1          0          0      )    f =(  0.5000000 )
                  (     0          1          0      )       (  0.0000000 )
                  (     0          0         -1      )       (  0.5000000 )

 cart.    s( 6) = (  1.0000000  0.0000000  0.0000000 )    f =(  0.5000000 )
                  (  0.0000000  1.0000000  0.0000000 )       (  0.0000000 )
                  (  0.0000000  0.0000000 -1.0000000 )       (  0.1952067 )


      isym =  7     inv. 180 deg rotation - cart. axis [0,1,0]   

 cryst.   s( 7) = (     1          0          0      )    f =(  0.0000000 )
                  (     0         -1          0      )       (  0.5000000 )
                  (     0          0          1      )       (  0.0000000 )

 cart.    s( 7) = (  1.0000000  0.0000000  0.0000000 )    f =(  0.0000000 )
                  (  0.0000000 -1.0000000  0.0000000 )       (  0.1840809 )
                  (  0.0000000  0.0000000  1.0000000 )       (  0.0000000 )


      isym =  8     inv. 180 deg rotation - cart. axis [1,0,0]   

 cryst.   s( 8) = (    -1          0          0      )    f =(  0.5000000 )
                  (     0          1          0      )       ( -0.5000000 )
                  (     0          0          1      )       (  0.5000000 )

 cart.    s( 8) = ( -1.0000000  0.0000000  0.0000000 )    f =(  0.5000000 )
                  (  0.0000000  1.0000000  0.0000000 )       ( -0.1840809 )
                  (  0.0000000  0.0000000  1.0000000 )       (  0.1952067 )


     point group D_2h (mmm) 
     there are  8 classes
     the character table:

       E     C2    C2'   C2''  i     s_v   s_v'  s_v''
A_g    1.00  1.00  1.00  1.00  1.00  1.00  1.00  1.00
B_1g   1.00  1.00 -1.00 -1.00  1.00  1.00 -1.00 -1.00
B_2g   1.00 -1.00  1.00 -1.00  1.00 -1.00  1.00 -1.00
B_3g   1.00 -1.00 -1.00  1.00  1.00 -1.00 -1.00  1.00
A_u    1.00  1.00  1.00  1.00 -1.00 -1.00 -1.00 -1.00
B_1u   1.00  1.00 -1.00 -1.00 -1.00 -1.00  1.00  1.00
B_2u   1.00 -1.00  1.00 -1.00 -1.00  1.00 -1.00  1.00
B_3u   1.00 -1.00 -1.00  1.00 -1.00  1.00  1.00 -1.00

     the symmetry operations in each class and the name of the first element:

     E        1
          identity                                               
     C2       2
          180 deg rotation - cart. axis [0,0,1]                  
     C2'      4
          180 deg rotation - cart. axis [1,0,0]                  
     C2''     3
          180 deg rotation - cart. axis [0,1,0]                  
     i        5
          inversion                                              
     s_v      6
          inv. 180 deg rotation - cart. axis [0,0,1]             
     s_v'     8
          inv. 180 deg rotation - cart. axis [1,0,0]             
     s_v''    7
          inv. 180 deg rotation - cart. axis [0,1,0]             

   Cartesian axes

     site n.     atom                  positions (alat units)
         1           Se  tau(   1) = (   0.8555000   0.0920405   0.1884916  )
         2           Sn  tau(   2) = (   0.1187000   0.0920405   0.0385728  )
         3           Se  tau(   3) = (   0.6445000   0.2761214   0.3836983  )
         4           Sn  tau(   4) = (   0.3813000   0.2761214   0.2337795  )
         5           Se  tau(   5) = (   0.3555000   0.0920405   0.0067151  )
         6           Sn  tau(   6) = (   0.6187000   0.0920405   0.1566338  )
         7           Se  tau(   7) = (   0.1445000   0.2761214   0.2019218  )
         8           Sn  tau(   8) = (   0.8813000   0.2761214   0.3518405  )

   Crystallographic axes

     site n.     atom                  positions (cryst. coord.)
         1           Se  tau(   1) = (  0.8555000  0.2500000  0.4828000  )
         2           Sn  tau(   2) = (  0.1187000  0.2500000  0.0988000  )
         3           Se  tau(   3) = (  0.6445000  0.7500000  0.9828000  )
         4           Sn  tau(   4) = (  0.3813000  0.7500000  0.5988000  )
         5           Se  tau(   5) = (  0.3555000  0.2500000  0.0172000  )
         6           Sn  tau(   6) = (  0.6187000  0.2500000  0.4012000  )
         7           Se  tau(   7) = (  0.1445000  0.7500000  0.5172000  )
         8           Sn  tau(   8) = (  0.8813000  0.7500000  0.9012000  )

     number of k points=    32
                       cart. coord. in units 2pi/alat
        k(    1) = (   0.1666667   0.1697623   0.1600867), wk =   0.0833333
        k(    2) = (   0.1666667   0.1697623   0.4802602), wk =   0.0833333
        k(    3) = (   0.1666667   0.1697623   0.8004337), wk =   0.0833333
        k(    4) = (   0.1666667   0.1697623   1.1206071), wk =   0.0833333
        k(    5) = (   0.1666667   0.5092869   0.1600867), wk =   0.0833333
        k(    6) = (   0.1666667   0.5092869   0.4802602), wk =   0.0833333
        k(    7) = (   0.1666667   0.5092869   0.8004337), wk =   0.0833333
        k(    8) = (   0.1666667   0.5092869   1.1206071), wk =   0.0833333
        k(    9) = (   0.1666667   0.8488115   0.1600867), wk =   0.0833333
        k(   10) = (   0.1666667   0.8488115   0.4802602), wk =   0.0833333
        k(   11) = (   0.1666667   0.8488115   0.8004337), wk =   0.0833333
        k(   12) = (   0.1666667   0.8488115   1.1206071), wk =   0.0833333
        k(   13) = (   0.1666667   1.1883361   0.1600867), wk =   0.0833333
        k(   14) = (   0.1666667   1.1883361   0.4802602), wk =   0.0833333
        k(   15) = (   0.1666667   1.1883361   0.8004337), wk =   0.0833333
        k(   16) = (   0.1666667   1.1883361   1.1206071), wk =   0.0833333
        k(   17) = (  -0.5000000   0.1697623   0.1600867), wk =   0.0416667
        k(   18) = (  -0.5000000   0.1697623   0.4802602), wk =   0.0416667
        k(   19) = (  -0.5000000   0.1697623   0.8004337), wk =   0.0416667
        k(   20) = (  -0.5000000   0.1697623   1.1206071), wk =   0.0416667
        k(   21) = (  -0.5000000   0.5092869   0.1600867), wk =   0.0416667
        k(   22) = (  -0.5000000   0.5092869   0.4802602), wk =   0.0416667
        k(   23) = (  -0.5000000   0.5092869   0.8004337), wk =   0.0416667
        k(   24) = (  -0.5000000   0.5092869   1.1206071), wk =   0.0416667
        k(   25) = (  -0.5000000   0.8488115   0.1600867), wk =   0.0416667
        k(   26) = (  -0.5000000   0.8488115   0.4802602), wk =   0.0416667
        k(   27) = (  -0.5000000   0.8488115   0.8004337), wk =   0.0416667
        k(   28) = (  -0.5000000   0.8488115   1.1206071), wk =   0.0416667
        k(   29) = (  -0.5000000   1.1883361   0.1600867), wk =   0.0416667
        k(   30) = (  -0.5000000   1.1883361   0.4802602), wk =   0.0416667
        k(   31) = (  -0.5000000   1.1883361   0.8004337), wk =   0.0416667
        k(   32) = (  -0.5000000   1.1883361   1.1206071), wk =   0.0416667

                       cryst. coord.
        k(    1) = (   0.1666667   0.0625000   0.0625000), wk =   0.0833333
        k(    2) = (   0.1666667   0.0625000   0.1875000), wk =   0.0833333
        k(    3) = (   0.1666667   0.0625000   0.3125000), wk =   0.0833333
        k(    4) = (   0.1666667   0.0625000   0.4375000), wk =   0.0833333
        k(    5) = (   0.1666667   0.1875000   0.0625000), wk =   0.0833333
        k(    6) = (   0.1666667   0.1875000   0.1875000), wk =   0.0833333
        k(    7) = (   0.1666667   0.1875000   0.3125000), wk =   0.0833333
        k(    8) = (   0.1666667   0.1875000   0.4375000), wk =   0.0833333
        k(    9) = (   0.1666667   0.3125000   0.0625000), wk =   0.0833333
        k(   10) = (   0.1666667   0.3125000   0.1875000), wk =   0.0833333
        k(   11) = (   0.1666667   0.3125000   0.3125000), wk =   0.0833333
        k(   12) = (   0.1666667   0.3125000   0.4375000), wk =   0.0833333
        k(   13) = (   0.1666667   0.4375000   0.0625000), wk =   0.0833333
        k(   14) = (   0.1666667   0.4375000   0.1875000), wk =   0.0833333
        k(   15) = (   0.1666667   0.4375000   0.3125000), wk =   0.0833333
        k(   16) = (   0.1666667   0.4375000   0.4375000), wk =   0.0833333
        k(   17) = (  -0.5000000   0.0625000   0.0625000), wk =   0.0416667
        k(   18) = (  -0.5000000   0.0625000   0.1875000), wk =   0.0416667
        k(   19) = (  -0.5000000   0.0625000   0.3125000), wk =   0.0416667
        k(   20) = (  -0.5000000   0.0625000   0.4375000), wk =   0.0416667
        k(   21) = (  -0.5000000   0.1875000   0.0625000), wk =   0.0416667
        k(   22) = (  -0.5000000   0.1875000   0.1875000), wk =   0.0416667
        k(   23) = (  -0.5000000   0.1875000   0.3125000), wk =   0.0416667
        k(   24) = (  -0.5000000   0.1875000   0.4375000), wk =   0.0416667
        k(   25) = (  -0.5000000   0.3125000   0.0625000), wk =   0.0416667
        k(   26) = (  -0.5000000   0.3125000   0.1875000), wk =   0.0416667
        k(   27) = (  -0.5000000   0.3125000   0.3125000), wk =   0.0416667
        k(   28) = (  -0.5000000   0.3125000   0.4375000), wk =   0.0416667
        k(   29) = (  -0.5000000   0.4375000   0.0625000), wk =   0.0416667
        k(   30) = (  -0.5000000   0.4375000   0.1875000), wk =   0.0416667
        k(   31) = (  -0.5000000   0.4375000   0.3125000), wk =   0.0416667
        k(   32) = (  -0.5000000   0.4375000   0.4375000), wk =   0.0416667

     Dense  grid:   269075 G-vectors     FFT dimensions: ( 160,  60,  60)

     Smooth grid:    68055 G-vectors     FFT dimensions: ( 100,  36,  40)

     Dynamical RAM for                 wfc:       3.25 MB

     Dynamical RAM for     wfc (w. buffer):      38.96 MB

     Dynamical RAM for           str. fact:       4.11 MB

     Dynamical RAM for           local pot:       0.00 MB

     Dynamical RAM for          nlocal pot:       9.35 MB

     Dynamical RAM for                qrad:       3.59 MB

     Dynamical RAM for          rho,v,vnew:      12.75 MB

     Dynamical RAM for               rhoin:       4.25 MB

     Dynamical RAM for            rho*nmix:      32.85 MB

     Dynamical RAM for           G-vectors:       7.96 MB

     Dynamical RAM for          h,s,v(r/c):       0.46 MB

     Dynamical RAM for          <psi|beta>:       0.11 MB

     Dynamical RAM for                 psi:       6.49 MB

     Dynamical RAM for                hpsi:       6.49 MB

     Dynamical RAM for                spsi:       6.49 MB

     Dynamical RAM for      wfcinit/wfcrot:       6.82 MB

     Dynamical RAM for           addusdens:     131.38 MB

     Dynamical RAM for          addusforce:     135.16 MB

     Estimated static dynamical RAM per process >     130.96 MB

     Estimated max dynamical RAM per process >     266.12 MB

     Estimated total dynamical RAM >       1.56 GB

     Initial potential from superposition of free atoms

     starting charge   75.99954, renormalised to   80.00000
     Starting wfcs are   52 randomized atomic wfcs

     total cpu time spent up to now is       10.6 secs

     Self-consistent Calculation

     iteration #  1     ecut=    50.00 Ry     beta= 0.70
     Davidson diagonalization with overlap
     ethr =  1.00E-02,  avg # of iterations =  3.8

     total cpu time spent up to now is       38.6 secs

     total energy              =    -826.55369358 Ry
     estimated scf accuracy    <       2.62962852 Ry

     iteration #  2     ecut=    50.00 Ry     beta= 0.70
     Davidson diagonalization with overlap
     ethr =  3.29E-03,  avg # of iterations =  2.0

     total cpu time spent up to now is       60.8 secs

     total energy              =    -827.33974189 Ry
     estimated scf accuracy    <       1.08623654 Ry

     iteration #  3     ecut=    50.00 Ry     beta= 0.70
     Davidson diagonalization with overlap
     ethr =  1.36E-03,  avg # of iterations =  2.0

     total cpu time spent up to now is       81.4 secs

     total energy              =    -827.60949735 Ry
     estimated scf accuracy    <       0.06100240 Ry

     iteration #  4     ecut=    50.00 Ry     beta= 0.70
     Davidson diagonalization with overlap
     ethr =  7.63E-05,  avg # of iterations =  3.3

     total cpu time spent up to now is      105.2 secs

     total energy              =    -827.62060697 Ry
     estimated scf accuracy    <       0.00291908 Ry

     iteration #  5     ecut=    50.00 Ry     beta= 0.70
     Davidson diagonalization with overlap
     ethr =  3.65E-06,  avg # of iterations =  6.1

     total cpu time spent up to now is      136.1 secs

     total energy              =    -827.62125427 Ry
     estimated scf accuracy    <       0.00080896 Ry

     iteration #  6     ecut=    50.00 Ry     beta= 0.70
     Davidson diagonalization with overlap
     ethr =  1.01E-06,  avg # of iterations =  2.0

     total cpu time spent up to now is      159.7 secs

     total energy              =    -827.62142913 Ry
     estimated scf accuracy    <       0.00004411 Ry

     iteration #  7     ecut=    50.00 Ry     beta= 0.70
     Davidson diagonalization with overlap
     ethr =  5.51E-08,  avg # of iterations =  5.0

     total cpu time spent up to now is      192.9 secs

     total energy              =    -827.62145669 Ry
     estimated scf accuracy    <       0.00000259 Ry

     iteration #  8     ecut=    50.00 Ry     beta= 0.70
     Davidson diagonalization with overlap
     ethr =  3.24E-09,  avg # of iterations =  3.8

     total cpu time spent up to now is      220.5 secs

     total energy              =    -827.62145782 Ry
     estimated scf accuracy    <       0.00000045 Ry

     iteration #  9     ecut=    50.00 Ry     beta= 0.70
     Davidson diagonalization with overlap
     ethr =  5.56E-10,  avg # of iterations =  3.0

     total cpu time spent up to now is      247.1 secs

     End of self-consistent calculation

          k = 0.1667 0.1698 0.1601 (  8491 PWs)   bands (ev):

   -13.2641 -13.2545 -13.2511 -13.2496 -13.2488 -13.2466 -13.2425 -13.2387
   -13.2346 -13.2312 -13.2311 -13.2265 -13.2166 -13.2113 -13.1959 -13.1925
   -13.1865 -13.1844 -13.1746 -13.1670  -5.6950  -5.4018  -4.6055  -4.1933
     0.7609   1.6485   2.6114   2.8822   3.2981   4.5918   4.6823   4.9627
     5.1935   5.4452   5.9045   6.2822   6.4987   6.8572   7.3783   7.5712
     9.3068  10.6969  11.0187  11.1533  11.3177  11.3608  12.0180  12.4091
    12.6888  13.0037

     occupation numbers 
     1.0000   1.0000   1.0000   1.0000   1.0000   1.0000   1.0000   1.0000
     1.0000   1.0000   1.0000   1.0000   1.0000   1.0000   1.0000   1.0000
     1.0000   1.0000   1.0000   1.0000   1.0000   1.0000   1.0000   1.0000
     1.0000   1.0000   1.0000   1.0000   1.0000   1.0000   1.0000   1.0000
     1.0000   1.0000   1.0000   1.0000   1.0000   1.0000   1.0000   1.0000
     0.0000   0.0000   0.0000   0.0000   0.0000   0.0000   0.0000   0.0000
     0.0000   0.0000

          k = 0.1667 0.1698 0.4803 (  8495 PWs)   bands (ev):

   -13.2626 -13.2535 -13.2511 -13.2506 -13.2482 -13.2478 -13.2435 -13.2403
   -13.2335 -13.2287 -13.2279 -13.2266 -13.2162 -13.2119 -13.1960 -13.1918
   -13.1876 -13.1852 -13.1739 -13.1675  -5.5649  -5.2818  -4.5964  -4.2265
     0.4187   1.3710   1.9889   2.5358   3.4056   4.6028   4.7678   5.3986
     5.5969   5.8813   5.9572   6.3353   6.8395   7.1489   7.3562   7.6050
     9.4072   9.9705  10.2768  10.8297  11.0630  11.4254  11.6478  12.0348
    12.4666  12.8760

     occupation numbers 
     1.0000   1.0000   1.0000   1.0000   1.0000   1.0000   1.0000   1.0000
     1.0000   1.0000   1.0000   1.0000   1.0000   1.0000   1.0000   1.0000
     1.0000   1.0000   1.0000   1.0000   1.0000   1.0000   1.0000   1.0000
     1.0000   1.0000   1.0000   1.0000   1.0000   1.0000   1.0000   1.0000
     1.0000   1.0000   1.0000   1.0000   1.0000   1.0000   1.0000   1.0000
     0.0000   0.0000   0.0000   0.0000   0.0000   0.0000   0.0000   0.0000
     0.0000   0.0000

          k = 0.1667 0.1698 0.8004 (  8507 PWs)   bands (ev):

   -13.2600 -13.2534 -13.2526 -13.2511 -13.2491 -13.2469 -13.2447 -13.2425
   -13.2317 -13.2273 -13.2243 -13.2232 -13.2159 -13.2132 -13.1955 -13.1910
   -13.1891 -13.1864 -13.1728 -13.1686  -5.3298  -5.0662  -4.6271  -4.3227
     0.0765   0.8521   1.4547   2.0119   3.7350   4.8562   5.0041   5.6693
     5.9320   6.0625   6.3193   6.4221   7.0032   7.3956   7.4955   7.8892
     9.2872   9.4664   9.8565   9.9973  10.4294  10.8595  11.2331  11.4039
    12.2930  12.3466

     occupation numbers 
     1.0000   1.0000   1.0000   1.0000   1.0000   1.0000   1.0000   1.0000
     1.0000   1.0000   1.0000   1.0000   1.0000   1.0000   1.0000   1.0000
     1.0000   1.0000   1.0000   1.0000   1.0000   1.0000   1.0000   1.0000
     1.0000   1.0000   1.0000   1.0000   1.0000   1.0000   1.0000   1.0000
     1.0000   1.0000   1.0000   1.0000   1.0000   1.0000   1.0000   1.0000
     0.0000   0.0000   0.0000   0.0000   0.0000   0.0000   0.0000   0.0000
     0.0000   0.0000

          k = 0.1667 0.1698 1.1206 (  8488 PWs)   bands (ev):

   -13.2572 -13.2550 -13.2531 -13.2528 -13.2479 -13.2470 -13.2450 -13.2443
   -13.2299 -13.2284 -13.2196 -13.2189 -13.2169 -13.2154 -13.1940 -13.1920
   -13.1889 -13.1877 -13.1714 -13.1699  -5.0474  -4.8563  -4.7063  -4.5063
     0.0080   0.2994   1.3323   1.5520   4.2339   4.7594   5.4420   5.7444
     5.9720   6.1177   6.3393   6.6160   7.2800   7.5364   7.7218   7.8275
     9.1527   9.2547   9.4523   9.9529  10.0434  10.4897  10.7336  11.0228
    11.5842  11.7001

     occupation numbers 
     1.0000   1.0000   1.0000   1.0000   1.0000   1.0000   1.0000   1.0000
     1.0000   1.0000   1.0000   1.0000   1.0000   1.0000   1.0000   1.0000
     1.0000   1.0000   1.0000   1.0000   1.0000   1.0000   1.0000   1.0000
     1.0000   1.0000   1.0000   1.0000   1.0000   1.0000   1.0000   1.0000
     1.0000   1.0000   1.0000   1.0000   1.0000   1.0000   1.0000   1.0000
     0.0000   0.0000   0.0000   0.0000   0.0000   0.0000   0.0000   0.0000
     0.0000   0.0000

          k = 0.1667 0.5093 0.1601 (  8514 PWs)   bands (ev):

   -13.2582 -13.2530 -13.2519 -13.2490 -13.2472 -13.2459 -13.2453 -13.2420
   -13.2361 -13.2299 -13.2285 -13.2268 -13.2137 -13.2120 -13.1942 -13.1929
   -13.1878 -13.1848 -13.1748 -13.1692  -5.5316  -5.2605  -4.5462  -4.2038
     0.5757   1.3498   2.1714   2.3061   3.4106   4.4581   4.7540   5.1574
     5.4620   5.6211   5.9870   6.3325   6.6450   7.2184   7.4328   7.5616
     9.4730   9.7443  10.4743  10.8203  11.0893  11.4404  11.7516  12.0729
    12.5237  12.8609

     occupation numbers 
     1.0000   1.0000   1.0000   1.0000   1.0000   1.0000   1.0000   1.0000
     1.0000   1.0000   1.0000   1.0000   1.0000   1.0000   1.0000   1.0000
     1.0000   1.0000   1.0000   1.0000   1.0000   1.0000   1.0000   1.0000
     1.0000   1.0000   1.0000   1.0000   1.0000   1.0000   1.0000   1.0000
     1.0000   1.0000   1.0000   1.0000   1.0000   1.0000   1.0000   1.0000
     0.0000   0.0000   0.0000   0.0000   0.0000   0.0000   0.0000   0.0000
     0.0000   0.0000

          k = 0.1667 0.5093 0.4803 (  8519 PWs)   bands (ev):

   -13.2587 -13.2540 -13.2529 -13.2491 -13.2471 -13.2461 -13.2446 -13.2436
   -13.2350 -13.2299 -13.2259 -13.2241 -13.2144 -13.2115 -13.1942 -13.1924
   -13.1884 -13.1858 -13.1742 -13.1694  -5.4075  -5.1471  -4.5344  -4.2252
     0.4153   1.2943   1.8332   2.1523   3.5626   4.0087   4.2567   5.2537
     5.4023   5.9798   6.1904   6.3580   7.0980   7.1833   7.4592   7.6068
     9.4618   9.6839   9.8777  10.2220  11.0101  11.2576  11.7767  12.1255
    12.6685  12.7782

     occupation numbers 
     1.0000   1.0000   1.0000   1.0000   1.0000   1.0000   1.0000   1.0000
     1.0000   1.0000   1.0000   1.0000   1.0000   1.0000   1.0000   1.0000
     1.0000   1.0000   1.0000   1.0000   1.0000   1.0000   1.0000   1.0000
     1.0000   1.0000   1.0000   1.0000   1.0000   1.0000   1.0000   1.0000
     1.0000   1.0000   1.0000   1.0000   1.0000   1.0000   1.0000   1.0000
     0.0000   0.0000   0.0000   0.0000   0.0000   0.0000   0.0000   0.0000
     0.0000   0.0000

          k = 0.1667 0.5093 0.8004 (  8518 PWs)   bands (ev):

   -13.2597 -13.2569 -13.2529 -13.2506 -13.2474 -13.2458 -13.2447 -13.2433
   -13.2335 -13.2302 -13.2219 -13.2201 -13.2149 -13.2117 -13.1935 -13.1916
   -13.1894 -13.1873 -13.1732 -13.1700  -5.1857  -4.9460  -4.5556  -4.2971
     0.2263   0.9675   1.5073   1.9101   3.8299   3.9628   4.2015   5.1240
     5.2677   6.0149   6.0211   6.6152   6.8251   7.0887   7.3950   7.6388
     9.3170   9.6533  10.1292  10.4175  10.8261  11.0916  11.4842  12.2706
    12.7932  13.0041

     occupation numbers 
     1.0000   1.0000   1.0000   1.0000   1.0000   1.0000   1.0000   1.0000
     1.0000   1.0000   1.0000   1.0000   1.0000   1.0000   1.0000   1.0000
     1.0000   1.0000   1.0000   1.0000   1.0000   1.0000   1.0000   1.0000
     1.0000   1.0000   1.0000   1.0000   1.0000   1.0000   1.0000   1.0000
     1.0000   1.0000   1.0000   1.0000   1.0000   1.0000   1.0000   1.0000
     0.0000   0.0000   0.0000   0.0000   0.0000   0.0000   0.0000   0.0000
     0.0000   0.0000

          k = 0.1667 0.5093 1.1206 (  8501 PWs)   bands (ev):

   -13.2603 -13.2593 -13.2529 -13.2522 -13.2474 -13.2463 -13.2438 -13.2430
   -13.2320 -13.2309 -13.2184 -13.2168 -13.2151 -13.2130 -13.1923 -13.1911
   -13.1899 -13.1888 -13.1720 -13.1709  -4.9249  -4.7536  -4.6213  -4.4477
     0.2148   0.4891   1.4664   1.6294   4.1662   4.2310   4.4815   4.8438
     5.1470   5.4696   6.0500   6.3697   6.7544   7.0095   7.3149   7.5286
     9.3633   9.8463  10.0515  10.6364  11.0476  11.3323  11.7754  11.9968
    12.5330  12.6799

     occupation numbers 
     1.0000   1.0000   1.0000   1.0000   1.0000   1.0000   1.0000   1.0000
     1.0000   1.0000   1.0000   1.0000   1.0000   1.0000   1.0000   1.0000
     1.0000   1.0000   1.0000   1.0000   1.0000   1.0000   1.0000   1.0000
     1.0000   1.0000   1.0000   1.0000   1.0000   1.0000   1.0000   1.0000
     1.0000   1.0000   1.0000   1.0000   1.0000   1.0000   1.0000   1.0000
     0.0000   0.0000   0.0000   0.0000   0.0000   0.0000   0.0000   0.0000
     0.0000   0.0000

          k = 0.1667 0.8488 0.1601 (  8533 PWs)   bands (ev):

   -13.2575 -13.2554 -13.2536 -13.2521 -13.2443 -13.2430 -13.2422 -13.2389
   -13.2352 -13.2324 -13.2267 -13.2213 -13.2145 -13.2098 -13.1977 -13.1956
   -13.1873 -13.1816 -13.1748 -13.1724  -5.2319  -5.0124  -4.4899  -4.2861
     0.3385   0.9978   1.3273   1.7323   3.7635   4.6305   4.9663   5.4194
     5.7083   5.8488   6.1781   6.3316   6.8159   7.1945   7.3168   7.7605
     8.9075   9.6060   9.8403   9.9494  10.5781  10.8819  11.0425  11.4212
    12.2787  12.4891

     occupation numbers 
     1.0000   1.0000   1.0000   1.0000   1.0000   1.0000   1.0000   1.0000
     1.0000   1.0000   1.0000   1.0000   1.0000   1.0000   1.0000   1.0000
     1.0000   1.0000   1.0000   1.0000   1.0000   1.0000   1.0000   1.0000
     1.0000   1.0000   1.0000   1.0000   1.0000   1.0000   1.0000   1.0000
     1.0000   1.0000   1.0000   1.0000   1.0000   1.0000   1.0000   1.0000
     0.0000   0.0000   0.0000   0.0000   0.0000   0.0000   0.0000   0.0000
     0.0000   0.0000

          k = 0.1667 0.8488 0.4803 (  8523 PWs)   bands (ev):

   -13.2608 -13.2580 -13.2556 -13.2537 -13.2441 -13.2415 -13.2410 -13.2385
   -13.2338 -13.2321 -13.2246 -13.2197 -13.2146 -13.2096 -13.1972 -13.1954
   -13.1872 -13.1824 -13.1744 -13.1722  -5.1222  -4.9143  -4.4688  -4.2809
     0.3952   1.1168   1.3876   1.6428   3.7948   3.8864   4.2265   4.9842
     5.3617   5.9287   6.0290   6.5384   6.6260   6.9332   7.2306   7.4850
     9.2966   9.6192   9.9703  10.1497  10.7946  11.4182  11.6711  12.0120
    12.5108  12.8873

     occupation numbers 
     1.0000   1.0000   1.0000   1.0000   1.0000   1.0000   1.0000   1.0000
     1.0000   1.0000   1.0000   1.0000   1.0000   1.0000   1.0000   1.0000
     1.0000   1.0000   1.0000   1.0000   1.0000   1.0000   1.0000   1.0000
     1.0000   1.0000   1.0000   1.0000   1.0000   1.0000   1.0000   1.0000
     1.0000   1.0000   1.0000   1.0000   1.0000   1.0000   1.0000   1.0000
     0.0000   0.0000   0.0000   0.0000   0.0000   0.0000   0.0000   0.0000
     0.0000   0.0000

          k = 0.1667 0.8488 0.8004 (  8515 PWs)   bands (ev):

   -13.2644 -13.2622 -13.2581 -13.2567 -13.2431 -13.2401 -13.2396 -13.2382
   -13.2323 -13.2316 -13.2215 -13.2177 -13.2137 -13.2098 -13.1964 -13.1951
   -13.1869 -13.1835 -13.1737 -13.1721  -4.9318  -4.7460  -4.4649  -4.3002
     0.4749   1.1075   1.4702   1.6169   3.3625   3.6568   4.1832   4.5106
     4.7957   5.3344   5.7440   6.0469   6.3796   6.6642   6.8721   7.4095
     9.2093  10.3922  11.0088  11.1300  11.2070  11.4592  12.1527  12.5875
    12.7647  13.2378

     occupation numbers 
     1.0000   1.0000   1.0000   1.0000   1.0000   1.0000   1.0000   1.0000
     1.0000   1.0000   1.0000   1.0000   1.0000   1.0000   1.0000   1.0000
     1.0000   1.0000   1.0000   1.0000   1.0000   1.0000   1.0000   1.0000
     1.0000   1.0000   1.0000   1.0000   1.0000   1.0000   1.0000   1.0000
     1.0000   1.0000   1.0000   1.0000   1.0000   1.0000   1.0000   1.0000
     0.0000   0.0000   0.0000   0.0000   0.0000   0.0000   0.0000   0.0000
     0.0000   0.0000

          k = 0.1667 0.8488 1.1206 (  8499 PWs)   bands (ev):

   -13.2664 -13.2656 -13.2597 -13.2593 -13.2417 -13.2404 -13.2385 -13.2380
   -13.2314 -13.2312 -13.2187 -13.2172 -13.2119 -13.2105 -13.1955 -13.1951
   -13.1859 -13.1847 -13.1729 -13.1724  -4.7199  -4.5925  -4.4984  -4.3807
     0.5939   0.8237   1.6106   1.6539   3.3879   3.6948   3.8555   4.1883
     4.6368   5.0270   5.3701   5.7742   5.9964   6.3024   6.9299   7.0724
     9.7076  10.3754  11.3225  11.6125  11.9878  12.3975  12.5071  12.7839
    13.0039  13.2034

     occupation numbers 
     1.0000   1.0000   1.0000   1.0000   1.0000   1.0000   1.0000   1.0000
     1.0000   1.0000   1.0000   1.0000   1.0000   1.0000   1.0000   1.0000
     1.0000   1.0000   1.0000   1.0000   1.0000   1.0000   1.0000   1.0000
     1.0000   1.0000   1.0000   1.0000   1.0000   1.0000   1.0000   1.0000
     1.0000   1.0000   1.0000   1.0000   1.0000   1.0000   1.0000   1.0000
     0.0000   0.0000   0.0000   0.0000   0.0000   0.0000   0.0000   0.0000
     0.0000   0.0000

          k = 0.1667 1.1883 0.1601 (  8542 PWs)   bands (ev):

   -13.2598 -13.2584 -13.2565 -13.2550 -13.2406 -13.2400 -13.2395 -13.2373
   -13.2300 -13.2291 -13.2270 -13.2216 -13.2121 -13.2066 -13.2036 -13.2019
   -13.1817 -13.1783 -13.1763 -13.1756  -4.8577  -4.7346  -4.5372  -4.5093
     0.3009   0.6390   0.9133   1.1959   4.2974   4.7999   5.2157   5.6193
     5.8143   5.8301   6.2446   6.4893   6.9756   7.0741   7.2046   7.3527
     9.1086   9.2604   9.4809   9.6710  10.0839  10.3844  10.7374  10.9650
    11.4999  11.7342

     occupation numbers 
     1.0000   1.0000   1.0000   1.0000   1.0000   1.0000   1.0000   1.0000
     1.0000   1.0000   1.0000   1.0000   1.0000   1.0000   1.0000   1.0000
     1.0000   1.0000   1.0000   1.0000   1.0000   1.0000   1.0000   1.0000
     1.0000   1.0000   1.0000   1.0000   1.0000   1.0000   1.0000   1.0000
     1.0000   1.0000   1.0000   1.0000   1.0000   1.0000   1.0000   1.0000
     0.0000   0.0000   0.0000   0.0000   0.0000   0.0000   0.0000   0.0000
     0.0000   0.0000

          k = 0.1667 1.1883 0.4803 (  8522 PWs)   bands (ev):

   -13.2633 -13.2620 -13.2588 -13.2576 -13.2405 -13.2393 -13.2374 -13.2361
   -13.2295 -13.2284 -13.2253 -13.2210 -13.2116 -13.2079 -13.2016 -13.2009
   -13.1819 -13.1793 -13.1754 -13.1752  -4.7746  -4.6618  -4.4946  -4.4645
     0.4687   0.8006   1.0609   1.2610   4.0955   4.2504   4.5047   4.8415
     5.1100   5.5394   6.0142   6.1969   6.3496   6.6186   7.1099   7.4214
     9.1339   9.5203  10.0507  10.4969  11.1684  11.3504  11.5862  12.0388
    12.0884  12.6663

     occupation numbers 
     1.0000   1.0000   1.0000   1.0000   1.0000   1.0000   1.0000   1.0000
     1.0000   1.0000   1.0000   1.0000   1.0000   1.0000   1.0000   1.0000
     1.0000   1.0000   1.0000   1.0000   1.0000   1.0000   1.0000   1.0000
     1.0000   1.0000   1.0000   1.0000   1.0000   1.0000   1.0000   1.0000
     1.0000   1.0000   1.0000   1.0000   1.0000   1.0000   1.0000   1.0000
     0.0000   0.0000   0.0000   0.0000   0.0000   0.0000   0.0000   0.0000
     0.0000   0.0000

          k = 0.1667 1.1883 0.8004 (  8515 PWs)   bands (ev):

   -13.2678 -13.2668 -13.2621 -13.2614 -13.2400 -13.2388 -13.2353 -13.2347
   -13.2286 -13.2276 -13.2230 -13.2203 -13.2104 -13.2084 -13.1997 -13.1994
   -13.1818 -13.1801 -13.1747 -13.1746  -4.6400  -4.5469  -4.4426  -4.4069
     0.7586   1.0659   1.2916   1.3584   3.3746   3.8142   3.9118   4.2566
     4.5966   4.9818   5.3012   5.7415   5.8799   6.1124   6.8982   7.0627
     9.6578  10.3493  11.2441  11.4040  11.8402  12.0933  12.3761  12.5855
    12.8389  13.3395

     occupation numbers 
     1.0000   1.0000   1.0000   1.0000   1.0000   1.0000   1.0000   1.0000
     1.0000   1.0000   1.0000   1.0000   1.0000   1.0000   1.0000   1.0000
     1.0000   1.0000   1.0000   1.0000   1.0000   1.0000   1.0000   1.0000
     1.0000   1.0000   1.0000   1.0000   1.0000   1.0000   1.0000   1.0000
     1.0000   1.0000   1.0000   1.0000   1.0000   1.0000   1.0000   1.0000
     0.0000   0.0000   0.0000   0.0000   0.0000   0.0000   0.0000   0.0000
     0.0000   0.0000

          k = 0.1667 1.1883 1.1206 (  8499 PWs)   bands (ev):

   -13.2707 -13.2703 -13.2644 -13.2642 -13.2394 -13.2389 -13.2341 -13.2339
   -13.2277 -13.2273 -13.2212 -13.2202 -13.2091 -13.2085 -13.1986 -13.1985
   -13.1813 -13.1808 -13.1743 -13.1743  -4.5105  -4.4548  -4.4200  -4.3850
     1.0473   1.1882   1.4715   1.5257   3.0821   3.3074   3.5997   3.7812
     4.3958   4.4463   4.8842   5.2335   5.8200   6.0275   6.7363   6.7928
    10.2728  10.7812  11.1145  11.4685  12.6018  12.6598  12.8405  12.9716
    13.6473  13.9161

     occupation numbers 
     1.0000   1.0000   1.0000   1.0000   1.0000   1.0000   1.0000   1.0000
     1.0000   1.0000   1.0000   1.0000   1.0000   1.0000   1.0000   1.0000
     1.0000   1.0000   1.0000   1.0000   1.0000   1.0000   1.0000   1.0000
     1.0000   1.0000   1.0000   1.0000   1.0000   1.0000   1.0000   1.0000
     1.0000   1.0000   1.0000   1.0000   1.0000   1.0000   1.0000   1.0000
     0.0000   0.0000   0.0000   0.0000   0.0000   0.0000   0.0000   0.0000
     0.0000   0.0000

          k =-0.5000 0.1698 0.1601 (  8486 PWs)   bands (ev):

   -13.2595 -13.2595 -13.2504 -13.2504 -13.2484 -13.2484 -13.2402 -13.2402
   -13.2317 -13.2317 -13.2298 -13.2298 -13.2140 -13.2140 -13.1940 -13.1940
   -13.1855 -13.1855 -13.1705 -13.1705  -5.5735  -5.5735  -4.3744  -4.3744
     1.0692   1.0692   2.8360   2.8360   4.0718   4.0718   4.8239   4.8239
     5.3326   5.3326   6.0203   6.0203   6.3785   6.3785   7.5251   7.5251
    10.6540  10.6540  10.9467  10.9467  11.3758  11.3758  11.9476  11.9477
    13.1035  13.1036

     occupation numbers 
     1.0000   1.0000   1.0000   1.0000   1.0000   1.0000   1.0000   1.0000
     1.0000   1.0000   1.0000   1.0000   1.0000   1.0000   1.0000   1.0000
     1.0000   1.0000   1.0000   1.0000   1.0000   1.0000   1.0000   1.0000
     1.0000   1.0000   1.0000   1.0000   1.0000   1.0000   1.0000   1.0000
     1.0000   1.0000   1.0000   1.0000   1.0000   1.0000   1.0000   1.0000
     0.0000   0.0000   0.0000   0.0000   0.0000   0.0000   0.0000   0.0000
     0.0000   0.0000

          k =-0.5000 0.1698 0.4803 (  8514 PWs)   bands (ev):

   -13.2585 -13.2585 -13.2500 -13.2500 -13.2491 -13.2491 -13.2418 -13.2418
   -13.2303 -13.2303 -13.2278 -13.2278 -13.2142 -13.2142 -13.1938 -13.1938
   -13.1864 -13.1864 -13.1706 -13.1706  -5.4484  -5.4484  -4.3863  -4.3863
     0.7580   0.7580   2.3222   2.3222   4.2803   4.2803   4.8939   4.8939
     5.6337   5.6337   6.1576   6.1576   6.8853   6.8853   7.4490   7.4490
    10.1442  10.1442  10.7298  10.7298  11.2298  11.2298  11.6341  11.6341
    12.5438  12.5438

     occupation numbers 
     1.0000   1.0000   1.0000   1.0000   1.0000   1.0000   1.0000   1.0000
     1.0000   1.0000   1.0000   1.0000   1.0000   1.0000   1.0000   1.0000
     1.0000   1.0000   1.0000   1.0000   1.0000   1.0000   1.0000   1.0000
     1.0000   1.0000   1.0000   1.0000   1.0000   1.0000   1.0000   1.0000
     1.0000   1.0000   1.0000   1.0000   1.0000   1.0000   1.0000   1.0000
     0.0000   0.0000   0.0000   0.0000   0.0000   0.0000   0.0000   0.0000
     0.0000   0.0000

          k =-0.5000 0.1698 0.8004 (  8520 PWs)   bands (ev):

   -13.2569 -13.2569 -13.2520 -13.2520 -13.2478 -13.2478 -13.2439 -13.2439
   -13.2293 -13.2293 -13.2235 -13.2235 -13.2148 -13.2148 -13.1933 -13.1933
   -13.1876 -13.1876 -13.1706 -13.1706  -5.2248  -5.2248  -4.4483  -4.4483
     0.3959   0.3959   1.7221   1.7221   4.5828   4.5828   5.2080   5.2080
     5.8098   5.8098   6.3972   6.3972   7.1064   7.1064   7.6157   7.6157
     9.6046   9.6046  10.1403  10.1403  10.8187  10.8187  11.2957  11.2957
    12.0819  12.0819

     occupation numbers 
     1.0000   1.0000   1.0000   1.0000   1.0000   1.0000   1.0000   1.0000
     1.0000   1.0000   1.0000   1.0000   1.0000   1.0000   1.0000   1.0000
     1.0000   1.0000   1.0000   1.0000   1.0000   1.0000   1.0000   1.0000
     1.0000   1.0000   1.0000   1.0000   1.0000   1.0000   1.0000   1.0000
     1.0000   1.0000   1.0000   1.0000   1.0000   1.0000   1.0000   1.0000
     0.0000   0.0000   0.0000   0.0000   0.0000   0.0000   0.0000   0.0000
     0.0000   0.0000

          k =-0.5000 0.1698 1.1206 (  8504 PWs)   bands (ev):

   -13.2555 -13.2555 -13.2535 -13.2535 -13.2473 -13.2473 -13.2453 -13.2453
   -13.2288 -13.2288 -13.2192 -13.2192 -13.2163 -13.2163 -13.1927 -13.1927
   -13.1886 -13.1886 -13.1706 -13.1706  -4.9763  -4.9763  -4.5827  -4.5827
     0.1952   0.1952   1.3234   1.3234   5.0046   5.0046   5.5657   5.5657
     5.6484   5.6484   6.2650   6.2650   7.4620   7.4620   7.7102   7.7102
     9.4293   9.4293   9.5968   9.5968  10.4138  10.4138  11.0239  11.0239
    11.7771  11.7771

     occupation numbers 
     1.0000   1.0000   1.0000   1.0000   1.0000   1.0000   1.0000   1.0000
     1.0000   1.0000   1.0000   1.0000   1.0000   1.0000   1.0000   1.0000
     1.0000   1.0000   1.0000   1.0000   1.0000   1.0000   1.0000   1.0000
     1.0000   1.0000   1.0000   1.0000   1.0000   1.0000   1.0000   1.0000
     1.0000   1.0000   1.0000   1.0000   1.0000   1.0000   1.0000   1.0000
     0.0000   0.0000   0.0000   0.0000   0.0000   0.0000   0.0000   0.0000
     0.0000   0.0000

          k =-0.5000 0.5093 0.1601 (  8526 PWs)   bands (ev):

   -13.2556 -13.2556 -13.2505 -13.2505 -13.2472 -13.2472 -13.2434 -13.2434
   -13.2330 -13.2330 -13.2273 -13.2273 -13.2131 -13.2131 -13.1933 -13.1933
   -13.1865 -13.1865 -13.1719 -13.1719  -5.4186  -5.4186  -4.3517  -4.3517
     0.8640   0.8640   2.2746   2.2746   4.1766   4.1766   4.7818   4.7818
     5.7010   5.7010   5.9387   5.9387   6.6828   6.6828   7.5945   7.5945
     9.9878   9.9878  10.9501  10.9501  11.2647  11.2647  11.6429  11.6429
    12.4754  12.4754

     occupation numbers 
     1.0000   1.0000   1.0000   1.0000   1.0000   1.0000   1.0000   1.0000
     1.0000   1.0000   1.0000   1.0000   1.0000   1.0000   1.0000   1.0000
     1.0000   1.0000   1.0000   1.0000   1.0000   1.0000   1.0000   1.0000
     1.0000   1.0000   1.0000   1.0000   1.0000   1.0000   1.0000   1.0000
     1.0000   1.0000   1.0000   1.0000   1.0000   1.0000   1.0000   1.0000
     0.0000   0.0000   0.0000   0.0000   0.0000   0.0000   0.0000   0.0000
     0.0000   0.0000

          k =-0.5000 0.5093 0.4803 (  8502 PWs)   bands (ev):

   -13.2563 -13.2563 -13.2515 -13.2515 -13.2465 -13.2465 -13.2439 -13.2439
   -13.2323 -13.2323 -13.2248 -13.2248 -13.2132 -13.2132 -13.1931 -13.1931
   -13.1873 -13.1873 -13.1716 -13.1716  -5.2997  -5.2997  -4.3569  -4.3569
     0.7407   0.7407   2.0393   2.0393   4.0686   4.0686   4.6679   4.6679
     5.3424   5.3424   6.3955   6.3955   7.0728   7.0728   7.5469   7.5469
     9.6232   9.6232  10.5639  10.5639  11.1949  11.1949  11.6433  11.6433
    12.5155  12.5156

     occupation numbers 
     1.0000   1.0000   1.0000   1.0000   1.0000   1.0000   1.0000   1.0000
     1.0000   1.0000   1.0000   1.0000   1.0000   1.0000   1.0000   1.0000
     1.0000   1.0000   1.0000   1.0000   1.0000   1.0000   1.0000   1.0000
     1.0000   1.0000   1.0000   1.0000   1.0000   1.0000   1.0000   1.0000
     1.0000   1.0000   1.0000   1.0000   1.0000   1.0000   1.0000   1.0000
     0.0000   0.0000   0.0000   0.0000   0.0000   0.0000   0.0000   0.0000
     0.0000   0.0000

          k =-0.5000 0.5093 0.8004 (  8494 PWs)   bands (ev):

   -13.2578 -13.2578 -13.2533 -13.2533 -13.2460 -13.2460 -13.2435 -13.2435
   -13.2317 -13.2317 -13.2210 -13.2210 -13.2134 -13.2134 -13.1926 -13.1926
   -13.1885 -13.1885 -13.1713 -13.1713  -5.0896  -5.0896  -4.4026  -4.4026
     0.5352   0.5352   1.7051   1.7051   4.0310   4.0310   4.8883   4.8883
     5.1698   5.1698   6.4557   6.4557   6.7894   6.7894   7.5555   7.5555
     9.7859   9.7859  10.4241  10.4241  10.9536  10.9536  11.7057  11.7057
    12.5561  12.5561

     occupation numbers 
     1.0000   1.0000   1.0000   1.0000   1.0000   1.0000   1.0000   1.0000
     1.0000   1.0000   1.0000   1.0000   1.0000   1.0000   1.0000   1.0000
     1.0000   1.0000   1.0000   1.0000   1.0000   1.0000   1.0000   1.0000
     1.0000   1.0000   1.0000   1.0000   1.0000   1.0000   1.0000   1.0000
     1.0000   1.0000   1.0000   1.0000   1.0000   1.0000   1.0000   1.0000
     0.0000   0.0000   0.0000   0.0000   0.0000   0.0000   0.0000   0.0000
     0.0000   0.0000

          k =-0.5000 0.5093 1.1206 (  8508 PWs)   bands (ev):

   -13.2591 -13.2591 -13.2546 -13.2546 -13.2457 -13.2457 -13.2430 -13.2430
   -13.2313 -13.2313 -13.2180 -13.2180 -13.2138 -13.2138 -13.1922 -13.1922
   -13.1894 -13.1894 -13.1711 -13.1711  -4.8609  -4.8609  -4.5135  -4.5135
     0.3879   0.3879   1.4500   1.4500   4.2968   4.2968   4.7670   4.7670
     5.4120   5.4120   6.0538   6.0538   6.6391   6.6391   7.3180   7.3180
    10.1384  10.1384  10.6495  10.6495  10.8439  10.8439  11.6240  11.6240
    12.5945  12.5945

     occupation numbers 
     1.0000   1.0000   1.0000   1.0000   1.0000   1.0000   1.0000   1.0000
     1.0000   1.0000   1.0000   1.0000   1.0000   1.0000   1.0000   1.0000
     1.0000   1.0000   1.0000   1.0000   1.0000   1.0000   1.0000   1.0000
     1.0000   1.0000   1.0000   1.0000   1.0000   1.0000   1.0000   1.0000
     1.0000   1.0000   1.0000   1.0000   1.0000   1.0000   1.0000   1.0000
     0.0000   0.0000   0.0000   0.0000   0.0000   0.0000   0.0000   0.0000
     0.0000   0.0000

          k =-0.5000 0.8488 0.1601 (  8558 PWs)   bands (ev):

   -13.2570 -13.2570 -13.2523 -13.2523 -13.2432 -13.2432 -13.2415 -13.2415
   -13.2334 -13.2334 -13.2244 -13.2244 -13.2117 -13.2117 -13.1970 -13.1970
   -13.1841 -13.1841 -13.1736 -13.1736  -5.1390  -5.1390  -4.3703  -4.3703
     0.6074   0.6074   1.5267   1.5267   4.4610   4.4610   5.0284   5.0284
     5.8912   5.8912   6.1275   6.1275   6.7192   6.7192   7.5518   7.5518
     9.3399   9.3399  10.3184  10.3184  10.8127  10.8127  11.5141  11.5141
    11.8682  11.8682

     occupation numbers 
     1.0000   1.0000   1.0000   1.0000   1.0000   1.0000   1.0000   1.0000
     1.0000   1.0000   1.0000   1.0000   1.0000   1.0000   1.0000   1.0000
     1.0000   1.0000   1.0000   1.0000   1.0000   1.0000   1.0000   1.0000
     1.0000   1.0000   1.0000   1.0000   1.0000   1.0000   1.0000   1.0000
     1.0000   1.0000   1.0000   1.0000   1.0000   1.0000   1.0000   1.0000
     0.0000   0.0000   0.0000   0.0000   0.0000   0.0000   0.0000   0.0000
     0.0000   0.0000

          k =-0.5000 0.8488 0.4803 (  8530 PWs)   bands (ev):

   -13.2594 -13.2594 -13.2548 -13.2548 -13.2422 -13.2422 -13.2404 -13.2404
   -13.2326 -13.2326 -13.2227 -13.2227 -13.2115 -13.2115 -13.1969 -13.1969
   -13.1844 -13.1844 -13.1733 -13.1733  -5.0347  -5.0347  -4.3579  -4.3579
     0.6875   0.6875   1.5270   1.5270   3.9546   3.9546   4.8255   4.8255
     5.2516   5.2516   6.3460   6.3460   6.5935   6.5935   7.4445   7.4445
     9.7569   9.7569  10.1757  10.1757  11.2094  11.2094  11.6342  11.6342
    12.2236  12.2236

     occupation numbers 
     1.0000   1.0000   1.0000   1.0000   1.0000   1.0000   1.0000   1.0000
     1.0000   1.0000   1.0000   1.0000   1.0000   1.0000   1.0000   1.0000
     1.0000   1.0000   1.0000   1.0000   1.0000   1.0000   1.0000   1.0000
     1.0000   1.0000   1.0000   1.0000   1.0000   1.0000   1.0000   1.0000
     1.0000   1.0000   1.0000   1.0000   1.0000   1.0000   1.0000   1.0000
     0.0000   0.0000   0.0000   0.0000   0.0000   0.0000   0.0000   0.0000
     0.0000   0.0000

          k =-0.5000 0.8488 0.8004 (  8504 PWs)   bands (ev):

   -13.2628 -13.2628 -13.2583 -13.2583 -13.2412 -13.2412 -13.2392 -13.2392
   -13.2316 -13.2316 -13.2205 -13.2205 -13.2107 -13.2107 -13.1968 -13.1968
   -13.1846 -13.1846 -13.1728 -13.1728  -4.8560  -4.8560  -4.3654  -4.3654
     0.7506   0.7506   1.5371   1.5371   3.5578   3.5578   4.4863   4.4863
     5.0150   5.0150   5.7320   5.7320   6.3982   6.3982   7.2364   7.2364
    10.2451  10.2451  10.9595  10.9595  11.0525  11.0525  12.2552  12.2552
    12.6425  12.6425

     occupation numbers 
     1.0000   1.0000   1.0000   1.0000   1.0000   1.0000   1.0000   1.0000
     1.0000   1.0000   1.0000   1.0000   1.0000   1.0000   1.0000   1.0000
     1.0000   1.0000   1.0000   1.0000   1.0000   1.0000   1.0000   1.0000
     1.0000   1.0000   1.0000   1.0000   1.0000   1.0000   1.0000   1.0000
     1.0000   1.0000   1.0000   1.0000   1.0000   1.0000   1.0000   1.0000
     0.0000   0.0000   0.0000   0.0000   0.0000   0.0000   0.0000   0.0000
     0.0000   0.0000

          k =-0.5000 0.8488 1.1206 (  8492 PWs)   bands (ev):

   -13.2651 -13.2651 -13.2607 -13.2607 -13.2405 -13.2405 -13.2385 -13.2385
   -13.2309 -13.2309 -13.2191 -13.2191 -13.2098 -13.2098 -13.1966 -13.1966
   -13.1848 -13.1848 -13.1725 -13.1725  -4.6716  -4.6716  -4.4244  -4.4244
     0.7320   0.7320   1.5758   1.5758   3.5682   3.5682   3.9992   3.9992
     4.9990   4.9990   5.3382   5.3382   6.3300   6.3300   6.8505   6.8505
    10.5065  10.5065  11.2628  11.2628  11.6544  11.6544  12.3326  12.3326
    13.1795  13.1795

     occupation numbers 
     1.0000   1.0000   1.0000   1.0000   1.0000   1.0000   1.0000   1.0000
     1.0000   1.0000   1.0000   1.0000   1.0000   1.0000   1.0000   1.0000
     1.0000   1.0000   1.0000   1.0000   1.0000   1.0000   1.0000   1.0000
     1.0000   1.0000   1.0000   1.0000   1.0000   1.0000   1.0000   1.0000
     1.0000   1.0000   1.0000   1.0000   1.0000   1.0000   1.0000   1.0000
     0.0000   0.0000   0.0000   0.0000   0.0000   0.0000   0.0000   0.0000
     0.0000   0.0000

          k =-0.5000 1.1883 0.1601 (  8546 PWs)   bands (ev):

   -13.2584 -13.2584 -13.2566 -13.2566 -13.2400 -13.2400 -13.2389 -13.2389
   -13.2291 -13.2291 -13.2247 -13.2247 -13.2087 -13.2087 -13.2032 -13.2032
   -13.1798 -13.1798 -13.1760 -13.1760  -4.8031  -4.8031  -4.5169  -4.5169
     0.5689   0.5689   0.8958   0.8958   4.9430   4.9430   5.3343   5.3343
     5.7741   5.7741   6.0773   6.0773   6.8849   6.8849   7.2548   7.2548
     9.3652   9.3652   9.7380   9.7380  10.3671  10.3671  10.9019  10.9019
    11.8685  11.8685

     occupation numbers 
     1.0000   1.0000   1.0000   1.0000   1.0000   1.0000   1.0000   1.0000
     1.0000   1.0000   1.0000   1.0000   1.0000   1.0000   1.0000   1.0000
     1.0000   1.0000   1.0000   1.0000   1.0000   1.0000   1.0000   1.0000
     1.0000   1.0000   1.0000   1.0000   1.0000   1.0000   1.0000   1.0000
     1.0000   1.0000   1.0000   1.0000   1.0000   1.0000   1.0000   1.0000
     0.0000   0.0000   0.0000   0.0000   0.0000   0.0000   0.0000   0.0000
     0.0000   0.0000

          k =-0.5000 1.1883 0.4803 (  8548 PWs)   bands (ev):

   -13.2614 -13.2614 -13.2597 -13.2597 -13.2389 -13.2389 -13.2382 -13.2382
   -13.2283 -13.2283 -13.2239 -13.2239 -13.2079 -13.2079 -13.2027 -13.2027
   -13.1798 -13.1798 -13.1759 -13.1759  -4.7248  -4.7248  -4.4734  -4.4734
     0.7262   0.7262   1.0194   1.0194   4.2619   4.2619   4.8133   4.8133
     5.3527   5.3527   5.8184   5.8184   6.5732   6.5732   7.0301   7.0301
     9.8694   9.8694  10.2524  10.2524  11.2289  11.2289  11.5811  11.5811
    12.1155  12.1155

     occupation numbers 
     1.0000   1.0000   1.0000   1.0000   1.0000   1.0000   1.0000   1.0000
     1.0000   1.0000   1.0000   1.0000   1.0000   1.0000   1.0000   1.0000
     1.0000   1.0000   1.0000   1.0000   1.0000   1.0000   1.0000   1.0000
     1.0000   1.0000   1.0000   1.0000   1.0000   1.0000   1.0000   1.0000
     1.0000   1.0000   1.0000   1.0000   1.0000   1.0000   1.0000   1.0000
     0.0000   0.0000   0.0000   0.0000   0.0000   0.0000   0.0000   0.0000
     0.0000   0.0000

          k =-0.5000 1.1883 0.8004 (  8518 PWs)   bands (ev):

   -13.2654 -13.2654 -13.2637 -13.2637 -13.2379 -13.2379 -13.2371 -13.2371
   -13.2272 -13.2272 -13.2229 -13.2229 -13.2066 -13.2066 -13.2018 -13.2018
   -13.1797 -13.1797 -13.1755 -13.1755  -4.6000  -4.6000  -4.4184  -4.4184
     0.9696   0.9696   1.2337   1.2337   3.6204   3.6204   4.1599   4.1599
     4.7699   4.7699   5.2343   5.2343   6.4003   6.4003   6.7745   6.7745
    10.6098  10.6098  10.8620  10.8620  11.5194  11.5194  12.1680  12.1680
    13.1538  13.1538

     occupation numbers 
     1.0000   1.0000   1.0000   1.0000   1.0000   1.0000   1.0000   1.0000
     1.0000   1.0000   1.0000   1.0000   1.0000   1.0000   1.0000   1.0000
     1.0000   1.0000   1.0000   1.0000   1.0000   1.0000   1.0000   1.0000
     1.0000   1.0000   1.0000   1.0000   1.0000   1.0000   1.0000   1.0000
     1.0000   1.0000   1.0000   1.0000   1.0000   1.0000   1.0000   1.0000
     0.0000   0.0000   0.0000   0.0000   0.0000   0.0000   0.0000   0.0000
     0.0000   0.0000

          k =-0.5000 1.1883 1.1206 (  8490 PWs)   bands (ev):

   -13.2682 -13.2682 -13.2666 -13.2666 -13.2376 -13.2376 -13.2365 -13.2365
   -13.2263 -13.2263 -13.2221 -13.2221 -13.2054 -13.2054 -13.2011 -13.2011
   -13.1796 -13.1796 -13.1753 -13.1753  -4.4883  -4.4883  -4.3970  -4.3970
     1.1301   1.1301   1.4613   1.4613   3.3887   3.3887   3.6459   3.6459
     4.3622   4.3622   4.6513   4.6513   6.4848   6.4848   6.6703   6.6703
    10.5381  10.5381  10.8429  10.8429  12.4420  12.4420  12.8006  12.8006
    14.1526  14.1526

     occupation numbers 
     1.0000   1.0000   1.0000   1.0000   1.0000   1.0000   1.0000   1.0000
     1.0000   1.0000   1.0000   1.0000   1.0000   1.0000   1.0000   1.0000
     1.0000   1.0000   1.0000   1.0000   1.0000   1.0000   1.0000   1.0000
     1.0000   1.0000   1.0000   1.0000   1.0000   1.0000   1.0000   1.0000
     1.0000   1.0000   1.0000   1.0000   1.0000   1.0000   1.0000   1.0000
     0.0000   0.0000   0.0000   0.0000   0.0000   0.0000   0.0000   0.0000
     0.0000   0.0000

     highest occupied, lowest unoccupied level (ev):     7.8892    8.9075

!    total energy              =    -827.62145798 Ry
     estimated scf accuracy    <          9.9E-10 Ry

     The total energy is the sum of the following terms:
     one-electron contribution =    -257.00413175 Ry
     hartree contribution      =     179.10557412 Ry
     xc contribution           =    -309.11808416 Ry
     ewald contribution        =    -440.60481620 Ry

     convergence has been achieved in   9 iterations

     Forces acting on atoms (cartesian axes, Ry/au):

     atom    1 type  2   force =     0.00886265    0.00000000   -0.00129185
     atom    2 type  1   force =    -0.00835342    0.00000000   -0.00149897
     atom    3 type  2   force =    -0.00886265    0.00000000   -0.00129185
     atom    4 type  1   force =     0.00835342   -0.00000000   -0.00149897
     atom    5 type  2   force =     0.00886265    0.00000000    0.00129185
     atom    6 type  1   force =    -0.00835342    0.00000000    0.00149897
     atom    7 type  2   force =    -0.00886265   -0.00000000    0.00129185
     atom    8 type  1   force =     0.00835342   -0.00000000    0.00149897
     The non-local contrib.  to forces
     atom    1 type  2   force =    -0.11355779    0.00000000    0.09866775
     atom    2 type  1   force =     0.36112257    0.00000000    0.27152275
     atom    3 type  2   force =     0.11355779    0.00000000    0.09866775
     atom    4 type  1   force =    -0.36112257    0.00000000    0.27152275
     atom    5 type  2   force =    -0.11355779    0.00000000   -0.09866775
     atom    6 type  1   force =     0.36112257    0.00000000   -0.27152275
     atom    7 type  2   force =     0.11355779    0.00000000   -0.09866775
     atom    8 type  1   force =    -0.36112257    0.00000000   -0.27152275
     The ionic contribution  to forces
     atom    1 type  2   force =     1.53473235   -0.00000000   -1.05154455
     atom    2 type  1   force =    -1.03769718    0.00000000   -0.57506129
     atom    3 type  2   force =    -1.53473235    0.00000000   -1.05154455
     atom    4 type  1   force =     1.03769718    0.00000000   -0.57506129
     atom    5 type  2   force =     1.53473235   -0.00000000    1.05154455
     atom    6 type  1   force =    -1.03769718    0.00000000    0.57506129
     atom    7 type  2   force =    -1.53473235   -0.00000000    1.05154455
     atom    8 type  1   force =     1.03769718    0.00000000    0.57506129
     The local contribution  to forces
     atom    1 type  2   force =    -1.42475921   -0.00000000    0.96250431
     atom    2 type  1   force =     0.67365811    0.00000000    0.30654442
     atom    3 type  2   force =     1.42475921   -0.00000000    0.96250431
     atom    4 type  1   force =    -0.67365811    0.00000000    0.30654442
     atom    5 type  2   force =    -1.42475921    0.00000000   -0.96250431
     atom    6 type  1   force =     0.67365811    0.00000000   -0.30654442
     atom    7 type  2   force =     1.42475921    0.00000000   -0.96250431
     atom    8 type  1   force =    -0.67365811    0.00000000   -0.30654442
     The core correction contribution to forces
     atom    1 type  2   force =     0.01242149   -0.00000000   -0.01091941
     atom    2 type  1   force =    -0.00539450   -0.00000000   -0.00453654
     atom    3 type  2   force =    -0.01242149    0.00000000   -0.01091941
     atom    4 type  1   force =     0.00539450    0.00000000   -0.00453654
     atom    5 type  2   force =     0.01242149    0.00000000    0.01091941
     atom    6 type  1   force =    -0.00539450    0.00000000    0.00453654
     atom    7 type  2   force =    -0.01242149   -0.00000000    0.01091941
     atom    8 type  1   force =     0.00539450    0.00000000    0.00453654
     The Hubbard contrib.    to forces
     atom    1 type  2   force =     0.00000000    0.00000000    0.00000000
     atom    2 type  1   force =     0.00000000    0.00000000    0.00000000
     atom    3 type  2   force =     0.00000000    0.00000000    0.00000000
     atom    4 type  1   force =     0.00000000    0.00000000    0.00000000
     atom    5 type  2   force =     0.00000000    0.00000000    0.00000000
     atom    6 type  1   force =     0.00000000    0.00000000    0.00000000
     atom    7 type  2   force =     0.00000000    0.00000000    0.00000000
     atom    8 type  1   force =     0.00000000    0.00000000    0.00000000
     The SCF correction term to forces
     atom    1 type  2   force =     0.00002581    0.00000000    0.00000005
     atom    2 type  1   force =    -0.00004242   -0.00000000    0.00003169
     atom    3 type  2   force =    -0.00002581   -0.00000000    0.00000005
     atom    4 type  1   force =     0.00004242   -0.00000000    0.00003169
     atom    5 type  2   force =     0.00002581   -0.00000000   -0.00000005
     atom    6 type  1   force =    -0.00004242   -0.00000000   -0.00003169
     atom    7 type  2   force =    -0.00002581    0.00000000   -0.00000005
     atom    8 type  1   force =     0.00004242    0.00000000   -0.00003169

     Total force =     0.024677     Total SCF correction =     0.000118

     Writing output data file ./tmp/SnSe_pnma.save/

     init_run     :      9.91s CPU     10.44s WALL (       1 calls)
     electrons    :    207.21s CPU    236.51s WALL (       1 calls)
     forces       :      5.68s CPU      8.53s WALL (       1 calls)

     Called by init_run:
     wfcinit      :      4.67s CPU      4.89s WALL (       1 calls)
     wfcinit:atom :      0.04s CPU      0.04s WALL (      11 calls)
     wfcinit:wfcr :      4.36s CPU      4.60s WALL (      11 calls)
     potinit      :      1.17s CPU      1.27s WALL (       1 calls)
     hinit0       :      1.86s CPU      1.90s WALL (       1 calls)

     Called by electrons:
     c_bands      :    169.38s CPU    191.17s WALL (       9 calls)
     sum_band     :     23.32s CPU     25.45s WALL (       9 calls)
     v_of_rho     :      3.43s CPU      4.03s WALL (      10 calls)
     v_h          :      0.29s CPU      0.33s WALL (      10 calls)
     v_xc         :      3.44s CPU      4.06s WALL (      11 calls)
     newd         :     12.43s CPU     17.37s WALL (      10 calls)
     mix_rho      :      0.58s CPU      0.59s WALL (       9 calls)

     Called by c_bands:
     init_us_2    :      1.36s CPU      1.20s WALL (     220 calls)
     cegterg      :    131.09s CPU    155.14s WALL (      99 calls)

     Called by sum_band:
     sum_band:wei :      0.00s CPU      0.00s WALL (       9 calls)
     sum_band:loo :     15.83s CPU     17.13s WALL (       9 calls)
     sum_band:buf :      0.14s CPU      0.12s WALL (      99 calls)
     sum_band:ini :      0.59s CPU      0.53s WALL (      99 calls)
     sum_band:cal :      5.09s CPU      7.32s WALL (      99 calls)
     sum_band:bec :      0.01s CPU      0.01s WALL (      99 calls)
     addusdens    :      5.66s CPU      6.58s WALL (       9 calls)
     addusd:skk   :      0.02s CPU      0.03s WALL (      18 calls)
     addusd:dgemm :      1.90s CPU      2.44s WALL (      18 calls)
     addusd:qvan2 :      3.12s CPU      2.97s WALL (      18 calls)

     Called by *egterg:
     cdiaghg      :     12.57s CPU     30.65s WALL (     453 calls)
     cegterg:over :     21.19s CPU     31.54s WALL (     354 calls)
     cegterg:upda :      4.07s CPU      3.26s WALL (     354 calls)
     cegterg:last :      6.79s CPU      3.52s WALL (     214 calls)
     h_psi        :     72.91s CPU     72.85s WALL (     464 calls)
     s_psi        :      7.54s CPU      3.43s WALL (     464 calls)
     g_psi        :      0.46s CPU      0.39s WALL (     354 calls)

     Called by h_psi:
     h_psi:calbec :     18.84s CPU     24.83s WALL (     464 calls)
     vloc_psi     :     45.92s CPU     43.96s WALL (     464 calls)
     add_vuspsi   :      7.73s CPU      3.58s WALL (     464 calls)

     General routines
     calbec       :     25.63s CPU     35.59s WALL (     607 calls)
     fft          :      3.31s CPU      3.54s WALL (     139 calls)
     ffts         :      0.07s CPU      0.07s WALL (      19 calls)
     fftw         :     47.22s CPU     44.90s WALL (   32392 calls)
     interpolate  :      0.31s CPU      0.32s WALL (      10 calls)

     Parallel routines
     fft_scatt_xy :      9.49s CPU      8.92s WALL (   32550 calls)
     fft_scatt_yz :     10.72s CPU     10.88s WALL (   32550 calls)

     PWSCF        :   3m43.06s CPU   4m15.93s WALL


   This run was terminated on:  23:34:28  17May2026            

=------------------------------------------------------------------------------=
   JOB DONE.
=------------------------------------------------------------------------------=
