
     Program PWSCF v.6.7MaX starts on 17May2026 at 23:40: 5 

     This program is part of the open-source Quantum ESPRESSO suite
     for quantum simulation of materials; please cite
         "P. Giannozzi et al., J. Phys.:Condens. Matter 21 395502 (2009);
         "P. Giannozzi et al., J. Phys.:Condens. Matter 29 465901 (2017);
          URL http://www.quantum-espresso.org", 
     in publications or presentations arising from this work. More details at
     http://www.quantum-espresso.org/quote

     Parallel version (MPI), running on     6 processors

     MPI processes distributed on     1 nodes
     K-points division:     npool     =       6
     Waiting for input...
     Reading input from standard input

     Current dimensions of program PWSCF are:
     Max number of different atomic species (ntypx) = 10
     Max number of k-points (npk) =  40000
     Max angular momentum in pseudopotentials (lmaxx) =  3

     Subspace diagonalization in iterative solution of the eigenvalue problem:
     a serial algorithm will be used


     G-vector sticks info
     --------------------
     sticks:   dense  smooth     PW     G-vecs:    dense   smooth      PW
     Sum        6765    2711    781               269075    68055   10485



     bravais-lattice index     =            8
     lattice parameter (alat)  =      21.4862  a.u.
     unit-cell volume          =    1425.7436 (a.u.)^3
     number of atoms/cell      =            8
     number of atomic types    =            2
     number of electrons       =        80.00
     number of Kohn-Sham states=           50
     kinetic-energy cutoff     =      50.0000  Ry
     charge density cutoff     =     500.0000  Ry
     scf convergence threshold =      1.0E-08
     mixing beta               =       0.7000
     number of iterations used =            8  plain     mixing
     Exchange-correlation= SLA  PW   PBE  PBE
                           (   1   4   3   4   0   0   0)

     celldm(1)=  21.486186  celldm(2)=   0.368162  celldm(3)=   0.390413
     celldm(4)=   0.000000  celldm(5)=   0.000000  celldm(6)=   0.000000

     crystal axes: (cart. coord. in units of alat)
               a(1) = (   1.000000   0.000000   0.000000 )  
               a(2) = (   0.000000   0.368162   0.000000 )  
               a(3) = (   0.000000   0.000000   0.390413 )  

     reciprocal axes: (cart. coord. in units 2 pi/alat)
               b(1) = (  1.000000  0.000000  0.000000 )  
               b(2) = (  0.000000  2.716197  0.000000 )  
               b(3) = (  0.000000  0.000000  2.561388 )  


     PseudoPot. # 1 for Sn read from file:
     ../pseudo/Sn_pbe_v1.uspp.F.UPF
     MD5 check sum: 4cf58ce39ec5d5d420df3dd08604eb00
     Pseudo is Ultrasoft + core correction, Zval = 14.0
     Generated by new atomic code, or converted to UPF format
     Using radial grid of  891 points,  6 beta functions with: 
                l(1) =   0
                l(2) =   0
                l(3) =   1
                l(4) =   1
                l(5) =   2
                l(6) =   2
     Q(r) pseudized with  6 coefficients,  rinner =    1.200   1.200   1.200
                                                       1.200   1.200

     PseudoPot. # 2 for Se read from file:
     ../pseudo/Se_pbe_v1.uspp.F.UPF
     MD5 check sum: 1b3568f3a8ae88f9a2a0ad0698632c85
     Pseudo is Ultrasoft + core correction, Zval =  6.0
     Generated by new atomic code, or converted to UPF format
     Using radial grid of  877 points,  6 beta functions with: 
                l(1) =   0
                l(2) =   0
                l(3) =   1
                l(4) =   1
                l(5) =   2
                l(6) =   2
     Q(r) pseudized with  8 coefficients,  rinner =    1.300   1.300   1.300
                                                       1.300   1.300

     atomic species   valence    mass     pseudopotential
        Sn            14.00   118.71000     Sn( 1.00)
        Se             6.00    78.97100     Se( 1.00)

      8 Sym. Ops., with inversion, found ( 6 have fractional translation)


                                    s                        frac. trans.

      isym =  1     identity                                     

 cryst.   s( 1) = (     1          0          0      )
                  (     0          1          0      )
                  (     0          0          1      )

 cart.    s( 1) = (  1.0000000  0.0000000  0.0000000 )
                  (  0.0000000  1.0000000  0.0000000 )
                  (  0.0000000  0.0000000  1.0000000 )


      isym =  2     180 deg rotation - cart. axis [0,0,1]        

 cryst.   s( 2) = (    -1          0          0      )    f =(  0.5000000 )
                  (     0         -1          0      )       (  0.0000000 )
                  (     0          0          1      )       (  0.5000000 )

 cart.    s( 2) = ( -1.0000000  0.0000000  0.0000000 )    f =(  0.5000000 )
                  (  0.0000000 -1.0000000  0.0000000 )       (  0.0000000 )
                  (  0.0000000  0.0000000  1.0000000 )       (  0.1952067 )


      isym =  3     180 deg rotation - cart. axis [0,1,0]        

 cryst.   s( 3) = (    -1          0          0      )    f =(  0.0000000 )
                  (     0          1          0      )       ( -0.5000000 )
                  (     0          0         -1      )       (  0.0000000 )

 cart.    s( 3) = ( -1.0000000  0.0000000  0.0000000 )    f =(  0.0000000 )
                  (  0.0000000  1.0000000  0.0000000 )       ( -0.1840809 )
                  (  0.0000000  0.0000000 -1.0000000 )       (  0.0000000 )


      isym =  4     180 deg rotation - cart. axis [1,0,0]        

 cryst.   s( 4) = (     1          0          0      )    f =(  0.5000000 )
                  (     0         -1          0      )       (  0.5000000 )
                  (     0          0         -1      )       (  0.5000000 )

 cart.    s( 4) = (  1.0000000  0.0000000  0.0000000 )    f =(  0.5000000 )
                  (  0.0000000 -1.0000000  0.0000000 )       (  0.1840809 )
                  (  0.0000000  0.0000000 -1.0000000 )       (  0.1952067 )


      isym =  5     inversion                                    

 cryst.   s( 5) = (    -1          0          0      )
                  (     0         -1          0      )
                  (     0          0         -1      )

 cart.    s( 5) = ( -1.0000000  0.0000000  0.0000000 )
                  (  0.0000000 -1.0000000  0.0000000 )
                  (  0.0000000  0.0000000 -1.0000000 )


      isym =  6     inv. 180 deg rotation - cart. axis [0,0,1]   

 cryst.   s( 6) = (     1          0          0      )    f =(  0.5000000 )
                  (     0          1          0      )       (  0.0000000 )
                  (     0          0         -1      )       (  0.5000000 )

 cart.    s( 6) = (  1.0000000  0.0000000  0.0000000 )    f =(  0.5000000 )
                  (  0.0000000  1.0000000  0.0000000 )       (  0.0000000 )
                  (  0.0000000  0.0000000 -1.0000000 )       (  0.1952067 )


      isym =  7     inv. 180 deg rotation - cart. axis [0,1,0]   

 cryst.   s( 7) = (     1          0          0      )    f =(  0.0000000 )
                  (     0         -1          0      )       (  0.5000000 )
                  (     0          0          1      )       (  0.0000000 )

 cart.    s( 7) = (  1.0000000  0.0000000  0.0000000 )    f =(  0.0000000 )
                  (  0.0000000 -1.0000000  0.0000000 )       (  0.1840809 )
                  (  0.0000000  0.0000000  1.0000000 )       (  0.0000000 )


      isym =  8     inv. 180 deg rotation - cart. axis [1,0,0]   

 cryst.   s( 8) = (    -1          0          0      )    f =(  0.5000000 )
                  (     0          1          0      )       ( -0.5000000 )
                  (     0          0          1      )       (  0.5000000 )

 cart.    s( 8) = ( -1.0000000  0.0000000  0.0000000 )    f =(  0.5000000 )
                  (  0.0000000  1.0000000  0.0000000 )       ( -0.1840809 )
                  (  0.0000000  0.0000000  1.0000000 )       (  0.1952067 )


     point group D_2h (mmm) 
     there are  8 classes
     the character table:

       E     C2    C2'   C2''  i     s_v   s_v'  s_v''
A_g    1.00  1.00  1.00  1.00  1.00  1.00  1.00  1.00
B_1g   1.00  1.00 -1.00 -1.00  1.00  1.00 -1.00 -1.00
B_2g   1.00 -1.00  1.00 -1.00  1.00 -1.00  1.00 -1.00
B_3g   1.00 -1.00 -1.00  1.00  1.00 -1.00 -1.00  1.00
A_u    1.00  1.00  1.00  1.00 -1.00 -1.00 -1.00 -1.00
B_1u   1.00  1.00 -1.00 -1.00 -1.00 -1.00  1.00  1.00
B_2u   1.00 -1.00  1.00 -1.00 -1.00  1.00 -1.00  1.00
B_3u   1.00 -1.00 -1.00  1.00 -1.00  1.00  1.00 -1.00

     the symmetry operations in each class and the name of the first element:

     E        1
          identity                                               
     C2       2
          180 deg rotation - cart. axis [0,0,1]                  
     C2'      4
          180 deg rotation - cart. axis [1,0,0]                  
     C2''     3
          180 deg rotation - cart. axis [0,1,0]                  
     i        5
          inversion                                              
     s_v      6
          inv. 180 deg rotation - cart. axis [0,0,1]             
     s_v'     8
          inv. 180 deg rotation - cart. axis [1,0,0]             
     s_v''    7
          inv. 180 deg rotation - cart. axis [0,1,0]             

   Cartesian axes

     site n.     atom                  positions (alat units)
         1           Se  tau(   1) = (   0.8555000   0.0920405   0.1884916  )
         2           Sn  tau(   2) = (   0.1187000   0.0920405   0.0385728  )
         3           Se  tau(   3) = (   0.6445000   0.2761214   0.3836983  )
         4           Sn  tau(   4) = (   0.3813000   0.2761214   0.2337795  )
         5           Se  tau(   5) = (   0.3555000   0.0920405   0.0067151  )
         6           Sn  tau(   6) = (   0.6187000   0.0920405   0.1566338  )
         7           Se  tau(   7) = (   0.1445000   0.2761214   0.2019218  )
         8           Sn  tau(   8) = (   0.8813000   0.2761214   0.3518405  )

   Crystallographic axes

     site n.     atom                  positions (cryst. coord.)
         1           Se  tau(   1) = (  0.8555000  0.2500000  0.4828000  )
         2           Sn  tau(   2) = (  0.1187000  0.2500000  0.0988000  )
         3           Se  tau(   3) = (  0.6445000  0.7500000  0.9828000  )
         4           Sn  tau(   4) = (  0.3813000  0.7500000  0.5988000  )
         5           Se  tau(   5) = (  0.3555000  0.2500000  0.0172000  )
         6           Sn  tau(   6) = (  0.6187000  0.2500000  0.4012000  )
         7           Se  tau(   7) = (  0.1445000  0.7500000  0.5172000  )
         8           Sn  tau(   8) = (  0.8813000  0.7500000  0.9012000  )

     number of k points=    72
                       cart. coord. in units 2pi/alat
        k(    1) = (   0.1250000   0.1131749   0.1067245), wk =   0.0277778
        k(    2) = (   0.1250000   0.1131749   0.3201735), wk =   0.0277778
        k(    3) = (   0.1250000   0.1131749   0.5336224), wk =   0.0277778
        k(    4) = (   0.1250000   0.1131749   0.7470714), wk =   0.0277778
        k(    5) = (   0.1250000   0.1131749   0.9605204), wk =   0.0277778
        k(    6) = (   0.1250000   0.1131749   1.1739694), wk =   0.0277778
        k(    7) = (   0.1250000   0.3395246   0.1067245), wk =   0.0277778
        k(    8) = (   0.1250000   0.3395246   0.3201735), wk =   0.0277778
        k(    9) = (   0.1250000   0.3395246   0.5336224), wk =   0.0277778
        k(   10) = (   0.1250000   0.3395246   0.7470714), wk =   0.0277778
        k(   11) = (   0.1250000   0.3395246   0.9605204), wk =   0.0277778
        k(   12) = (   0.1250000   0.3395246   1.1739694), wk =   0.0277778
        k(   13) = (   0.1250000   0.5658743   0.1067245), wk =   0.0277778
        k(   14) = (   0.1250000   0.5658743   0.3201735), wk =   0.0277778
        k(   15) = (   0.1250000   0.5658743   0.5336224), wk =   0.0277778
        k(   16) = (   0.1250000   0.5658743   0.7470714), wk =   0.0277778
        k(   17) = (   0.1250000   0.5658743   0.9605204), wk =   0.0277778
        k(   18) = (   0.1250000   0.5658743   1.1739694), wk =   0.0277778
        k(   19) = (   0.1250000   0.7922241   0.1067245), wk =   0.0277778
        k(   20) = (   0.1250000   0.7922241   0.3201735), wk =   0.0277778
        k(   21) = (   0.1250000   0.7922241   0.5336224), wk =   0.0277778
        k(   22) = (   0.1250000   0.7922241   0.7470714), wk =   0.0277778
        k(   23) = (   0.1250000   0.7922241   0.9605204), wk =   0.0277778
        k(   24) = (   0.1250000   0.7922241   1.1739694), wk =   0.0277778
        k(   25) = (   0.1250000   1.0185738   0.1067245), wk =   0.0277778
        k(   26) = (   0.1250000   1.0185738   0.3201735), wk =   0.0277778
        k(   27) = (   0.1250000   1.0185738   0.5336224), wk =   0.0277778
        k(   28) = (   0.1250000   1.0185738   0.7470714), wk =   0.0277778
        k(   29) = (   0.1250000   1.0185738   0.9605204), wk =   0.0277778
        k(   30) = (   0.1250000   1.0185738   1.1739694), wk =   0.0277778
        k(   31) = (   0.1250000   1.2449236   0.1067245), wk =   0.0277778
        k(   32) = (   0.1250000   1.2449236   0.3201735), wk =   0.0277778
        k(   33) = (   0.1250000   1.2449236   0.5336224), wk =   0.0277778
        k(   34) = (   0.1250000   1.2449236   0.7470714), wk =   0.0277778
        k(   35) = (   0.1250000   1.2449236   0.9605204), wk =   0.0277778
        k(   36) = (   0.1250000   1.2449236   1.1739694), wk =   0.0277778
        k(   37) = (   0.3750000   0.1131749   0.1067245), wk =   0.0277778
        k(   38) = (   0.3750000   0.1131749   0.3201735), wk =   0.0277778
        k(   39) = (   0.3750000   0.1131749   0.5336224), wk =   0.0277778
        k(   40) = (   0.3750000   0.1131749   0.7470714), wk =   0.0277778
        k(   41) = (   0.3750000   0.1131749   0.9605204), wk =   0.0277778
        k(   42) = (   0.3750000   0.1131749   1.1739694), wk =   0.0277778
        k(   43) = (   0.3750000   0.3395246   0.1067245), wk =   0.0277778
        k(   44) = (   0.3750000   0.3395246   0.3201735), wk =   0.0277778
        k(   45) = (   0.3750000   0.3395246   0.5336224), wk =   0.0277778
        k(   46) = (   0.3750000   0.3395246   0.7470714), wk =   0.0277778
        k(   47) = (   0.3750000   0.3395246   0.9605204), wk =   0.0277778
        k(   48) = (   0.3750000   0.3395246   1.1739694), wk =   0.0277778
        k(   49) = (   0.3750000   0.5658743   0.1067245), wk =   0.0277778
        k(   50) = (   0.3750000   0.5658743   0.3201735), wk =   0.0277778
        k(   51) = (   0.3750000   0.5658743   0.5336224), wk =   0.0277778
        k(   52) = (   0.3750000   0.5658743   0.7470714), wk =   0.0277778
        k(   53) = (   0.3750000   0.5658743   0.9605204), wk =   0.0277778
        k(   54) = (   0.3750000   0.5658743   1.1739694), wk =   0.0277778
        k(   55) = (   0.3750000   0.7922241   0.1067245), wk =   0.0277778
        k(   56) = (   0.3750000   0.7922241   0.3201735), wk =   0.0277778
        k(   57) = (   0.3750000   0.7922241   0.5336224), wk =   0.0277778
        k(   58) = (   0.3750000   0.7922241   0.7470714), wk =   0.0277778
        k(   59) = (   0.3750000   0.7922241   0.9605204), wk =   0.0277778
        k(   60) = (   0.3750000   0.7922241   1.1739694), wk =   0.0277778
        k(   61) = (   0.3750000   1.0185738   0.1067245), wk =   0.0277778
        k(   62) = (   0.3750000   1.0185738   0.3201735), wk =   0.0277778
        k(   63) = (   0.3750000   1.0185738   0.5336224), wk =   0.0277778
        k(   64) = (   0.3750000   1.0185738   0.7470714), wk =   0.0277778
        k(   65) = (   0.3750000   1.0185738   0.9605204), wk =   0.0277778
        k(   66) = (   0.3750000   1.0185738   1.1739694), wk =   0.0277778
        k(   67) = (   0.3750000   1.2449236   0.1067245), wk =   0.0277778
        k(   68) = (   0.3750000   1.2449236   0.3201735), wk =   0.0277778
        k(   69) = (   0.3750000   1.2449236   0.5336224), wk =   0.0277778
        k(   70) = (   0.3750000   1.2449236   0.7470714), wk =   0.0277778
        k(   71) = (   0.3750000   1.2449236   0.9605204), wk =   0.0277778
        k(   72) = (   0.3750000   1.2449236   1.1739694), wk =   0.0277778

                       cryst. coord.
        k(    1) = (   0.1250000   0.0416667   0.0416667), wk =   0.0277778
        k(    2) = (   0.1250000   0.0416667   0.1250000), wk =   0.0277778
        k(    3) = (   0.1250000   0.0416667   0.2083333), wk =   0.0277778
        k(    4) = (   0.1250000   0.0416667   0.2916667), wk =   0.0277778
        k(    5) = (   0.1250000   0.0416667   0.3750000), wk =   0.0277778
        k(    6) = (   0.1250000   0.0416667   0.4583333), wk =   0.0277778
        k(    7) = (   0.1250000   0.1250000   0.0416667), wk =   0.0277778
        k(    8) = (   0.1250000   0.1250000   0.1250000), wk =   0.0277778
        k(    9) = (   0.1250000   0.1250000   0.2083333), wk =   0.0277778
        k(   10) = (   0.1250000   0.1250000   0.2916667), wk =   0.0277778
        k(   11) = (   0.1250000   0.1250000   0.3750000), wk =   0.0277778
        k(   12) = (   0.1250000   0.1250000   0.4583333), wk =   0.0277778
        k(   13) = (   0.1250000   0.2083333   0.0416667), wk =   0.0277778
        k(   14) = (   0.1250000   0.2083333   0.1250000), wk =   0.0277778
        k(   15) = (   0.1250000   0.2083333   0.2083333), wk =   0.0277778
        k(   16) = (   0.1250000   0.2083333   0.2916667), wk =   0.0277778
        k(   17) = (   0.1250000   0.2083333   0.3750000), wk =   0.0277778
        k(   18) = (   0.1250000   0.2083333   0.4583333), wk =   0.0277778
        k(   19) = (   0.1250000   0.2916667   0.0416667), wk =   0.0277778
        k(   20) = (   0.1250000   0.2916667   0.1250000), wk =   0.0277778
        k(   21) = (   0.1250000   0.2916667   0.2083333), wk =   0.0277778
        k(   22) = (   0.1250000   0.2916667   0.2916667), wk =   0.0277778
        k(   23) = (   0.1250000   0.2916667   0.3750000), wk =   0.0277778
        k(   24) = (   0.1250000   0.2916667   0.4583333), wk =   0.0277778
        k(   25) = (   0.1250000   0.3750000   0.0416667), wk =   0.0277778
        k(   26) = (   0.1250000   0.3750000   0.1250000), wk =   0.0277778
        k(   27) = (   0.1250000   0.3750000   0.2083333), wk =   0.0277778
        k(   28) = (   0.1250000   0.3750000   0.2916667), wk =   0.0277778
        k(   29) = (   0.1250000   0.3750000   0.3750000), wk =   0.0277778
        k(   30) = (   0.1250000   0.3750000   0.4583333), wk =   0.0277778
        k(   31) = (   0.1250000   0.4583333   0.0416667), wk =   0.0277778
        k(   32) = (   0.1250000   0.4583333   0.1250000), wk =   0.0277778
        k(   33) = (   0.1250000   0.4583333   0.2083333), wk =   0.0277778
        k(   34) = (   0.1250000   0.4583333   0.2916667), wk =   0.0277778
        k(   35) = (   0.1250000   0.4583333   0.3750000), wk =   0.0277778
        k(   36) = (   0.1250000   0.4583333   0.4583333), wk =   0.0277778
        k(   37) = (   0.3750000   0.0416667   0.0416667), wk =   0.0277778
        k(   38) = (   0.3750000   0.0416667   0.1250000), wk =   0.0277778
        k(   39) = (   0.3750000   0.0416667   0.2083333), wk =   0.0277778
        k(   40) = (   0.3750000   0.0416667   0.2916667), wk =   0.0277778
        k(   41) = (   0.3750000   0.0416667   0.3750000), wk =   0.0277778
        k(   42) = (   0.3750000   0.0416667   0.4583333), wk =   0.0277778
        k(   43) = (   0.3750000   0.1250000   0.0416667), wk =   0.0277778
        k(   44) = (   0.3750000   0.1250000   0.1250000), wk =   0.0277778
        k(   45) = (   0.3750000   0.1250000   0.2083333), wk =   0.0277778
        k(   46) = (   0.3750000   0.1250000   0.2916667), wk =   0.0277778
        k(   47) = (   0.3750000   0.1250000   0.3750000), wk =   0.0277778
        k(   48) = (   0.3750000   0.1250000   0.4583333), wk =   0.0277778
        k(   49) = (   0.3750000   0.2083333   0.0416667), wk =   0.0277778
        k(   50) = (   0.3750000   0.2083333   0.1250000), wk =   0.0277778
        k(   51) = (   0.3750000   0.2083333   0.2083333), wk =   0.0277778
        k(   52) = (   0.3750000   0.2083333   0.2916667), wk =   0.0277778
        k(   53) = (   0.3750000   0.2083333   0.3750000), wk =   0.0277778
        k(   54) = (   0.3750000   0.2083333   0.4583333), wk =   0.0277778
        k(   55) = (   0.3750000   0.2916667   0.0416667), wk =   0.0277778
        k(   56) = (   0.3750000   0.2916667   0.1250000), wk =   0.0277778
        k(   57) = (   0.3750000   0.2916667   0.2083333), wk =   0.0277778
        k(   58) = (   0.3750000   0.2916667   0.2916667), wk =   0.0277778
        k(   59) = (   0.3750000   0.2916667   0.3750000), wk =   0.0277778
        k(   60) = (   0.3750000   0.2916667   0.4583333), wk =   0.0277778
        k(   61) = (   0.3750000   0.3750000   0.0416667), wk =   0.0277778
        k(   62) = (   0.3750000   0.3750000   0.1250000), wk =   0.0277778
        k(   63) = (   0.3750000   0.3750000   0.2083333), wk =   0.0277778
        k(   64) = (   0.3750000   0.3750000   0.2916667), wk =   0.0277778
        k(   65) = (   0.3750000   0.3750000   0.3750000), wk =   0.0277778
        k(   66) = (   0.3750000   0.3750000   0.4583333), wk =   0.0277778
        k(   67) = (   0.3750000   0.4583333   0.0416667), wk =   0.0277778
        k(   68) = (   0.3750000   0.4583333   0.1250000), wk =   0.0277778
        k(   69) = (   0.3750000   0.4583333   0.2083333), wk =   0.0277778
        k(   70) = (   0.3750000   0.4583333   0.2916667), wk =   0.0277778
        k(   71) = (   0.3750000   0.4583333   0.3750000), wk =   0.0277778
        k(   72) = (   0.3750000   0.4583333   0.4583333), wk =   0.0277778

     Dense  grid:   269075 G-vectors     FFT dimensions: ( 160,  60,  60)

     Smooth grid:    68055 G-vectors     FFT dimensions: ( 100,  36,  40)

     Dynamical RAM for                 wfc:       6.49 MB

     Dynamical RAM for     wfc (w. buffer):      84.42 MB

     Dynamical RAM for           str. fact:       8.21 MB

     Dynamical RAM for           local pot:       0.00 MB

     Dynamical RAM for          nlocal pot:      18.70 MB

     Dynamical RAM for                qrad:       3.59 MB

     Dynamical RAM for          rho,v,vnew:      25.50 MB

     Dynamical RAM for               rhoin:       8.50 MB

     Dynamical RAM for            rho*nmix:      65.69 MB

     Dynamical RAM for           G-vectors:      15.92 MB

     Dynamical RAM for          h,s,v(r/c):       0.46 MB

     Dynamical RAM for          <psi|beta>:       0.11 MB

     Dynamical RAM for                 psi:      12.99 MB

     Dynamical RAM for                hpsi:      12.99 MB

     Dynamical RAM for                spsi:      12.99 MB

     Dynamical RAM for      wfcinit/wfcrot:      13.57 MB

     Dynamical RAM for           addusdens:     133.43 MB

     Dynamical RAM for          addusforce:     136.19 MB

     Estimated static dynamical RAM per process >     264.83 MB

     Estimated max dynamical RAM per process >     401.01 MB

     Estimated total dynamical RAM >       2.35 GB

     Initial potential from superposition of free atoms

     starting charge   75.99954, renormalised to   80.00000
     Starting wfcs are   52 randomized atomic wfcs

     total cpu time spent up to now is       16.7 secs

     Self-consistent Calculation

     iteration #  1     ecut=    50.00 Ry     beta= 0.70
     Davidson diagonalization with overlap
     ethr =  1.00E-02,  avg # of iterations =  4.0

     total cpu time spent up to now is       64.2 secs

     total energy              =    -826.55266138 Ry
     estimated scf accuracy    <       2.63076249 Ry

     iteration #  2     ecut=    50.00 Ry     beta= 0.70
     Davidson diagonalization with overlap
     ethr =  3.29E-03,  avg # of iterations =  2.0

     total cpu time spent up to now is      105.7 secs

     total energy              =    -827.33918189 Ry
     estimated scf accuracy    <       1.08760983 Ry

     iteration #  3     ecut=    50.00 Ry     beta= 0.70
     Davidson diagonalization with overlap
     ethr =  1.36E-03,  avg # of iterations =  2.0

     total cpu time spent up to now is      144.3 secs

     total energy              =    -827.60930951 Ry
     estimated scf accuracy    <       0.06099057 Ry

     iteration #  4     ecut=    50.00 Ry     beta= 0.70
     Davidson diagonalization with overlap
     ethr =  7.62E-05,  avg # of iterations =  3.2

     total cpu time spent up to now is      185.4 secs

     total energy              =    -827.62041624 Ry
     estimated scf accuracy    <       0.00293316 Ry

     iteration #  5     ecut=    50.00 Ry     beta= 0.70
     Davidson diagonalization with overlap
     ethr =  3.67E-06,  avg # of iterations =  6.8

     total cpu time spent up to now is      240.0 secs

     total energy              =    -827.62106855 Ry
     estimated scf accuracy    <       0.00080925 Ry

     iteration #  6     ecut=    50.00 Ry     beta= 0.70
     Davidson diagonalization with overlap
     ethr =  1.01E-06,  avg # of iterations =  2.1

     total cpu time spent up to now is      280.0 secs

     total energy              =    -827.62124352 Ry
     estimated scf accuracy    <       0.00004463 Ry

     iteration #  7     ecut=    50.00 Ry     beta= 0.70
     Davidson diagonalization with overlap
     ethr =  5.58E-08,  avg # of iterations =  5.0

     total cpu time spent up to now is      335.0 secs

     total energy              =    -827.62127105 Ry
     estimated scf accuracy    <       0.00000259 Ry

     iteration #  8     ecut=    50.00 Ry     beta= 0.70
     Davidson diagonalization with overlap
     ethr =  3.24E-09,  avg # of iterations =  3.7

     total cpu time spent up to now is      383.7 secs

     total energy              =    -827.62127215 Ry
     estimated scf accuracy    <       0.00000043 Ry

     iteration #  9     ecut=    50.00 Ry     beta= 0.70
     Davidson diagonalization with overlap
     ethr =  5.40E-10,  avg # of iterations =  3.1

     total cpu time spent up to now is      431.7 secs

     End of self-consistent calculation

          k = 0.1250 0.1132 0.1067 (  8492 PWs)   bands (ev):

   -13.2654 -13.2549 -13.2516 -13.2495 -13.2492 -13.2461 -13.2425 -13.2384
   -13.2348 -13.2323 -13.2320 -13.2261 -13.2175 -13.2114 -13.1966 -13.1926
   -13.1869 -13.1842 -13.1751 -13.1668  -5.7228  -5.4051  -4.6306  -4.1797
     0.7908   1.7701   2.6267   2.9737   3.2601   4.6382   4.6837   4.8761
     5.1607   5.3505   5.8768   6.2898   6.5119   6.8619   7.3887   7.5700
     9.1208  10.8206  11.0376  11.1903  11.3097  11.4592  12.2044  12.4069
    12.7499  12.8929

     occupation numbers 
     1.0000   1.0000   1.0000   1.0000   1.0000   1.0000   1.0000   1.0000
     1.0000   1.0000   1.0000   1.0000   1.0000   1.0000   1.0000   1.0000
     1.0000   1.0000   1.0000   1.0000   1.0000   1.0000   1.0000   1.0000
     1.0000   1.0000   1.0000   1.0000   1.0000   1.0000   1.0000   1.0000
     1.0000   1.0000   1.0000   1.0000   1.0000   1.0000   1.0000   1.0000
     0.0000   0.0000   0.0000   0.0000   0.0000   0.0000   0.0000   0.0000
     0.0000   0.0000

          k = 0.1250 0.1132 0.3202 (  8494 PWs)   bands (ev):

   -13.2646 -13.2543 -13.2515 -13.2502 -13.2487 -13.2469 -13.2429 -13.2391
   -13.2343 -13.2312 -13.2303 -13.2262 -13.2172 -13.2117 -13.1967 -13.1923
   -13.1875 -13.1846 -13.1748 -13.1670  -5.6635  -5.3506  -4.6232  -4.1937
     0.6021   1.6381   2.3021   2.7844   3.2650   4.6376   4.7416   5.1655
     5.3293   5.6761   5.8856   6.3517   6.5826   7.1451   7.2440   7.5893
     9.1612  10.3926  10.8757  11.0923  11.1981  11.3866  11.9116  12.3894
    12.4721  12.8938

     occupation numbers 
     1.0000   1.0000   1.0000   1.0000   1.0000   1.0000   1.0000   1.0000
     1.0000   1.0000   1.0000   1.0000   1.0000   1.0000   1.0000   1.0000
     1.0000   1.0000   1.0000   1.0000   1.0000   1.0000   1.0000   1.0000
     1.0000   1.0000   1.0000   1.0000   1.0000   1.0000   1.0000   1.0000
     1.0000   1.0000   1.0000   1.0000   1.0000   1.0000   1.0000   1.0000
     0.0000   0.0000   0.0000   0.0000   0.0000   0.0000   0.0000   0.0000
     0.0000   0.0000

          k = 0.1250 0.1132 0.5336 (  8493 PWs)   bands (ev):

   -13.2632 -13.2534 -13.2515 -13.2511 -13.2484 -13.2480 -13.2436 -13.2403
   -13.2334 -13.2291 -13.2276 -13.2265 -13.2167 -13.2124 -13.1967 -13.1917
   -13.1884 -13.1853 -13.1742 -13.1676  -5.5495  -5.2458  -4.6193  -4.2284
     0.3302   1.3841   1.8249   2.4925   3.3690   4.7523   4.8860   5.4551
     5.6344   5.9286   6.0281   6.4460   6.8410   7.0699   7.4488   7.6355
     9.2961   9.8354  10.2087  10.8324  10.9021  11.4064  11.5817  11.9170
    12.5300  12.8579

     occupation numbers 
     1.0000   1.0000   1.0000   1.0000   1.0000   1.0000   1.0000   1.0000
     1.0000   1.0000   1.0000   1.0000   1.0000   1.0000   1.0000   1.0000
     1.0000   1.0000   1.0000   1.0000   1.0000   1.0000   1.0000   1.0000
     1.0000   1.0000   1.0000   1.0000   1.0000   1.0000   1.0000   1.0000
     1.0000   1.0000   1.0000   1.0000   1.0000   1.0000   1.0000   1.0000
     0.0000   0.0000   0.0000   0.0000   0.0000   0.0000   0.0000   0.0000
     0.0000   0.0000

          k = 0.1250 0.1132 0.7471 (  8505 PWs)   bands (ev):

   -13.2613 -13.2532 -13.2525 -13.2510 -13.2499 -13.2474 -13.2443 -13.2417
   -13.2322 -13.2270 -13.2260 -13.2244 -13.2164 -13.2133 -13.1963 -13.1911
   -13.1894 -13.1861 -13.1734 -13.1683  -5.3908  -5.1001  -4.6385  -4.2945
     0.0908   0.9958   1.4804   2.1298   3.5904   4.9375   5.0667   5.6709
     5.9249   6.0538   6.2711   6.4787   6.9123   7.3370   7.4630   7.9203
     9.2458   9.6207   9.6524  10.3072  10.3601  11.0353  11.2997  11.4501
    12.3564  12.4205

     occupation numbers 
     1.0000   1.0000   1.0000   1.0000   1.0000   1.0000   1.0000   1.0000
     1.0000   1.0000   1.0000   1.0000   1.0000   1.0000   1.0000   1.0000
     1.0000   1.0000   1.0000   1.0000   1.0000   1.0000   1.0000   1.0000
     1.0000   1.0000   1.0000   1.0000   1.0000   1.0000   1.0000   1.0000
     1.0000   1.0000   1.0000   1.0000   1.0000   1.0000   1.0000   1.0000
     0.0000   0.0000   0.0000   0.0000   0.0000   0.0000   0.0000   0.0000
     0.0000   0.0000

          k = 0.1250 0.1132 0.9605 (  8500 PWs)   bands (ev):

   -13.2592 -13.2542 -13.2531 -13.2522 -13.2493 -13.2472 -13.2447 -13.2431
   -13.2309 -13.2277 -13.2226 -13.2214 -13.2166 -13.2146 -13.1955 -13.1915
   -13.1895 -13.1870 -13.1724 -13.1693  -5.2041  -4.9317  -4.6975  -4.4006
    -0.0326   0.5617   1.3368   1.7815   3.8996   4.9319   5.3392   5.7870
     6.0932   6.2080   6.4037   6.5444   7.0247   7.4031   7.7564   7.9896
     9.0729   9.2739   9.7692   9.8777  10.0165  10.5312  10.8589  11.1160
    11.7956  11.9240

     occupation numbers 
     1.0000   1.0000   1.0000   1.0000   1.0000   1.0000   1.0000   1.0000
     1.0000   1.0000   1.0000   1.0000   1.0000   1.0000   1.0000   1.0000
     1.0000   1.0000   1.0000   1.0000   1.0000   1.0000   1.0000   1.0000
     1.0000   1.0000   1.0000   1.0000   1.0000   1.0000   1.0000   1.0000
     1.0000   1.0000   1.0000   1.0000   1.0000   1.0000   1.0000   1.0000
     0.0000   0.0000   0.0000   0.0000   0.0000   0.0000   0.0000   0.0000
     0.0000   0.0000

          k = 0.1250 0.1132 1.1740 (  8484 PWs)   bands (ev):

   -13.2571 -13.2554 -13.2535 -13.2532 -13.2483 -13.2475 -13.2447 -13.2442
   -13.2297 -13.2286 -13.2196 -13.2188 -13.2176 -13.2165 -13.1943 -13.1929
   -13.1887 -13.1879 -13.1714 -13.1703  -5.0140  -4.8616  -4.7039  -4.5451
     0.0054   0.2118   1.3521   1.5087   4.2675   4.6477   5.6642   5.9020
     6.0572   6.2417   6.4594   6.6236   7.2468   7.5218   7.7345   7.8778
     9.1053   9.2735   9.4653   9.8690   9.9082  10.2365  10.6605  11.0005
    11.3385  11.4864

     occupation numbers 
     1.0000   1.0000   1.0000   1.0000   1.0000   1.0000   1.0000   1.0000
     1.0000   1.0000   1.0000   1.0000   1.0000   1.0000   1.0000   1.0000
     1.0000   1.0000   1.0000   1.0000   1.0000   1.0000   1.0000   1.0000
     1.0000   1.0000   1.0000   1.0000   1.0000   1.0000   1.0000   1.0000
     1.0000   1.0000   1.0000   1.0000   1.0000   1.0000   1.0000   1.0000
     0.0000   0.0000   0.0000   0.0000   0.0000   0.0000   0.0000   0.0000
     0.0000   0.0000

          k = 0.1250 0.3395 0.1067 (  8502 PWs)   bands (ev):

   -13.2623 -13.2534 -13.2507 -13.2493 -13.2480 -13.2478 -13.2445 -13.2400
   -13.2361 -13.2306 -13.2296 -13.2281 -13.2156 -13.2118 -13.1952 -13.1933
   -13.1861 -13.1858 -13.1752 -13.1679  -5.6485  -5.3410  -4.5998  -4.1821
     0.6936   1.6018   2.4864   2.6192   3.2696   4.5420   4.7609   5.0375
     5.2575   5.4171   5.9664   6.3528   6.5156   7.1019   7.4091   7.5224
     9.2322  10.3327  10.9951  11.1430  11.2916  11.3599  11.8329  12.2691
    12.5301  12.9512

     occupation numbers 
     1.0000   1.0000   1.0000   1.0000   1.0000   1.0000   1.0000   1.0000
     1.0000   1.0000   1.0000   1.0000   1.0000   1.0000   1.0000   1.0000
     1.0000   1.0000   1.0000   1.0000   1.0000   1.0000   1.0000   1.0000
     1.0000   1.0000   1.0000   1.0000   1.0000   1.0000   1.0000   1.0000
     1.0000   1.0000   1.0000   1.0000   1.0000   1.0000   1.0000   1.0000
     0.0000   0.0000   0.0000   0.0000   0.0000   0.0000   0.0000   0.0000
     0.0000   0.0000

          k = 0.1250 0.3395 0.3202 (  8508 PWs)   bands (ev):

   -13.2618 -13.2530 -13.2515 -13.2492 -13.2484 -13.2473 -13.2450 -13.2411
   -13.2357 -13.2293 -13.2283 -13.2281 -13.2156 -13.2119 -13.1954 -13.1928
   -13.1866 -13.1861 -13.1749 -13.1681  -5.5903  -5.2877  -4.5921  -4.1938
     0.5564   1.5351   2.1944   2.5358   3.3112   4.3380   4.5369   5.3283
     5.5325   5.7251   5.8140   6.3121   6.8046   7.2500   7.4080   7.5769
     9.2698   9.9647  10.5136  10.8631  11.1419  11.4652  11.8473  12.1469
    12.4911  12.9378

     occupation numbers 
     1.0000   1.0000   1.0000   1.0000   1.0000   1.0000   1.0000   1.0000
     1.0000   1.0000   1.0000   1.0000   1.0000   1.0000   1.0000   1.0000
     1.0000   1.0000   1.0000   1.0000   1.0000   1.0000   1.0000   1.0000
     1.0000   1.0000   1.0000   1.0000   1.0000   1.0000   1.0000   1.0000
     1.0000   1.0000   1.0000   1.0000   1.0000   1.0000   1.0000   1.0000
     0.0000   0.0000   0.0000   0.0000   0.0000   0.0000   0.0000   0.0000
     0.0000   0.0000

          k = 0.1250 0.3395 0.5336 (  8505 PWs)   bands (ev):

   -13.2609 -13.2529 -13.2527 -13.2492 -13.2486 -13.2469 -13.2455 -13.2427
   -13.2348 -13.2284 -13.2267 -13.2259 -13.2156 -13.2121 -13.1954 -13.1922
   -13.1876 -13.1867 -13.1744 -13.1685  -5.4786  -5.1855  -4.5872  -4.2238
     0.3461   1.3714   1.7875   2.3411   3.4439   4.2571   4.4548   5.5221
     5.5909   5.9290   6.1312   6.3092   7.0886   7.1883   7.5213   7.6672
     9.3653   9.6812  10.0125  10.2347  11.1257  11.2742  11.7650  11.9472
    12.5416  12.7853

     occupation numbers 
     1.0000   1.0000   1.0000   1.0000   1.0000   1.0000   1.0000   1.0000
     1.0000   1.0000   1.0000   1.0000   1.0000   1.0000   1.0000   1.0000
     1.0000   1.0000   1.0000   1.0000   1.0000   1.0000   1.0000   1.0000
     1.0000   1.0000   1.0000   1.0000   1.0000   1.0000   1.0000   1.0000
     1.0000   1.0000   1.0000   1.0000   1.0000   1.0000   1.0000   1.0000
     0.0000   0.0000   0.0000   0.0000   0.0000   0.0000   0.0000   0.0000
     0.0000   0.0000

          k = 0.1250 0.3395 0.7471 (  8503 PWs)   bands (ev):

   -13.2599 -13.2545 -13.2527 -13.2498 -13.2479 -13.2473 -13.2453 -13.2444
   -13.2336 -13.2287 -13.2239 -13.2229 -13.2157 -13.2125 -13.1950 -13.1914
   -13.1888 -13.1874 -13.1736 -13.1691  -5.3237  -5.0440  -4.6039  -4.2828
     0.1522   1.0419   1.5018   2.0716   3.6650   4.3403   4.5182   5.4807
     5.7612   5.9788   6.2020   6.5304   7.1177   7.3041   7.5504   7.6709
     9.4766   9.5968   9.6721   9.9072  10.7969  10.9916  11.3321  11.9841
    12.6210  12.6624

     occupation numbers 
     1.0000   1.0000   1.0000   1.0000   1.0000   1.0000   1.0000   1.0000
     1.0000   1.0000   1.0000   1.0000   1.0000   1.0000   1.0000   1.0000
     1.0000   1.0000   1.0000   1.0000   1.0000   1.0000   1.0000   1.0000
     1.0000   1.0000   1.0000   1.0000   1.0000   1.0000   1.0000   1.0000
     1.0000   1.0000   1.0000   1.0000   1.0000   1.0000   1.0000   1.0000
     0.0000   0.0000   0.0000   0.0000   0.0000   0.0000   0.0000   0.0000
     0.0000   0.0000

          k = 0.1250 0.3395 0.9605 (  8500 PWs)   bands (ev):

   -13.2589 -13.2561 -13.2527 -13.2506 -13.2479 -13.2472 -13.2459 -13.2449
   -13.2323 -13.2293 -13.2211 -13.2199 -13.2161 -13.2134 -13.1942 -13.1907
   -13.1901 -13.1882 -13.1727 -13.1699  -5.1424  -4.8814  -4.6585  -4.3797
     0.0538   0.6357   1.3939   1.7890   3.9551   4.5185   4.6868   5.4329
     5.7385   5.7924   6.2463   6.6577   7.1740   7.3667   7.5524   7.6709
     9.2657   9.5458   9.6602   9.9177  10.5983  10.8807  11.0835  11.6830
    12.2854  12.4849

     occupation numbers 
     1.0000   1.0000   1.0000   1.0000   1.0000   1.0000   1.0000   1.0000
     1.0000   1.0000   1.0000   1.0000   1.0000   1.0000   1.0000   1.0000
     1.0000   1.0000   1.0000   1.0000   1.0000   1.0000   1.0000   1.0000
     1.0000   1.0000   1.0000   1.0000   1.0000   1.0000   1.0000   1.0000
     1.0000   1.0000   1.0000   1.0000   1.0000   1.0000   1.0000   1.0000
     0.0000   0.0000   0.0000   0.0000   0.0000   0.0000   0.0000   0.0000
     0.0000   0.0000

          k = 0.1250 0.3395 1.1740 (  8495 PWs)   bands (ev):

   -13.2581 -13.2573 -13.2523 -13.2514 -13.2481 -13.2476 -13.2456 -13.2451
   -13.2312 -13.2302 -13.2188 -13.2174 -13.2168 -13.2149 -13.1930 -13.1917
   -13.1897 -13.1889 -13.1717 -13.1708  -4.9591  -4.8136  -4.6640  -4.5142
     0.0998   0.3014   1.4154   1.5551   4.2768   4.5272   4.9846   5.3005
     5.5556   5.6287   6.3825   6.5569   7.2629   7.4494   7.5522   7.6451
     9.2466   9.3713   9.6547   9.8436  10.6656  10.9157  11.2244  11.3837
    11.9503  12.1151

     occupation numbers 
     1.0000   1.0000   1.0000   1.0000   1.0000   1.0000   1.0000   1.0000
     1.0000   1.0000   1.0000   1.0000   1.0000   1.0000   1.0000   1.0000
     1.0000   1.0000   1.0000   1.0000   1.0000   1.0000   1.0000   1.0000
     1.0000   1.0000   1.0000   1.0000   1.0000   1.0000   1.0000   1.0000
     1.0000   1.0000   1.0000   1.0000   1.0000   1.0000   1.0000   1.0000
     0.0000   0.0000   0.0000   0.0000   0.0000   0.0000   0.0000   0.0000
     0.0000   0.0000

          k = 0.1250 0.5659 0.1067 (  8520 PWs)   bands (ev):

   -13.2574 -13.2536 -13.2525 -13.2491 -13.2478 -13.2455 -13.2446 -13.2426
   -13.2368 -13.2305 -13.2288 -13.2262 -13.2135 -13.2125 -13.1949 -13.1927
   -13.1889 -13.1844 -13.1753 -13.1697  -5.5050  -5.2193  -4.5507  -4.2005
     0.5275   1.3303   2.0382   2.2295   3.3866   4.5683   4.8970   5.1780
     5.4295   5.5545   6.1013   6.3959   6.6057   7.2969   7.3901   7.6090
     9.3581   9.5638  10.4728  10.7565  10.9569  11.4255  11.6094  11.9777
    12.6082  12.8540

     occupation numbers 
     1.0000   1.0000   1.0000   1.0000   1.0000   1.0000   1.0000   1.0000
     1.0000   1.0000   1.0000   1.0000   1.0000   1.0000   1.0000   1.0000
     1.0000   1.0000   1.0000   1.0000   1.0000   1.0000   1.0000   1.0000
     1.0000   1.0000   1.0000   1.0000   1.0000   1.0000   1.0000   1.0000
     1.0000   1.0000   1.0000   1.0000   1.0000   1.0000   1.0000   1.0000
     0.0000   0.0000   0.0000   0.0000   0.0000   0.0000   0.0000   0.0000
     0.0000   0.0000

          k = 0.1250 0.5659 0.3202 (  8517 PWs)   bands (ev):

   -13.2581 -13.2537 -13.2531 -13.2494 -13.2476 -13.2449 -13.2447 -13.2433
   -13.2362 -13.2305 -13.2276 -13.2250 -13.2142 -13.2118 -13.1948 -13.1925
   -13.1891 -13.1849 -13.1750 -13.1698  -5.4491  -5.1686  -4.5420  -4.2072
     0.4683   1.3415   1.9353   2.1348   3.4542   4.1551   4.4401   5.2741
     5.6376   5.8771   5.9736   6.3126   6.9515   7.2674   7.4565   7.6291
     9.3460   9.5897  10.0025  10.2780  11.1477  11.2779  11.8995  12.0253
    12.6081  12.7569

     occupation numbers 
     1.0000   1.0000   1.0000   1.0000   1.0000   1.0000   1.0000   1.0000
     1.0000   1.0000   1.0000   1.0000   1.0000   1.0000   1.0000   1.0000
     1.0000   1.0000   1.0000   1.0000   1.0000   1.0000   1.0000   1.0000
     1.0000   1.0000   1.0000   1.0000   1.0000   1.0000   1.0000   1.0000
     1.0000   1.0000   1.0000   1.0000   1.0000   1.0000   1.0000   1.0000
     0.0000   0.0000   0.0000   0.0000   0.0000   0.0000   0.0000   0.0000
     0.0000   0.0000

          k = 0.1250 0.5659 0.5336 (  8521 PWs)   bands (ev):

   -13.2592 -13.2553 -13.2530 -13.2503 -13.2469 -13.2456 -13.2441 -13.2437
   -13.2353 -13.2306 -13.2254 -13.2229 -13.2148 -13.2114 -13.1946 -13.1923
   -13.1895 -13.1857 -13.1745 -13.1701  -5.3424  -5.0720  -4.5345  -4.2272
     0.3665   1.3186   1.6852   2.0427   3.5912   3.8799   4.1376   5.1950
     5.3502   6.0905   6.1898   6.4327   7.0537   7.1619   7.4023   7.5918
     9.3892   9.6238   9.8272  10.2302  10.8617  11.2677  11.6739  12.2902
    12.7821  12.9178

     occupation numbers 
     1.0000   1.0000   1.0000   1.0000   1.0000   1.0000   1.0000   1.0000
     1.0000   1.0000   1.0000   1.0000   1.0000   1.0000   1.0000   1.0000
     1.0000   1.0000   1.0000   1.0000   1.0000   1.0000   1.0000   1.0000
     1.0000   1.0000   1.0000   1.0000   1.0000   1.0000   1.0000   1.0000
     1.0000   1.0000   1.0000   1.0000   1.0000   1.0000   1.0000   1.0000
     0.0000   0.0000   0.0000   0.0000   0.0000   0.0000   0.0000   0.0000
     0.0000   0.0000

          k = 0.1250 0.5659 0.7471 (  8523 PWs)   bands (ev):

   -13.2604 -13.2574 -13.2531 -13.2514 -13.2473 -13.2453 -13.2442 -13.2430
   -13.2343 -13.2308 -13.2228 -13.2202 -13.2151 -13.2114 -13.1941 -13.1918
   -13.1900 -13.1867 -13.1739 -13.1704  -5.1957  -4.9395  -4.5454  -4.2712
     0.2637   1.1136   1.5123   1.9243   3.7446   3.8272   4.0578   5.1015
     5.1682   6.0256   6.0368   6.5888   6.7968   7.0646   7.3534   7.5987
     9.2329   9.6065  10.2237  10.5864  10.8462  11.1042  11.5470  12.4635
    12.8596  13.1240

     occupation numbers 
     1.0000   1.0000   1.0000   1.0000   1.0000   1.0000   1.0000   1.0000
     1.0000   1.0000   1.0000   1.0000   1.0000   1.0000   1.0000   1.0000
     1.0000   1.0000   1.0000   1.0000   1.0000   1.0000   1.0000   1.0000
     1.0000   1.0000   1.0000   1.0000   1.0000   1.0000   1.0000   1.0000
     1.0000   1.0000   1.0000   1.0000   1.0000   1.0000   1.0000   1.0000
     0.0000   0.0000   0.0000   0.0000   0.0000   0.0000   0.0000   0.0000
     0.0000   0.0000

          k = 0.1250 0.5659 0.9605 (  8504 PWs)   bands (ev):

   -13.2613 -13.2594 -13.2535 -13.2525 -13.2474 -13.2452 -13.2439 -13.2426
   -13.2332 -13.2311 -13.2202 -13.2177 -13.2153 -13.2120 -13.1934 -13.1914
   -13.1903 -13.1877 -13.1731 -13.1709  -5.0260  -4.7894  -4.5903  -4.3488
     0.2194   0.7717   1.4837   1.7726   3.8699   3.9973   4.1894   4.9397
     5.0583   5.6866   5.8956   6.4570   6.6428   7.0225   7.2492   7.5760
     9.1616   9.8894  10.2426  10.7776  11.1609  11.3674  11.5795  12.3491
    12.8446  13.0698

     occupation numbers 
     1.0000   1.0000   1.0000   1.0000   1.0000   1.0000   1.0000   1.0000
     1.0000   1.0000   1.0000   1.0000   1.0000   1.0000   1.0000   1.0000
     1.0000   1.0000   1.0000   1.0000   1.0000   1.0000   1.0000   1.0000
     1.0000   1.0000   1.0000   1.0000   1.0000   1.0000   1.0000   1.0000
     1.0000   1.0000   1.0000   1.0000   1.0000   1.0000   1.0000   1.0000
     0.0000   0.0000   0.0000   0.0000   0.0000   0.0000   0.0000   0.0000
     0.0000   0.0000

          k = 0.1250 0.5659 1.1740 (  8502 PWs)   bands (ev):

   -13.2615 -13.2609 -13.2538 -13.2534 -13.2467 -13.2458 -13.2431 -13.2426
   -13.2323 -13.2316 -13.2181 -13.2168 -13.2147 -13.2131 -13.1925 -13.1918
   -13.1897 -13.1888 -13.1723 -13.1716  -4.8574  -4.7264  -4.5936  -4.4623
     0.2831   0.4734   1.5217   1.6243   4.0978   4.1686   4.3670   4.6215
     5.0638   5.3087   5.9421   6.1790   6.7116   6.9011   7.2647   7.4371
     9.3657   9.7733  10.3569  10.8190  11.3528  11.5651  12.0895  12.2165
    12.5765  12.7619

     occupation numbers 
     1.0000   1.0000   1.0000   1.0000   1.0000   1.0000   1.0000   1.0000
     1.0000   1.0000   1.0000   1.0000   1.0000   1.0000   1.0000   1.0000
     1.0000   1.0000   1.0000   1.0000   1.0000   1.0000   1.0000   1.0000
     1.0000   1.0000   1.0000   1.0000   1.0000   1.0000   1.0000   1.0000
     1.0000   1.0000   1.0000   1.0000   1.0000   1.0000   1.0000   1.0000
     0.0000   0.0000   0.0000   0.0000   0.0000   0.0000   0.0000   0.0000
     0.0000   0.0000

          k = 0.1250 0.7922 0.1067 (  8526 PWs)   bands (ev):

   -13.2567 -13.2549 -13.2528 -13.2523 -13.2453 -13.2439 -13.2430 -13.2399
   -13.2362 -13.2324 -13.2275 -13.2223 -13.2146 -13.2106 -13.1973 -13.1943
   -13.1887 -13.1822 -13.1752 -13.1720  -5.3028  -5.0540  -4.5079  -4.2581
     0.3537   1.0719   1.4490   1.8514   3.6242   4.7184   5.0559   5.3892
     5.5776   5.7246   6.2592   6.3827   6.7486   7.2741   7.2891   7.8715
     8.8417   9.6570   9.8591  10.1457  10.5311  10.9509  11.1172  11.5856
    12.3636  12.5465

     occupation numbers 
     1.0000   1.0000   1.0000   1.0000   1.0000   1.0000   1.0000   1.0000
     1.0000   1.0000   1.0000   1.0000   1.0000   1.0000   1.0000   1.0000
     1.0000   1.0000   1.0000   1.0000   1.0000   1.0000   1.0000   1.0000
     1.0000   1.0000   1.0000   1.0000   1.0000   1.0000   1.0000   1.0000
     1.0000   1.0000   1.0000   1.0000   1.0000   1.0000   1.0000   1.0000
     0.0000   0.0000   0.0000   0.0000   0.0000   0.0000   0.0000   0.0000
     0.0000   0.0000

          k = 0.1250 0.7922 0.3202 (  8519 PWs)   bands (ev):

   -13.2586 -13.2559 -13.2538 -13.2524 -13.2454 -13.2433 -13.2424 -13.2397
   -13.2355 -13.2323 -13.2265 -13.2214 -13.2149 -13.2103 -13.1971 -13.1943
   -13.1887 -13.1827 -13.1750 -13.1719  -5.2511  -5.0077  -4.4969  -4.2568
     0.3663   1.1290   1.4675   1.7883   3.6908   4.1550   4.5061   5.2611
     5.7502   5.9602   6.0718   6.3339   6.9103   7.2356   7.3499   7.5412
     9.3027   9.5253   9.6509   9.8489  10.8897  11.0397  11.4798  11.8464
    12.5033  12.8261

     occupation numbers 
     1.0000   1.0000   1.0000   1.0000   1.0000   1.0000   1.0000   1.0000
     1.0000   1.0000   1.0000   1.0000   1.0000   1.0000   1.0000   1.0000
     1.0000   1.0000   1.0000   1.0000   1.0000   1.0000   1.0000   1.0000
     1.0000   1.0000   1.0000   1.0000   1.0000   1.0000   1.0000   1.0000
     1.0000   1.0000   1.0000   1.0000   1.0000   1.0000   1.0000   1.0000
     0.0000   0.0000   0.0000   0.0000   0.0000   0.0000   0.0000   0.0000
     0.0000   0.0000

          k = 0.1250 0.7922 0.5336 (  8518 PWs)   bands (ev):

   -13.2611 -13.2581 -13.2552 -13.2535 -13.2452 -13.2423 -13.2415 -13.2396
   -13.2345 -13.2321 -13.2247 -13.2198 -13.2151 -13.2101 -13.1966 -13.1942
   -13.1886 -13.1834 -13.1746 -13.1719  -5.1531  -4.9204  -4.4838  -4.2606
     0.3845   1.2133   1.4628   1.7018   3.6946   3.8077   4.0776   4.9454
     5.2921   5.9599   6.0455   6.5441   6.6450   6.9880   7.2417   7.4808
     9.2041   9.6124  10.1344  10.2808  10.7991  11.4650  11.6394  12.2880
    12.6614  12.9931

     occupation numbers 
     1.0000   1.0000   1.0000   1.0000   1.0000   1.0000   1.0000   1.0000
     1.0000   1.0000   1.0000   1.0000   1.0000   1.0000   1.0000   1.0000
     1.0000   1.0000   1.0000   1.0000   1.0000   1.0000   1.0000   1.0000
     1.0000   1.0000   1.0000   1.0000   1.0000   1.0000   1.0000   1.0000
     1.0000   1.0000   1.0000   1.0000   1.0000   1.0000   1.0000   1.0000
     0.0000   0.0000   0.0000   0.0000   0.0000   0.0000   0.0000   0.0000
     0.0000   0.0000

          k = 0.1250 0.7922 0.7471 (  8513 PWs)   bands (ev):

   -13.2634 -13.2608 -13.2567 -13.2553 -13.2446 -13.2413 -13.2406 -13.2395
   -13.2334 -13.2319 -13.2224 -13.2180 -13.2149 -13.2102 -13.1960 -13.1942
   -13.1883 -13.1842 -13.1740 -13.1719  -5.0202  -4.8027  -4.4840  -4.2806
     0.4057   1.1695   1.4625   1.6820   3.4387   3.7186   4.0534   4.6814
     4.9283   5.5696   5.8945   6.2528   6.4853   6.8296   6.9696   7.5090
     9.0493  10.0644  10.8696  11.0115  11.1530  11.2420  11.8458  12.6125
    12.8269  13.2651

     occupation numbers 
     1.0000   1.0000   1.0000   1.0000   1.0000   1.0000   1.0000   1.0000
     1.0000   1.0000   1.0000   1.0000   1.0000   1.0000   1.0000   1.0000
     1.0000   1.0000   1.0000   1.0000   1.0000   1.0000   1.0000   1.0000
     1.0000   1.0000   1.0000   1.0000   1.0000   1.0000   1.0000   1.0000
     1.0000   1.0000   1.0000   1.0000   1.0000   1.0000   1.0000   1.0000
     0.0000   0.0000   0.0000   0.0000   0.0000   0.0000   0.0000   0.0000
     0.0000   0.0000

          k = 0.1250 0.7922 0.9605 (  8503 PWs)   bands (ev):

   -13.2651 -13.2634 -13.2581 -13.2571 -13.2436 -13.2410 -13.2401 -13.2394
   -13.2325 -13.2318 -13.2202 -13.2170 -13.2140 -13.2107 -13.1954 -13.1942
   -13.1877 -13.1851 -13.1734 -13.1721  -4.8699  -4.6726  -4.5123  -4.3282
     0.4470   0.9431   1.5491   1.6849   3.3870   3.6839   4.1128   4.4480
     4.6978   5.2662   5.5711   6.0348   6.1787   6.6313   6.9455   7.3057
     9.2538  10.6604  10.6949  11.4983  11.5569  11.8531  12.2796  12.6987
    12.8920  13.2587

     occupation numbers 
     1.0000   1.0000   1.0000   1.0000   1.0000   1.0000   1.0000   1.0000
     1.0000   1.0000   1.0000   1.0000   1.0000   1.0000   1.0000   1.0000
     1.0000   1.0000   1.0000   1.0000   1.0000   1.0000   1.0000   1.0000
     1.0000   1.0000   1.0000   1.0000   1.0000   1.0000   1.0000   1.0000
     1.0000   1.0000   1.0000   1.0000   1.0000   1.0000   1.0000   1.0000
     0.0000   0.0000   0.0000   0.0000   0.0000   0.0000   0.0000   0.0000
     0.0000   0.0000

          k = 0.1250 0.7922 1.1740 (  8509 PWs)   bands (ev):

   -13.2658 -13.2652 -13.2587 -13.2584 -13.2426 -13.2416 -13.2396 -13.2394
   -13.2320 -13.2318 -13.2184 -13.2172 -13.2126 -13.2114 -13.1948 -13.1944
   -13.1869 -13.1860 -13.1729 -13.1724  -4.7252  -4.6175  -4.5113  -4.4091
     0.5416   0.7114   1.6197   1.6644   3.5438   3.7971   3.9086   4.1729
     4.7682   5.0698   5.4608   5.7347   6.1544   6.3860   7.0081   7.1108
     9.6591  10.1450  11.2517  11.5942  12.0542  12.3362  12.5699  12.7654
    12.9843  13.0816

     occupation numbers 
     1.0000   1.0000   1.0000   1.0000   1.0000   1.0000   1.0000   1.0000
     1.0000   1.0000   1.0000   1.0000   1.0000   1.0000   1.0000   1.0000
     1.0000   1.0000   1.0000   1.0000   1.0000   1.0000   1.0000   1.0000
     1.0000   1.0000   1.0000   1.0000   1.0000   1.0000   1.0000   1.0000
     1.0000   1.0000   1.0000   1.0000   1.0000   1.0000   1.0000   1.0000
     0.0000   0.0000   0.0000   0.0000   0.0000   0.0000   0.0000   0.0000
     0.0000   0.0000

          k = 0.1250 1.0186 0.1067 (  8550 PWs)   bands (ev):

   -13.2590 -13.2565 -13.2559 -13.2533 -13.2424 -13.2416 -13.2411 -13.2372
   -13.2334 -13.2323 -13.2272 -13.2196 -13.2156 -13.2082 -13.2001 -13.1999
   -13.1850 -13.1799 -13.1754 -13.1745  -5.0601  -4.8682  -4.5036  -4.3774
     0.2542   0.9199   0.9320   1.4635   3.9566   4.8975   5.1764   5.5764
     5.7419   5.9504   6.1714   6.4823   6.9156   7.1635   7.2809   7.6310
     8.8757   9.3953   9.6395   9.7960  10.1346  10.5244  10.6317  11.0839
    11.7804  12.0310

     occupation numbers 
     1.0000   1.0000   1.0000   1.0000   1.0000   1.0000   1.0000   1.0000
     1.0000   1.0000   1.0000   1.0000   1.0000   1.0000   1.0000   1.0000
     1.0000   1.0000   1.0000   1.0000   1.0000   1.0000   1.0000   1.0000
     1.0000   1.0000   1.0000   1.0000   1.0000   1.0000   1.0000   1.0000
     1.0000   1.0000   1.0000   1.0000   1.0000   1.0000   1.0000   1.0000
     0.0000   0.0000   0.0000   0.0000   0.0000   0.0000   0.0000   0.0000
     0.0000   0.0000

          k = 0.1250 1.0186 0.3202 (  8547 PWs)   bands (ev):

   -13.2607 -13.2583 -13.2566 -13.2545 -13.2425 -13.2406 -13.2404 -13.2369
   -13.2326 -13.2321 -13.2264 -13.2194 -13.2152 -13.2084 -13.1998 -13.1993
   -13.1850 -13.1803 -13.1752 -13.1743  -5.0148  -4.8283  -4.4881  -4.3651
     0.3135   0.9722   1.0116   1.4605   4.0026   4.3301   4.6685   5.3557
     5.6146   5.7875   6.1975   6.4723   6.7024   7.1282   7.2101   7.4648
     9.2135   9.3227   9.5111   9.8166  10.8065  10.9085  11.1690  11.4117
    12.1322  12.6283

     occupation numbers 
     1.0000   1.0000   1.0000   1.0000   1.0000   1.0000   1.0000   1.0000
     1.0000   1.0000   1.0000   1.0000   1.0000   1.0000   1.0000   1.0000
     1.0000   1.0000   1.0000   1.0000   1.0000   1.0000   1.0000   1.0000
     1.0000   1.0000   1.0000   1.0000   1.0000   1.0000   1.0000   1.0000
     1.0000   1.0000   1.0000   1.0000   1.0000   1.0000   1.0000   1.0000
     0.0000   0.0000   0.0000   0.0000   0.0000   0.0000   0.0000   0.0000
     0.0000   0.0000

          k = 0.1250 1.0186 0.5336 (  8526 PWs)   bands (ev):

   -13.2634 -13.2611 -13.2583 -13.2565 -13.2423 -13.2399 -13.2389 -13.2364
   -13.2317 -13.2316 -13.2249 -13.2189 -13.2144 -13.2087 -13.1992 -13.1985
   -13.1850 -13.1810 -13.1748 -13.1739  -4.9301  -4.7544  -4.4646  -4.3470
     0.4226   1.0680   1.1540   1.4472   3.7617   4.0259   4.2444   4.8815
     5.0945   5.7371   5.8716   6.1830   6.5059   6.7743   7.0156   7.4915
     9.0261   9.9156   9.9391  10.5427  11.0761  11.5940  11.8821  12.0173
    12.4455  12.7746

     occupation numbers 
     1.0000   1.0000   1.0000   1.0000   1.0000   1.0000   1.0000   1.0000
     1.0000   1.0000   1.0000   1.0000   1.0000   1.0000   1.0000   1.0000
     1.0000   1.0000   1.0000   1.0000   1.0000   1.0000   1.0000   1.0000
     1.0000   1.0000   1.0000   1.0000   1.0000   1.0000   1.0000   1.0000
     1.0000   1.0000   1.0000   1.0000   1.0000   1.0000   1.0000   1.0000
     0.0000   0.0000   0.0000   0.0000   0.0000   0.0000   0.0000   0.0000
     0.0000   0.0000

          k = 0.1250 1.0186 0.7471 (  8508 PWs)   bands (ev):

   -13.2663 -13.2643 -13.2602 -13.2589 -13.2418 -13.2394 -13.2374 -13.2359
   -13.2312 -13.2308 -13.2230 -13.2185 -13.2132 -13.2091 -13.1984 -13.1978
   -13.1848 -13.1817 -13.1744 -13.1736  -4.8182  -4.6578  -4.4472  -4.3349
     0.5619   1.1461   1.3378   1.4456   3.3525   3.7482   4.2093   4.3376
     4.7772   5.3254   5.4797   5.8279   6.3011   6.3805   6.9095   7.2879
     9.1940  10.5852  10.6710  11.2751  11.5411  11.7075  12.4905  12.6176
    12.6321  12.9852

     occupation numbers 
     1.0000   1.0000   1.0000   1.0000   1.0000   1.0000   1.0000   1.0000
     1.0000   1.0000   1.0000   1.0000   1.0000   1.0000   1.0000   1.0000
     1.0000   1.0000   1.0000   1.0000   1.0000   1.0000   1.0000   1.0000
     1.0000   1.0000   1.0000   1.0000   1.0000   1.0000   1.0000   1.0000
     1.0000   1.0000   1.0000   1.0000   1.0000   1.0000   1.0000   1.0000
     0.0000   0.0000   0.0000   0.0000   0.0000   0.0000   0.0000   0.0000
     0.0000   0.0000

          k = 0.1250 1.0186 0.9605 (  8494 PWs)   bands (ev):

   -13.2685 -13.2672 -13.2618 -13.2611 -13.2412 -13.2393 -13.2363 -13.2355
   -13.2306 -13.2302 -13.2212 -13.2183 -13.2118 -13.2094 -13.1977 -13.1972
   -13.1844 -13.1824 -13.1740 -13.1735  -4.6965  -4.5559  -4.4506  -4.3424
     0.7078   1.1050   1.5118   1.5289   3.1464   3.5742   3.8362   4.1378
     4.5972   4.9418   5.0965   5.6872   5.9323   6.1964   6.8545   7.0006
     9.5999  10.9090  11.2078  11.3657  12.0696  12.2912  12.7787  12.8681
    13.0705  13.2845

     occupation numbers 
     1.0000   1.0000   1.0000   1.0000   1.0000   1.0000   1.0000   1.0000
     1.0000   1.0000   1.0000   1.0000   1.0000   1.0000   1.0000   1.0000
     1.0000   1.0000   1.0000   1.0000   1.0000   1.0000   1.0000   1.0000
     1.0000   1.0000   1.0000   1.0000   1.0000   1.0000   1.0000   1.0000
     1.0000   1.0000   1.0000   1.0000   1.0000   1.0000   1.0000   1.0000
     0.0000   0.0000   0.0000   0.0000   0.0000   0.0000   0.0000   0.0000
     0.0000   0.0000

          k = 0.1250 1.0186 1.1740 (  8495 PWs)   bands (ev):

   -13.2695 -13.2690 -13.2627 -13.2624 -13.2405 -13.2398 -13.2357 -13.2354
   -13.2301 -13.2300 -13.2198 -13.2188 -13.2107 -13.2099 -13.1972 -13.1970
   -13.1837 -13.1830 -13.1737 -13.1735  -4.5862  -4.5118  -4.4423  -4.3794
     0.8475   0.9840   1.6127   1.6262   3.1723   3.4213   3.6407   3.8928
     4.4832   4.6553   5.1625   5.4980   5.7878   5.9965   6.8293   6.8708
    10.0456  10.5052  11.5034  11.6457  12.5319  12.6243  12.8362  12.9582
    13.3159  13.5493

     occupation numbers 
     1.0000   1.0000   1.0000   1.0000   1.0000   1.0000   1.0000   1.0000
     1.0000   1.0000   1.0000   1.0000   1.0000   1.0000   1.0000   1.0000
     1.0000   1.0000   1.0000   1.0000   1.0000   1.0000   1.0000   1.0000
     1.0000   1.0000   1.0000   1.0000   1.0000   1.0000   1.0000   1.0000
     1.0000   1.0000   1.0000   1.0000   1.0000   1.0000   1.0000   1.0000
     0.0000   0.0000   0.0000   0.0000   0.0000   0.0000   0.0000   0.0000
     0.0000   0.0000

          k = 0.1250 1.2449 0.1067 (  8542 PWs)   bands (ev):

   -13.2598 -13.2589 -13.2563 -13.2552 -13.2406 -13.2402 -13.2394 -13.2378
   -13.2299 -13.2284 -13.2277 -13.2229 -13.2114 -13.2064 -13.2049 -13.2028
   -13.1812 -13.1781 -13.1772 -13.1761  -4.8030  -4.6934  -4.5652  -4.5639
     0.3005   0.5268   0.9522   1.1431   4.3453   4.7225   5.4599   5.7384
     5.8432   5.8816   6.2627   6.5162   7.0623   7.1225   7.2186   7.2764
     9.1569   9.2341   9.3696   9.6570   9.9260  10.1044  10.6488  10.8701
    11.3589  11.5464

     occupation numbers 
     1.0000   1.0000   1.0000   1.0000   1.0000   1.0000   1.0000   1.0000
     1.0000   1.0000   1.0000   1.0000   1.0000   1.0000   1.0000   1.0000
     1.0000   1.0000   1.0000   1.0000   1.0000   1.0000   1.0000   1.0000
     1.0000   1.0000   1.0000   1.0000   1.0000   1.0000   1.0000   1.0000
     1.0000   1.0000   1.0000   1.0000   1.0000   1.0000   1.0000   1.0000
     0.0000   0.0000   0.0000   0.0000   0.0000   0.0000   0.0000   0.0000
     0.0000   0.0000

          k = 0.1250 1.2449 0.3202 (  8537 PWs)   bands (ev):

   -13.2615 -13.2606 -13.2574 -13.2565 -13.2407 -13.2400 -13.2383 -13.2371
   -13.2296 -13.2284 -13.2266 -13.2225 -13.2114 -13.2077 -13.2032 -13.2022
   -13.1813 -13.1789 -13.1764 -13.1759  -4.7668  -4.6618  -4.5427  -4.5389
     0.3800   0.6053   1.0155   1.1817   4.3400   4.5306   4.8297   5.2070
     5.4717   5.6245   6.3695   6.4770   6.6218   6.8473   7.2903   7.4147
     9.0762   9.1118   9.6270   9.8773  10.5969  10.8333  11.1794  11.4888
    11.6933  12.1120

     occupation numbers 
     1.0000   1.0000   1.0000   1.0000   1.0000   1.0000   1.0000   1.0000
     1.0000   1.0000   1.0000   1.0000   1.0000   1.0000   1.0000   1.0000
     1.0000   1.0000   1.0000   1.0000   1.0000   1.0000   1.0000   1.0000
     1.0000   1.0000   1.0000   1.0000   1.0000   1.0000   1.0000   1.0000
     1.0000   1.0000   1.0000   1.0000   1.0000   1.0000   1.0000   1.0000
     0.0000   0.0000   0.0000   0.0000   0.0000   0.0000   0.0000   0.0000
     0.0000   0.0000

          k = 0.1250 1.2449 0.5336 (  8515 PWs)   bands (ev):

   -13.2644 -13.2636 -13.2594 -13.2587 -13.2404 -13.2396 -13.2368 -13.2360
   -13.2292 -13.2281 -13.2251 -13.2219 -13.2111 -13.2085 -13.2016 -13.2011
   -13.1815 -13.1797 -13.1757 -13.1755  -4.7009  -4.6048  -4.5038  -4.4961
     0.5322   0.7550   1.1322   1.2472   4.0193   4.2358   4.4058   4.5975
     5.0867   5.3745   5.9171   6.1422   6.1701   6.4464   7.1818   7.3711
     9.1354   9.4952  10.3704  10.7072  11.3750  11.5302  11.7548  12.0922
    12.4496  12.6780

     occupation numbers 
     1.0000   1.0000   1.0000   1.0000   1.0000   1.0000   1.0000   1.0000
     1.0000   1.0000   1.0000   1.0000   1.0000   1.0000   1.0000   1.0000
     1.0000   1.0000   1.0000   1.0000   1.0000   1.0000   1.0000   1.0000
     1.0000   1.0000   1.0000   1.0000   1.0000   1.0000   1.0000   1.0000
     1.0000   1.0000   1.0000   1.0000   1.0000   1.0000   1.0000   1.0000
     0.0000   0.0000   0.0000   0.0000   0.0000   0.0000   0.0000   0.0000
     0.0000   0.0000

          k = 0.1250 1.2449 0.7471 (  8519 PWs)   bands (ev):

   -13.2676 -13.2669 -13.2617 -13.2613 -13.2401 -13.2392 -13.2353 -13.2349
   -13.2286 -13.2277 -13.2237 -13.2212 -13.2106 -13.2089 -13.2002 -13.2000
   -13.1816 -13.1802 -13.1752 -13.1751  -4.6176  -4.5346  -4.4616  -4.4478
     0.7397   0.9568   1.2764   1.3224   3.5175   3.8705   4.0038   4.2672
     4.7173   5.0114   5.5076   5.7741   5.8542   6.0592   6.9895   7.0983
     9.5778  10.0666  11.1851  11.4000  11.9154  12.0981  12.3282  12.4502
    12.7378  13.0617

     occupation numbers 
     1.0000   1.0000   1.0000   1.0000   1.0000   1.0000   1.0000   1.0000
     1.0000   1.0000   1.0000   1.0000   1.0000   1.0000   1.0000   1.0000
     1.0000   1.0000   1.0000   1.0000   1.0000   1.0000   1.0000   1.0000
     1.0000   1.0000   1.0000   1.0000   1.0000   1.0000   1.0000   1.0000
     1.0000   1.0000   1.0000   1.0000   1.0000   1.0000   1.0000   1.0000
     0.0000   0.0000   0.0000   0.0000   0.0000   0.0000   0.0000   0.0000
     0.0000   0.0000

          k = 0.1250 1.2449 0.9605 (  8517 PWs)   bands (ev):

   -13.2702 -13.2697 -13.2637 -13.2635 -13.2398 -13.2391 -13.2343 -13.2340
   -13.2280 -13.2273 -13.2225 -13.2209 -13.2098 -13.2089 -13.1992 -13.1991
   -13.1815 -13.1806 -13.1748 -13.1748  -4.5342  -4.4677  -4.4316  -4.4096
     0.9659   1.1594   1.3697   1.4321   3.1814   3.4561   3.7253   3.9404
     4.4916   4.6091   5.1018   5.4888   5.7094   5.9324   6.8159   6.8656
    10.0542  10.5569  11.3378  11.5527  12.4058  12.5080  12.6961  12.8231
    13.2360  13.5875

     occupation numbers 
     1.0000   1.0000   1.0000   1.0000   1.0000   1.0000   1.0000   1.0000
     1.0000   1.0000   1.0000   1.0000   1.0000   1.0000   1.0000   1.0000
     1.0000   1.0000   1.0000   1.0000   1.0000   1.0000   1.0000   1.0000
     1.0000   1.0000   1.0000   1.0000   1.0000   1.0000   1.0000   1.0000
     1.0000   1.0000   1.0000   1.0000   1.0000   1.0000   1.0000   1.0000
     0.0000   0.0000   0.0000   0.0000   0.0000   0.0000   0.0000   0.0000
     0.0000   0.0000

          k = 0.1250 1.2449 1.1740 (  8505 PWs)   bands (ev):

   -13.2715 -13.2714 -13.2648 -13.2648 -13.2395 -13.2393 -13.2337 -13.2336
   -13.2275 -13.2272 -13.2215 -13.2210 -13.2092 -13.2089 -13.1987 -13.1986
   -13.1812 -13.1809 -13.1746 -13.1746  -4.4688  -4.4370  -4.4121  -4.3957
     1.1508   1.2352   1.4595   1.5039   3.0609   3.1677   3.5963   3.6629
     4.3997   4.4155   4.9033   5.0903   5.8231   5.9262   6.6942   6.7281
    10.4853  10.8094  11.1333  11.3788  12.7439  12.8262  12.8591  12.9977
    13.6935  13.8324

     occupation numbers 
     1.0000   1.0000   1.0000   1.0000   1.0000   1.0000   1.0000   1.0000
     1.0000   1.0000   1.0000   1.0000   1.0000   1.0000   1.0000   1.0000
     1.0000   1.0000   1.0000   1.0000   1.0000   1.0000   1.0000   1.0000
     1.0000   1.0000   1.0000   1.0000   1.0000   1.0000   1.0000   1.0000
     1.0000   1.0000   1.0000   1.0000   1.0000   1.0000   1.0000   1.0000
     0.0000   0.0000   0.0000   0.0000   0.0000   0.0000   0.0000   0.0000
     0.0000   0.0000

          k = 0.3750 0.1132 0.1067 (  8489 PWs)   bands (ev):

   -13.2624 -13.2579 -13.2516 -13.2503 -13.2488 -13.2475 -13.2408 -13.2392
   -13.2329 -13.2319 -13.2314 -13.2287 -13.2157 -13.2132 -13.1953 -13.1936
   -13.1862 -13.1850 -13.1724 -13.1690  -5.6513  -5.5262  -4.4707  -4.2904
     0.9621   1.3052   2.8898   2.9607   3.7114   4.3355   4.7587   4.9321
     5.0811   5.4217   6.0494   6.0674   6.2503   6.3848   7.4813   7.5581
    10.2776  10.7238  10.8239  11.1567  11.4789  11.6180  11.8776  12.2321
    12.9360  13.1942

     occupation numbers 
     1.0000   1.0000   1.0000   1.0000   1.0000   1.0000   1.0000   1.0000
     1.0000   1.0000   1.0000   1.0000   1.0000   1.0000   1.0000   1.0000
     1.0000   1.0000   1.0000   1.0000   1.0000   1.0000   1.0000   1.0000
     1.0000   1.0000   1.0000   1.0000   1.0000   1.0000   1.0000   1.0000
     1.0000   1.0000   1.0000   1.0000   1.0000   1.0000   1.0000   1.0000
     0.0000   0.0000   0.0000   0.0000   0.0000   0.0000   0.0000   0.0000
     0.0000   0.0000

          k = 0.3750 0.1132 0.3202 (  8487 PWs)   bands (ev):

   -13.2619 -13.2575 -13.2510 -13.2498 -13.2495 -13.2482 -13.2415 -13.2400
   -13.2322 -13.2305 -13.2303 -13.2285 -13.2156 -13.2134 -13.1953 -13.1935
   -13.1866 -13.1854 -13.1723 -13.1691  -5.5933  -5.4702  -4.4693  -4.2980
     0.7865   1.1501   2.5598   2.7161   3.8088   4.4691   4.8240   4.9602
     5.2917   5.5618   6.0533   6.1923   6.4944   6.6566   7.3999   7.5390
    10.1946  10.5285  10.9475  11.0311  11.1070  11.3645  11.6661  12.1232
    12.8422  12.9186

     occupation numbers 
     1.0000   1.0000   1.0000   1.0000   1.0000   1.0000   1.0000   1.0000
     1.0000   1.0000   1.0000   1.0000   1.0000   1.0000   1.0000   1.0000
     1.0000   1.0000   1.0000   1.0000   1.0000   1.0000   1.0000   1.0000
     1.0000   1.0000   1.0000   1.0000   1.0000   1.0000   1.0000   1.0000
     1.0000   1.0000   1.0000   1.0000   1.0000   1.0000   1.0000   1.0000
     0.0000   0.0000   0.0000   0.0000   0.0000   0.0000   0.0000   0.0000
     0.0000   0.0000

          k = 0.3750 0.1132 0.5336 (  8503 PWs)   bands (ev):

   -13.2608 -13.2569 -13.2507 -13.2502 -13.2493 -13.2488 -13.2427 -13.2413
   -13.2313 -13.2287 -13.2282 -13.2275 -13.2156 -13.2138 -13.1952 -13.1932
   -13.1873 -13.1861 -13.1721 -13.1694  -5.4820  -5.3632  -4.4763  -4.3213
     0.5249   0.8974   2.1141   2.3432   3.9552   4.6383   4.9581   5.1266
     5.5647   5.7855   6.1720   6.3153   6.7907   6.9932   7.3315   7.5333
     9.9658  10.1687  10.5468  10.6960  11.0191  11.2051  11.3208  11.9967
    12.3267  12.6904

     occupation numbers 
     1.0000   1.0000   1.0000   1.0000   1.0000   1.0000   1.0000   1.0000
     1.0000   1.0000   1.0000   1.0000   1.0000   1.0000   1.0000   1.0000
     1.0000   1.0000   1.0000   1.0000   1.0000   1.0000   1.0000   1.0000
     1.0000   1.0000   1.0000   1.0000   1.0000   1.0000   1.0000   1.0000
     1.0000   1.0000   1.0000   1.0000   1.0000   1.0000   1.0000   1.0000
     0.0000   0.0000   0.0000   0.0000   0.0000   0.0000   0.0000   0.0000
     0.0000   0.0000

          k = 0.3750 0.1132 0.7471 (  8513 PWs)   bands (ev):

   -13.2593 -13.2561 -13.2520 -13.2511 -13.2491 -13.2481 -13.2440 -13.2427
   -13.2305 -13.2284 -13.2253 -13.2246 -13.2157 -13.2144 -13.1948 -13.1929
   -13.1881 -13.1869 -13.1718 -13.1697  -5.3279  -5.2158  -4.5073  -4.3731
     0.2818   0.6251   1.6929   1.9408   4.1674   4.8560   5.1725   5.3697
     5.6966   6.0227   6.2971   6.4221   6.9557   7.1059   7.4957   7.7018
     9.5743   9.7651  10.1708  10.3483  10.6365  10.8617  11.0971  11.6544
    12.1019  12.2084

     occupation numbers 
     1.0000   1.0000   1.0000   1.0000   1.0000   1.0000   1.0000   1.0000
     1.0000   1.0000   1.0000   1.0000   1.0000   1.0000   1.0000   1.0000
     1.0000   1.0000   1.0000   1.0000   1.0000   1.0000   1.0000   1.0000
     1.0000   1.0000   1.0000   1.0000   1.0000   1.0000   1.0000   1.0000
     1.0000   1.0000   1.0000   1.0000   1.0000   1.0000   1.0000   1.0000
     0.0000   0.0000   0.0000   0.0000   0.0000   0.0000   0.0000   0.0000
     0.0000   0.0000

          k = 0.3750 0.1132 0.9605 (  8515 PWs)   bands (ev):

   -13.2577 -13.2555 -13.2530 -13.2523 -13.2485 -13.2477 -13.2449 -13.2441
   -13.2297 -13.2283 -13.2221 -13.2216 -13.2162 -13.2154 -13.1943 -13.1927
   -13.1887 -13.1877 -13.1715 -13.1702  -5.1494  -5.0492  -4.5733  -4.4630
     0.1322   0.3862   1.3892   1.5871   4.4508   5.0988   5.4417   5.5857
     5.6747   6.0551   6.2932   6.4710   7.1297   7.2495   7.7310   7.8759
     9.2943   9.5064   9.7172   9.9507  10.3384  10.5525  10.9289  11.2470
    11.7491  11.8835

     occupation numbers 
     1.0000   1.0000   1.0000   1.0000   1.0000   1.0000   1.0000   1.0000
     1.0000   1.0000   1.0000   1.0000   1.0000   1.0000   1.0000   1.0000
     1.0000   1.0000   1.0000   1.0000   1.0000   1.0000   1.0000   1.0000
     1.0000   1.0000   1.0000   1.0000   1.0000   1.0000   1.0000   1.0000
     1.0000   1.0000   1.0000   1.0000   1.0000   1.0000   1.0000   1.0000
     0.0000   0.0000   0.0000   0.0000   0.0000   0.0000   0.0000   0.0000
     0.0000   0.0000

          k = 0.3750 0.1132 1.1740 (  8498 PWs)   bands (ev):

   -13.2564 -13.2555 -13.2535 -13.2532 -13.2481 -13.2478 -13.2453 -13.2450
   -13.2290 -13.2286 -13.2193 -13.2190 -13.2174 -13.2169 -13.1936 -13.1930
   -13.1888 -13.1884 -13.1710 -13.1706  -4.9808  -4.9229  -4.6416  -4.5811
     0.1094   0.2051   1.2683   1.3452   4.7844   5.0995   5.5870   5.7513
     5.8564   5.8767   6.2232   6.3388   7.4235   7.5170   7.7723   7.8390
     9.2072   9.3671   9.5332   9.6983  10.1040  10.2164  11.0151  11.0432
    11.4812  11.6041

     occupation numbers 
     1.0000   1.0000   1.0000   1.0000   1.0000   1.0000   1.0000   1.0000
     1.0000   1.0000   1.0000   1.0000   1.0000   1.0000   1.0000   1.0000
     1.0000   1.0000   1.0000   1.0000   1.0000   1.0000   1.0000   1.0000
     1.0000   1.0000   1.0000   1.0000   1.0000   1.0000   1.0000   1.0000
     1.0000   1.0000   1.0000   1.0000   1.0000   1.0000   1.0000   1.0000
     0.0000   0.0000   0.0000   0.0000   0.0000   0.0000   0.0000   0.0000
     0.0000   0.0000

          k = 0.3750 0.3395 0.1067 (  8489 PWs)   bands (ev):

   -13.2598 -13.2559 -13.2501 -13.2499 -13.2490 -13.2488 -13.2426 -13.2409
   -13.2340 -13.2313 -13.2294 -13.2291 -13.2147 -13.2131 -13.1942 -13.1934
   -13.1863 -13.1861 -13.1729 -13.1699  -5.5791  -5.4579  -4.4504  -4.2836
     0.8602   1.1882   2.6148   2.6460   3.7640   4.3845   4.7138   4.8958
     5.3248   5.5600   5.9921   6.0769   6.4225   6.5620   7.5238   7.5700
    10.2943  10.5500  10.8678  11.0261  11.2021  11.3460  11.6700  12.1097
    12.8015  13.0466

     occupation numbers 
     1.0000   1.0000   1.0000   1.0000   1.0000   1.0000   1.0000   1.0000
     1.0000   1.0000   1.0000   1.0000   1.0000   1.0000   1.0000   1.0000
     1.0000   1.0000   1.0000   1.0000   1.0000   1.0000   1.0000   1.0000
     1.0000   1.0000   1.0000   1.0000   1.0000   1.0000   1.0000   1.0000
     1.0000   1.0000   1.0000   1.0000   1.0000   1.0000   1.0000   1.0000
     0.0000   0.0000   0.0000   0.0000   0.0000   0.0000   0.0000   0.0000
     0.0000   0.0000

          k = 0.3750 0.3395 0.3202 (  8496 PWs)   bands (ev):

   -13.2594 -13.2557 -13.2508 -13.2496 -13.2493 -13.2483 -13.2432 -13.2417
   -13.2335 -13.2307 -13.2282 -13.2281 -13.2147 -13.2132 -13.1942 -13.1932
   -13.1868 -13.1866 -13.1727 -13.1699  -5.5221  -5.4031  -4.4483  -4.2896
     0.7370   1.0882   2.3823   2.4889   3.8450   4.3363   4.6193   4.8603
     5.4648   5.7579   5.9180   6.0296   6.8075   6.9734   7.4575   7.5708
    10.0039  10.1400  10.6259  10.9752  11.1324  11.3506  11.7672  12.1070
    12.4468  12.6720

     occupation numbers 
     1.0000   1.0000   1.0000   1.0000   1.0000   1.0000   1.0000   1.0000
     1.0000   1.0000   1.0000   1.0000   1.0000   1.0000   1.0000   1.0000
     1.0000   1.0000   1.0000   1.0000   1.0000   1.0000   1.0000   1.0000
     1.0000   1.0000   1.0000   1.0000   1.0000   1.0000   1.0000   1.0000
     1.0000   1.0000   1.0000   1.0000   1.0000   1.0000   1.0000   1.0000
     0.0000   0.0000   0.0000   0.0000   0.0000   0.0000   0.0000   0.0000
     0.0000   0.0000

          k = 0.3750 0.3395 0.5336 (  8507 PWs)   bands (ev):

   -13.2588 -13.2554 -13.2522 -13.2508 -13.2483 -13.2474 -13.2442 -13.2430
   -13.2328 -13.2302 -13.2262 -13.2259 -13.2148 -13.2134 -13.1941 -13.1928
   -13.1876 -13.1873 -13.1724 -13.1701  -5.4132  -5.2985  -4.4534  -4.3095
     0.5386   0.9041   2.0385   2.2230   3.9754   4.3038   4.5742   5.0295
     5.4317   5.6913   6.2705   6.2951   7.1016   7.2023   7.4179   7.5701
     9.6742   9.7721  10.4314  10.5983  10.9946  11.3328  11.6912  11.7656
    12.3626  12.5129

     occupation numbers 
     1.0000   1.0000   1.0000   1.0000   1.0000   1.0000   1.0000   1.0000
     1.0000   1.0000   1.0000   1.0000   1.0000   1.0000   1.0000   1.0000
     1.0000   1.0000   1.0000   1.0000   1.0000   1.0000   1.0000   1.0000
     1.0000   1.0000   1.0000   1.0000   1.0000   1.0000   1.0000   1.0000
     1.0000   1.0000   1.0000   1.0000   1.0000   1.0000   1.0000   1.0000
     0.0000   0.0000   0.0000   0.0000   0.0000   0.0000   0.0000   0.0000
     0.0000   0.0000

          k = 0.3750 0.3395 0.7471 (  8513 PWs)   bands (ev):

   -13.2581 -13.2552 -13.2536 -13.2520 -13.2473 -13.2468 -13.2451 -13.2443
   -13.2319 -13.2300 -13.2235 -13.2231 -13.2150 -13.2137 -13.1937 -13.1923
   -13.1887 -13.1881 -13.1721 -13.1703  -5.2629  -5.1550  -4.4808  -4.3557
     0.3413   0.6796   1.6939   1.9096   4.1418   4.3924   4.6946   5.2703
     5.3931   5.6718   6.3447   6.5479   7.1930   7.2353   7.4263   7.5549
     9.6153   9.6313  10.0304  10.4731  10.6876  11.1065  11.4199  11.5639
    12.3771  12.4973

     occupation numbers 
     1.0000   1.0000   1.0000   1.0000   1.0000   1.0000   1.0000   1.0000
     1.0000   1.0000   1.0000   1.0000   1.0000   1.0000   1.0000   1.0000
     1.0000   1.0000   1.0000   1.0000   1.0000   1.0000   1.0000   1.0000
     1.0000   1.0000   1.0000   1.0000   1.0000   1.0000   1.0000   1.0000
     1.0000   1.0000   1.0000   1.0000   1.0000   1.0000   1.0000   1.0000
     0.0000   0.0000   0.0000   0.0000   0.0000   0.0000   0.0000   0.0000
     0.0000   0.0000

          k = 0.3750 0.3395 0.9605 (  8498 PWs)   bands (ev):

   -13.2575 -13.2556 -13.2543 -13.2530 -13.2469 -13.2463 -13.2457 -13.2450
   -13.2312 -13.2300 -13.2207 -13.2202 -13.2155 -13.2144 -13.1931 -13.1917
   -13.1897 -13.1890 -13.1717 -13.1705  -5.0897  -4.9937  -4.5415  -4.4380
     0.2156   0.4640   1.4381   1.6149   4.3684   4.5907   4.9431   5.3039
     5.4900   5.6371   6.1737   6.5099   7.1271   7.2568   7.4887   7.5691
     9.4769   9.7479   9.9615  10.1698  10.6696  10.9643  11.1226  11.2942
    12.2860  12.4219

     occupation numbers 
     1.0000   1.0000   1.0000   1.0000   1.0000   1.0000   1.0000   1.0000
     1.0000   1.0000   1.0000   1.0000   1.0000   1.0000   1.0000   1.0000
     1.0000   1.0000   1.0000   1.0000   1.0000   1.0000   1.0000   1.0000
     1.0000   1.0000   1.0000   1.0000   1.0000   1.0000   1.0000   1.0000
     1.0000   1.0000   1.0000   1.0000   1.0000   1.0000   1.0000   1.0000
     0.0000   0.0000   0.0000   0.0000   0.0000   0.0000   0.0000   0.0000
     0.0000   0.0000

          k = 0.3750 0.3395 1.1740 (  8494 PWs)   bands (ev):

   -13.2570 -13.2565 -13.2541 -13.2537 -13.2469 -13.2465 -13.2457 -13.2452
   -13.2306 -13.2302 -13.2185 -13.2180 -13.2162 -13.2155 -13.1923 -13.1916
   -13.1903 -13.1898 -13.1712 -13.1708  -4.9274  -4.8720  -4.6051  -4.5479
     0.1999   0.2928   1.3362   1.4053   4.6429   4.7876   5.1201   5.1986
     5.4574   5.6749   6.0602   6.2869   7.1540   7.2454   7.5169   7.5516
     9.5353   9.7911   9.8714  10.0357  10.6137  10.8100  11.1609  11.2460
    12.1008  12.1738

     occupation numbers 
     1.0000   1.0000   1.0000   1.0000   1.0000   1.0000   1.0000   1.0000
     1.0000   1.0000   1.0000   1.0000   1.0000   1.0000   1.0000   1.0000
     1.0000   1.0000   1.0000   1.0000   1.0000   1.0000   1.0000   1.0000
     1.0000   1.0000   1.0000   1.0000   1.0000   1.0000   1.0000   1.0000
     1.0000   1.0000   1.0000   1.0000   1.0000   1.0000   1.0000   1.0000
     0.0000   0.0000   0.0000   0.0000   0.0000   0.0000   0.0000   0.0000
     0.0000   0.0000

          k = 0.3750 0.5659 0.1067 (  8533 PWs)   bands (ev):

   -13.2563 -13.2548 -13.2514 -13.2499 -13.2469 -13.2464 -13.2447 -13.2433
   -13.2349 -13.2323 -13.2278 -13.2268 -13.2133 -13.2130 -13.1942 -13.1933
   -13.1875 -13.1857 -13.1736 -13.1713  -5.4399  -5.3271  -4.4231  -4.2836
     0.6867   0.9897   2.1155   2.2134   3.8941   4.4870   4.8061   4.9500
     5.5628   5.7443   6.0217   6.1378   6.5432   6.7593   7.5491   7.6272
     9.7200  10.1198  10.6136  10.8127  11.0403  11.3563  11.4854  12.0727
    12.2583  12.6018

     occupation numbers 
     1.0000   1.0000   1.0000   1.0000   1.0000   1.0000   1.0000   1.0000
     1.0000   1.0000   1.0000   1.0000   1.0000   1.0000   1.0000   1.0000
     1.0000   1.0000   1.0000   1.0000   1.0000   1.0000   1.0000   1.0000
     1.0000   1.0000   1.0000   1.0000   1.0000   1.0000   1.0000   1.0000
     1.0000   1.0000   1.0000   1.0000   1.0000   1.0000   1.0000   1.0000
     0.0000   0.0000   0.0000   0.0000   0.0000   0.0000   0.0000   0.0000
     0.0000   0.0000

          k = 0.3750 0.5659 0.3202 (  8522 PWs)   bands (ev):

   -13.2569 -13.2552 -13.2520 -13.2501 -13.2469 -13.2461 -13.2446 -13.2435
   -13.2345 -13.2321 -13.2266 -13.2256 -13.2137 -13.2127 -13.1941 -13.1932
   -13.1879 -13.1861 -13.1734 -13.1712  -5.3854  -5.2749  -4.4191  -4.2861
     0.6411   0.9670   2.0344   2.1131   3.9244   4.2126   4.5471   4.9140
     5.4423   5.7205   6.1350   6.1870   6.9237   7.0420   7.5294   7.6053
     9.5301   9.7114  10.5516  10.7714  10.9916  11.2807  11.6335  11.8745
    12.2841  12.5469

     occupation numbers 
     1.0000   1.0000   1.0000   1.0000   1.0000   1.0000   1.0000   1.0000
     1.0000   1.0000   1.0000   1.0000   1.0000   1.0000   1.0000   1.0000
     1.0000   1.0000   1.0000   1.0000   1.0000   1.0000   1.0000   1.0000
     1.0000   1.0000   1.0000   1.0000   1.0000   1.0000   1.0000   1.0000
     1.0000   1.0000   1.0000   1.0000   1.0000   1.0000   1.0000   1.0000
     0.0000   0.0000   0.0000   0.0000   0.0000   0.0000   0.0000   0.0000
     0.0000   0.0000

          k = 0.3750 0.5659 0.5336 (  8501 PWs)   bands (ev):

   -13.2580 -13.2562 -13.2530 -13.2511 -13.2466 -13.2460 -13.2440 -13.2435
   -13.2338 -13.2318 -13.2245 -13.2235 -13.2139 -13.2125 -13.1940 -13.1931
   -13.1884 -13.1868 -13.1730 -13.1712  -5.2816  -5.1755  -4.4197  -4.2983
     0.5530   0.8999   1.8599   1.9744   3.9087   3.9944   4.4186   4.9440
     5.1598   5.4977   6.4071   6.5172   6.9761   7.0087   7.4852   7.5924
     9.6276   9.7001  10.2134  10.5023  10.7650  11.3822  11.5760  11.9224
    12.4772  12.7496

     occupation numbers 
     1.0000   1.0000   1.0000   1.0000   1.0000   1.0000   1.0000   1.0000
     1.0000   1.0000   1.0000   1.0000   1.0000   1.0000   1.0000   1.0000
     1.0000   1.0000   1.0000   1.0000   1.0000   1.0000   1.0000   1.0000
     1.0000   1.0000   1.0000   1.0000   1.0000   1.0000   1.0000   1.0000
     1.0000   1.0000   1.0000   1.0000   1.0000   1.0000   1.0000   1.0000
     0.0000   0.0000   0.0000   0.0000   0.0000   0.0000   0.0000   0.0000
     0.0000   0.0000

          k = 0.3750 0.5659 0.7471 (  8499 PWs)   bands (ev):

   -13.2593 -13.2578 -13.2541 -13.2526 -13.2464 -13.2455 -13.2433 -13.2430
   -13.2331 -13.2316 -13.2221 -13.2211 -13.2140 -13.2126 -13.1937 -13.1929
   -13.1889 -13.1876 -13.1726 -13.1712  -5.1396  -5.0405  -4.4391  -4.3325
     0.4477   0.7727   1.6601   1.8123   3.8536   3.9428   4.5338   4.9550
     4.9782   5.4774   6.3471   6.5364   6.6827   6.7721   7.4921   7.6209
     9.6382   9.9879  10.2107  10.4999  10.9135  11.0889  11.6220  12.0207
    12.5498  12.8265

     occupation numbers 
     1.0000   1.0000   1.0000   1.0000   1.0000   1.0000   1.0000   1.0000
     1.0000   1.0000   1.0000   1.0000   1.0000   1.0000   1.0000   1.0000
     1.0000   1.0000   1.0000   1.0000   1.0000   1.0000   1.0000   1.0000
     1.0000   1.0000   1.0000   1.0000   1.0000   1.0000   1.0000   1.0000
     1.0000   1.0000   1.0000   1.0000   1.0000   1.0000   1.0000   1.0000
     0.0000   0.0000   0.0000   0.0000   0.0000   0.0000   0.0000   0.0000
     0.0000   0.0000

          k = 0.3750 0.5659 0.9605 (  8497 PWs)   bands (ev):

[...]
     0.0000   0.0000   0.0000   0.0000   0.0000   0.0000   0.0000   0.0000
     0.0000   0.0000

          k = 0.3750 1.0186 0.3202 (  8538 PWs)   bands (ev):

   -13.2599 -13.2586 -13.2566 -13.2552 -13.2415 -13.2407 -13.2401 -13.2386
   -13.2319 -13.2318 -13.2249 -13.2226 -13.2119 -13.2095 -13.2002 -13.1998
   -13.1834 -13.1814 -13.1750 -13.1746  -4.9706  -4.8964  -4.4384  -4.3905
     0.4726   0.7449   1.1167   1.3123   4.3163   4.4148   4.8928   5.1981
     5.5334   5.6743   6.0944   6.3704   6.7082   6.8046   7.2181   7.3479
     9.5038   9.5821   9.8038   9.9490  10.8314  10.8387  11.2911  11.5475
    11.8335  12.3191

     occupation numbers 
     1.0000   1.0000   1.0000   1.0000   1.0000   1.0000   1.0000   1.0000
     1.0000   1.0000   1.0000   1.0000   1.0000   1.0000   1.0000   1.0000
     1.0000   1.0000   1.0000   1.0000   1.0000   1.0000   1.0000   1.0000
     1.0000   1.0000   1.0000   1.0000   1.0000   1.0000   1.0000   1.0000
     1.0000   1.0000   1.0000   1.0000   1.0000   1.0000   1.0000   1.0000
     0.0000   0.0000   0.0000   0.0000   0.0000   0.0000   0.0000   0.0000
     0.0000   0.0000

          k = 0.3750 1.0186 0.5336 (  8533 PWs)   bands (ev):

   -13.2624 -13.2609 -13.2589 -13.2575 -13.2410 -13.2396 -13.2393 -13.2381
   -13.2312 -13.2310 -13.2238 -13.2218 -13.2112 -13.2093 -13.1999 -13.1995
   -13.1833 -13.1817 -13.1747 -13.1744  -4.8889  -4.8192  -4.4168  -4.3712
     0.5845   0.8571   1.2064   1.3470   3.8721   4.0011   4.7192   4.8462
     5.0279   5.4406   5.8791   6.1688   6.3141   6.6026   7.0827   7.3811
     9.6624   9.9329  10.2385  10.5557  11.0580  11.3786  11.7275  11.8893
    12.0344  12.3771

     occupation numbers 
     1.0000   1.0000   1.0000   1.0000   1.0000   1.0000   1.0000   1.0000
     1.0000   1.0000   1.0000   1.0000   1.0000   1.0000   1.0000   1.0000
     1.0000   1.0000   1.0000   1.0000   1.0000   1.0000   1.0000   1.0000
     1.0000   1.0000   1.0000   1.0000   1.0000   1.0000   1.0000   1.0000
     1.0000   1.0000   1.0000   1.0000   1.0000   1.0000   1.0000   1.0000
     0.0000   0.0000   0.0000   0.0000   0.0000   0.0000   0.0000   0.0000
     0.0000   0.0000

          k = 0.3750 1.0186 0.7471 (  8514 PWs)   bands (ev):

   -13.2650 -13.2636 -13.2613 -13.2601 -13.2405 -13.2388 -13.2385 -13.2375
   -13.2305 -13.2301 -13.2226 -13.2210 -13.2102 -13.2088 -13.1995 -13.1990
   -13.1832 -13.1819 -13.1744 -13.1741  -4.7814  -4.7187  -4.4005  -4.3576
     0.7155   0.9646   1.3310   1.4008   3.4891   3.6634   4.4178   4.5491
     4.6865   5.0434   5.4101   5.8437   6.1520   6.5323   6.8460   7.1955
     9.9798  10.5797  10.7432  11.0743  11.1757  11.3538  12.3152  12.4023
    12.5746  12.6111

     occupation numbers 
     1.0000   1.0000   1.0000   1.0000   1.0000   1.0000   1.0000   1.0000
     1.0000   1.0000   1.0000   1.0000   1.0000   1.0000   1.0000   1.0000
     1.0000   1.0000   1.0000   1.0000   1.0000   1.0000   1.0000   1.0000
     1.0000   1.0000   1.0000   1.0000   1.0000   1.0000   1.0000   1.0000
     1.0000   1.0000   1.0000   1.0000   1.0000   1.0000   1.0000   1.0000
     0.0000   0.0000   0.0000   0.0000   0.0000   0.0000   0.0000   0.0000
     0.0000   0.0000

          k = 0.3750 1.0186 0.9605 (  8500 PWs)   bands (ev):

   -13.2671 -13.2662 -13.2632 -13.2624 -13.2400 -13.2388 -13.2376 -13.2369
   -13.2298 -13.2295 -13.2215 -13.2205 -13.2091 -13.2083 -13.1990 -13.1987
   -13.1830 -13.1822 -13.1741 -13.1739  -4.6665  -4.6139  -4.4023  -4.3630
     0.8262   0.9967   1.4768   1.4928   3.2953   3.4915   3.9716   4.2468
     4.4491   4.7909   5.0309   5.5027   6.0917   6.4967   6.7153   6.9769
    10.2174  10.6853  11.0121  11.3191  11.5237  11.7939  12.6848  12.7687
    13.1191  13.2453

     occupation numbers 
     1.0000   1.0000   1.0000   1.0000   1.0000   1.0000   1.0000   1.0000
     1.0000   1.0000   1.0000   1.0000   1.0000   1.0000   1.0000   1.0000
     1.0000   1.0000   1.0000   1.0000   1.0000   1.0000   1.0000   1.0000
     1.0000   1.0000   1.0000   1.0000   1.0000   1.0000   1.0000   1.0000
     1.0000   1.0000   1.0000   1.0000   1.0000   1.0000   1.0000   1.0000
     0.0000   0.0000   0.0000   0.0000   0.0000   0.0000   0.0000   0.0000
     0.0000   0.0000

          k = 0.3750 1.0186 1.1740 (  8491 PWs)   bands (ev):

   -13.2681 -13.2678 -13.2641 -13.2638 -13.2396 -13.2391 -13.2370 -13.2368
   -13.2293 -13.2291 -13.2207 -13.2203 -13.2083 -13.2081 -13.1987 -13.1986
   -13.1827 -13.1824 -13.1739 -13.1738  -4.5695  -4.5410  -4.4167  -4.3930
     0.9022   0.9606   1.5802   1.5843   3.3189   3.5227   3.5899   3.8238
     4.4726   4.6925   4.8715   5.1402   6.1942   6.3751   6.7296   6.8277
    10.3409  10.4906  11.1488  11.2787  12.2046  12.3056  12.6522  12.7091
    13.7332  13.8060

     occupation numbers 
     1.0000   1.0000   1.0000   1.0000   1.0000   1.0000   1.0000   1.0000
     1.0000   1.0000   1.0000   1.0000   1.0000   1.0000   1.0000   1.0000
     1.0000   1.0000   1.0000   1.0000   1.0000   1.0000   1.0000   1.0000
     1.0000   1.0000   1.0000   1.0000   1.0000   1.0000   1.0000   1.0000
     1.0000   1.0000   1.0000   1.0000   1.0000   1.0000   1.0000   1.0000
     0.0000   0.0000   0.0000   0.0000   0.0000   0.0000   0.0000   0.0000
     0.0000   0.0000

          k = 0.3750 1.2449 0.1067 (  8544 PWs)   bands (ev):

   -13.2590 -13.2578 -13.2575 -13.2563 -13.2402 -13.2399 -13.2397 -13.2387
   -13.2290 -13.2283 -13.2265 -13.2246 -13.2094 -13.2071 -13.2050 -13.2038
   -13.1801 -13.1787 -13.1771 -13.1765  -4.7751  -4.7308  -4.5612  -4.5599
     0.4606   0.6851   0.7249   0.9372   4.7941   5.1155   5.3587   5.5352
     5.7907   5.9045   6.0780   6.1524   6.8947   6.9769   7.2169   7.2519
     9.2970   9.4062   9.5738   9.7861  10.1728  10.3466  10.4809  10.7602
    11.5129  11.7957

     occupation numbers 
     1.0000   1.0000   1.0000   1.0000   1.0000   1.0000   1.0000   1.0000
     1.0000   1.0000   1.0000   1.0000   1.0000   1.0000   1.0000   1.0000
     1.0000   1.0000   1.0000   1.0000   1.0000   1.0000   1.0000   1.0000
     1.0000   1.0000   1.0000   1.0000   1.0000   1.0000   1.0000   1.0000
     1.0000   1.0000   1.0000   1.0000   1.0000   1.0000   1.0000   1.0000
     0.0000   0.0000   0.0000   0.0000   0.0000   0.0000   0.0000   0.0000
     0.0000   0.0000

          k = 0.3750 1.2449 0.3202 (  8544 PWs)   bands (ev):

   -13.2605 -13.2595 -13.2588 -13.2577 -13.2399 -13.2395 -13.2389 -13.2382
   -13.2287 -13.2280 -13.2260 -13.2243 -13.2090 -13.2072 -13.2044 -13.2034
   -13.1801 -13.1789 -13.1769 -13.1764  -4.7401  -4.6977  -4.5375  -4.5361
     0.5367   0.7509   0.7980   0.9905   4.6427   4.7143   4.9913   5.1346
     5.4460   5.7340   5.8917   6.1451   6.7523   6.9697   6.9949   7.1958
     9.4957   9.5394   9.6560   9.8362  10.7659  10.9785  11.1466  11.3899
    11.7085  12.0762

     occupation numbers 
     1.0000   1.0000   1.0000   1.0000   1.0000   1.0000   1.0000   1.0000
     1.0000   1.0000   1.0000   1.0000   1.0000   1.0000   1.0000   1.0000
     1.0000   1.0000   1.0000   1.0000   1.0000   1.0000   1.0000   1.0000
     1.0000   1.0000   1.0000   1.0000   1.0000   1.0000   1.0000   1.0000
     1.0000   1.0000   1.0000   1.0000   1.0000   1.0000   1.0000   1.0000
     0.0000   0.0000   0.0000   0.0000   0.0000   0.0000   0.0000   0.0000
     0.0000   0.0000

          k = 0.3750 1.2449 0.5336 (  8548 PWs)   bands (ev):

   -13.2631 -13.2622 -13.2610 -13.2601 -13.2394 -13.2389 -13.2379 -13.2374
   -13.2282 -13.2274 -13.2253 -13.2237 -13.2084 -13.2071 -13.2035 -13.2028
   -13.1801 -13.1791 -13.1766 -13.1763  -4.6766  -4.6380  -4.4973  -4.4948
     0.6804   0.8736   0.9354   1.0878   4.1430   4.2689   4.5518   4.6499
     5.1184   5.4705   5.6144   5.9066   6.3549   6.6666   6.7799   7.0872
     9.8060  10.0529  10.2556  10.5812  11.2490  11.4000  11.5739  11.7645
    12.3272  12.4375

     occupation numbers 
     1.0000   1.0000   1.0000   1.0000   1.0000   1.0000   1.0000   1.0000
     1.0000   1.0000   1.0000   1.0000   1.0000   1.0000   1.0000   1.0000
     1.0000   1.0000   1.0000   1.0000   1.0000   1.0000   1.0000   1.0000
     1.0000   1.0000   1.0000   1.0000   1.0000   1.0000   1.0000   1.0000
     1.0000   1.0000   1.0000   1.0000   1.0000   1.0000   1.0000   1.0000
     0.0000   0.0000   0.0000   0.0000   0.0000   0.0000   0.0000   0.0000
     0.0000   0.0000

          k = 0.3750 1.2449 0.7471 (  8521 PWs)   bands (ev):

   -13.2660 -13.2653 -13.2635 -13.2628 -13.2389 -13.2383 -13.2370 -13.2366
   -13.2274 -13.2267 -13.2243 -13.2231 -13.2075 -13.2067 -13.2024 -13.2020
   -13.1800 -13.1792 -13.1762 -13.1760  -4.5971  -4.5640  -4.4529  -4.4484
     0.8692   1.0296   1.1154   1.2132   3.6649   3.8698   4.0513   4.2652
     4.7453   5.0530   5.1684   5.5106   6.1884   6.4665   6.6891   6.9265
    10.2118  10.4541  10.9692  11.1370  11.4469  11.6516  11.9127  12.0640
    12.9877  13.2036

     occupation numbers 
     1.0000   1.0000   1.0000   1.0000   1.0000   1.0000   1.0000   1.0000
     1.0000   1.0000   1.0000   1.0000   1.0000   1.0000   1.0000   1.0000
     1.0000   1.0000   1.0000   1.0000   1.0000   1.0000   1.0000   1.0000
     1.0000   1.0000   1.0000   1.0000   1.0000   1.0000   1.0000   1.0000
     1.0000   1.0000   1.0000   1.0000   1.0000   1.0000   1.0000   1.0000
     0.0000   0.0000   0.0000   0.0000   0.0000   0.0000   0.0000   0.0000
     0.0000   0.0000

          k = 0.3750 1.2449 0.9605 (  8512 PWs)   bands (ev):

   -13.2684 -13.2679 -13.2656 -13.2652 -13.2386 -13.2381 -13.2363 -13.2360
   -13.2267 -13.2262 -13.2235 -13.2227 -13.2066 -13.2062 -13.2016 -13.2013
   -13.1798 -13.1793 -13.1760 -13.1758  -4.5187  -4.4931  -4.4194  -4.4122
     1.0571   1.1665   1.2986   1.3531   3.3583   3.6017   3.6660   3.9461
     4.3663   4.6336   4.7304   5.0627   6.2090   6.4314   6.6817   6.8153
    10.3902  10.5983  10.9197  11.1132  12.0949  12.1803  12.4986  12.5492
    13.7403  13.9311

     occupation numbers 
     1.0000   1.0000   1.0000   1.0000   1.0000   1.0000   1.0000   1.0000
     1.0000   1.0000   1.0000   1.0000   1.0000   1.0000   1.0000   1.0000
     1.0000   1.0000   1.0000   1.0000   1.0000   1.0000   1.0000   1.0000
     1.0000   1.0000   1.0000   1.0000   1.0000   1.0000   1.0000   1.0000
     1.0000   1.0000   1.0000   1.0000   1.0000   1.0000   1.0000   1.0000
     0.0000   0.0000   0.0000   0.0000   0.0000   0.0000   0.0000   0.0000
     0.0000   0.0000

          k = 0.3750 1.2449 1.1740 (  8487 PWs)   bands (ev):

   -13.2697 -13.2695 -13.2667 -13.2666 -13.2383 -13.2382 -13.2359 -13.2358
   -13.2261 -13.2260 -13.2228 -13.2225 -13.2060 -13.2058 -13.2010 -13.2009
   -13.1796 -13.1794 -13.1758 -13.1757  -4.4610  -4.4485  -4.4051  -4.3990
     1.1853   1.2231   1.4355   1.4563   3.2651   3.3819   3.5531   3.6805
     4.2185   4.3156   4.5432   4.6935   6.3152   6.4066   6.6998   6.7393
    10.4759  10.5919  10.8119  10.9338  12.6548  12.6772  12.8225  12.8516
    14.3166  14.3976

     occupation numbers 
     1.0000   1.0000   1.0000   1.0000   1.0000   1.0000   1.0000   1.0000
     1.0000   1.0000   1.0000   1.0000   1.0000   1.0000   1.0000   1.0000
     1.0000   1.0000   1.0000   1.0000   1.0000   1.0000   1.0000   1.0000
     1.0000   1.0000   1.0000   1.0000   1.0000   1.0000   1.0000   1.0000
     1.0000   1.0000   1.0000   1.0000   1.0000   1.0000   1.0000   1.0000
     0.0000   0.0000   0.0000   0.0000   0.0000   0.0000   0.0000   0.0000
     0.0000   0.0000

     highest occupied, lowest unoccupied level (ev):     7.9896    8.8417

!    total energy              =    -827.62127231 Ry
     estimated scf accuracy    <          1.0E-09 Ry

     The total energy is the sum of the following terms:
     one-electron contribution =    -257.00354002 Ry
     hartree contribution      =     179.10541519 Ry
     xc contribution           =    -309.11833129 Ry
     ewald contribution        =    -440.60481620 Ry

     convergence has been achieved in   9 iterations

     Forces acting on atoms (cartesian axes, Ry/au):

     atom    1 type  2   force =     0.00879114    0.00000000   -0.00119189
     atom    2 type  1   force =    -0.00822552    0.00000000   -0.00146699
     atom    3 type  2   force =    -0.00879114    0.00000000   -0.00119189
     atom    4 type  1   force =     0.00822552    0.00000000   -0.00146699
     atom    5 type  2   force =     0.00879114    0.00000000    0.00119189
     atom    6 type  1   force =    -0.00822552    0.00000000    0.00146699
     atom    7 type  2   force =    -0.00879114    0.00000000    0.00119189
     atom    8 type  1   force =     0.00822552    0.00000000    0.00146699
     The non-local contrib.  to forces
     atom    1 type  2   force =    -0.11402713    0.00000000    0.09810687
     atom    2 type  1   force =     0.36241633    0.00000000    0.27062349
     atom    3 type  2   force =     0.11402713    0.00000000    0.09810687
     atom    4 type  1   force =    -0.36241633    0.00000000    0.27062349
     atom    5 type  2   force =    -0.11402713    0.00000000   -0.09810687
     atom    6 type  1   force =     0.36241633    0.00000000   -0.27062349
     atom    7 type  2   force =     0.11402713    0.00000000   -0.09810687
     atom    8 type  1   force =    -0.36241633    0.00000000   -0.27062349
     The ionic contribution  to forces
     atom    1 type  2   force =     1.53473235    0.00000000   -1.05154455
     atom    2 type  1   force =    -1.03769718    0.00000000   -0.57506129
     atom    3 type  2   force =    -1.53473235    0.00000000   -1.05154455
     atom    4 type  1   force =     1.03769718   -0.00000000   -0.57506129
     atom    5 type  2   force =     1.53473235    0.00000000    1.05154455
     atom    6 type  1   force =    -1.03769718   -0.00000000    0.57506129
     atom    7 type  2   force =    -1.53473235   -0.00000000    1.05154455
     atom    8 type  1   force =     1.03769718    0.00000000    0.57506129
     The local contribution  to forces
     atom    1 type  2   force =    -1.42441828   -0.00000000    0.96309550
     atom    2 type  1   force =     0.67253529   -0.00000000    0.30744838
     atom    3 type  2   force =     1.42441828   -0.00000000    0.96309550
     atom    4 type  1   force =    -0.67253529    0.00000000    0.30744838
     atom    5 type  2   force =    -1.42441828    0.00000000   -0.96309550
     atom    6 type  1   force =     0.67253529    0.00000000   -0.30744838
     atom    7 type  2   force =     1.42441828    0.00000000   -0.96309550
     atom    8 type  1   force =    -0.67253529    0.00000000   -0.30744838
     The core correction contribution to forces
     atom    1 type  2   force =     0.01247737   -0.00000000   -0.01084975
     atom    2 type  1   force =    -0.00543431   -0.00000000   -0.00450739
     atom    3 type  2   force =    -0.01247737    0.00000000   -0.01084975
     atom    4 type  1   force =     0.00543431    0.00000000   -0.00450739
     atom    5 type  2   force =     0.01247737   -0.00000000    0.01084975
     atom    6 type  1   force =    -0.00543431   -0.00000000    0.00450739
     atom    7 type  2   force =    -0.01247737   -0.00000000    0.01084975
     atom    8 type  1   force =     0.00543431    0.00000000    0.00450739
     The Hubbard contrib.    to forces
     atom    1 type  2   force =     0.00000000    0.00000000    0.00000000
     atom    2 type  1   force =     0.00000000    0.00000000    0.00000000
     atom    3 type  2   force =     0.00000000    0.00000000    0.00000000
     atom    4 type  1   force =     0.00000000    0.00000000    0.00000000
     atom    5 type  2   force =     0.00000000    0.00000000    0.00000000
     atom    6 type  1   force =     0.00000000    0.00000000    0.00000000
     atom    7 type  2   force =     0.00000000    0.00000000    0.00000000
     atom    8 type  1   force =     0.00000000    0.00000000    0.00000000
     The SCF correction term to forces
     atom    1 type  2   force =     0.00002683   -0.00000000    0.00000003
     atom    2 type  1   force =    -0.00004565    0.00000000    0.00002982
     atom    3 type  2   force =    -0.00002683    0.00000000    0.00000003
     atom    4 type  1   force =     0.00004565   -0.00000000    0.00002982
     atom    5 type  2   force =     0.00002683   -0.00000000   -0.00000003
     atom    6 type  1   force =    -0.00004565    0.00000000   -0.00002982
     atom    7 type  2   force =    -0.00002683    0.00000000   -0.00000003
     atom    8 type  1   force =     0.00004565    0.00000000   -0.00002982

     Total force =     0.024373     Total SCF correction =     0.000122

     Writing output data file ./tmp/SnSe_pnma.save/

     init_run     :     12.63s CPU     13.39s WALL (       1 calls)
     electrons    :    386.33s CPU    415.00s WALL (       1 calls)
     forces       :      9.86s CPU     10.92s WALL (       1 calls)

     Called by init_run:
     wfcinit      :      6.89s CPU      7.29s WALL (       1 calls)
     wfcinit:atom :      0.09s CPU      0.08s WALL (      12 calls)
     wfcinit:wfcr :      6.16s CPU      6.67s WALL (      12 calls)
     potinit      :      1.28s CPU      1.40s WALL (       1 calls)
     hinit0       :      2.19s CPU      2.23s WALL (       1 calls)

     Called by electrons:
     c_bands      :    326.20s CPU    348.45s WALL (       9 calls)
     sum_band     :     41.66s CPU     44.53s WALL (       9 calls)
     v_of_rho     :      4.53s CPU      5.16s WALL (      10 calls)
     v_h          :      0.33s CPU      0.33s WALL (      10 calls)
     v_xc         :      4.60s CPU      5.29s WALL (      11 calls)
     newd         :     15.12s CPU     18.29s WALL (      10 calls)
     mix_rho      :      0.84s CPU      0.82s WALL (       9 calls)

     Called by c_bands:
     init_us_2    :      3.16s CPU      2.80s WALL (     240 calls)
     cegterg      :    211.21s CPU    235.20s WALL (     108 calls)

     Called by sum_band:
     sum_band:wei :      0.04s CPU      0.03s WALL (       9 calls)
     sum_band:loo :     30.13s CPU     32.07s WALL (       9 calls)
     sum_band:buf :      0.25s CPU      0.20s WALL (     108 calls)
     sum_band:ini :      1.39s CPU      1.20s WALL (     108 calls)
     sum_band:cal :      6.84s CPU     10.62s WALL (     108 calls)
     sum_band:bec :      0.02s CPU      0.01s WALL (     108 calls)
     addusdens    :      5.51s CPU      6.57s WALL (       9 calls)
     addusd:skk   :      0.02s CPU      0.06s WALL (      18 calls)
     addusd:dgemm :      1.83s CPU      2.44s WALL (      18 calls)
     addusd:qvan2 :      2.88s CPU      2.72s WALL (      18 calls)

     Called by *egterg:
     cdiaghg      :     12.49s CPU     22.60s WALL (     473 calls)
     cegterg:over :     25.67s CPU     41.82s WALL (     365 calls)
     cegterg:upda :      7.53s CPU      3.79s WALL (     365 calls)
     cegterg:last :     13.23s CPU      4.69s WALL (     232 calls)
     h_psi        :    130.26s CPU    135.37s WALL (     485 calls)
     s_psi        :     14.09s CPU      4.93s WALL (     485 calls)
     g_psi        :      1.09s CPU      0.93s WALL (     365 calls)

     Called by h_psi:
     h_psi:calbec :     23.13s CPU     40.45s WALL (     485 calls)
     vloc_psi     :     92.33s CPU     88.98s WALL (     485 calls)
     add_vuspsi   :     14.05s CPU      4.99s WALL (     485 calls)

     General routines
     calbec       :     32.25s CPU     52.80s WALL (     641 calls)
     fft          :      2.85s CPU      2.84s WALL (     139 calls)
     ffts         :      0.08s CPU      0.08s WALL (      19 calls)
     fftw         :     91.22s CPU     87.26s WALL (   35168 calls)
     interpolate  :      0.29s CPU      0.29s WALL (      10 calls)

     Parallel routines

     PWSCF        :   6m52.08s CPU   7m22.94s WALL


   This run was terminated on:  23:47:28  17May2026            

=------------------------------------------------------------------------------=
   JOB DONE.
=------------------------------------------------------------------------------=
