
     Program POST-PROC v.6.7MaX starts on 26May2026 at 22:57: 7 

     This program is part of the open-source Quantum ESPRESSO suite
     for quantum simulation of materials; please cite
         "P. Giannozzi et al., J. Phys.:Condens. Matter 21 395502 (2009);
         "P. Giannozzi et al., J. Phys.:Condens. Matter 29 465901 (2017);
          URL http://www.quantum-espresso.org", 
     in publications or presentations arising from this work. More details at
     http://www.quantum-espresso.org/quote

     Parallel version (MPI), running on     1 processors

     MPI processes distributed on     1 nodes

     Reading xml data from directory:

     ./tmp/SnSe_monolayer.save/

     IMPORTANT: XC functional enforced from input :
     Exchange-correlation= PBE
                           (   1   4   3   4   0   0   0)
     Any further DFT definition will be discarded
     Please, verify this is what you really want


     G-vector sticks info
     --------------------
     sticks:   dense  smooth     PW     G-vecs:    dense   smooth      PW
     Sum        1629     641    199                90067    22729    3795


     Calling punch_plot, plot_num =  11
     Writing data to file  potential_files/snse_mono_potential_C8.pp
     Reading data from file  potential_files/snse_mono_potential_C8.pp
 CRYSTAL
 PRIMVEC
    4.555500000    0.000000000    0.000000000
    0.000000000    4.171400000    0.000000000
    0.000000000    0.000000000    8.000000000
 PRIMCOORD
           4           1
Sn        0.453298954    3.128550000    2.609543411
Se        2.412287972    1.042850000    2.674241007
Se        0.134537972    3.128550000    5.325758993
Sn        2.731048954    1.042850000    5.390456589
BEGIN_BLOCK_DATAGRID_3D
3D_PWSCF
BEGIN_DATAGRID_3D_UNKNOWN
          49          49          91
  0.000000  0.000000  0.000000
    4.555500    0.000000    0.000000
    0.000000    4.171400    0.000000
    0.000000    0.000000    8.000000
  0.647118E+00  0.646965E+00  0.647096E+00  0.646919E+00  0.646731E+00  0.646839E+00
  0.646617E+00  0.646503E+00  0.646579E+00  0.646517E+00  0.646333E+00  0.646622E+00
  0.646341E+00  0.646344E+00  0.646303E+00  0.646463E+00  0.646992E+00  0.647188E+00
  0.647264E+00  0.646792E+00  0.647066E+00  0.647205E+00  0.647166E+00  0.647250E+00
  0.647118E+00  0.646965E+00  0.647096E+00  0.646919E+00  0.646731E+00  0.646839E+00
  0.646617E+00  0.646503E+00  0.646579E+00  0.646517E+00  0.646333E+00  0.646622E+00
  0.646341E+00  0.646344E+00  0.646303E+00  0.646463E+00  0.646992E+00  0.647188E+00
  0.647264E+00  0.646792E+00  0.647066E+00  0.647205E+00  0.647166E+00  0.647250E+00
  0.647118E+00  0.646873E+00  0.646875E+00  0.646751E+00  0.646831E+00  0.646593E+00
  0.646460E+00  0.646754E+00  0.646909E+00  0.646737E+00  0.646818E+00  0.646548E+00
  0.646911E+00  0.646724E+00  0.646698E+00  0.646865E+00  0.647095E+00  0.647232E+00
  0.647441E+00  0.647571E+00  0.647583E+00  0.647714E+00  0.647857E+00  0.647820E+00
  0.647663E+00  0.647466E+00  0.647398E+00  0.647372E+00  0.646992E+00  0.647059E+00
  0.647081E+00  0.646549E+00  0.646439E+00  0.646564E+00  0.646360E+00  0.646314E+00
  0.646369E+00  0.646452E+00  0.646409E+00  0.646240E+00  0.646134E+00  0.646416E+00
  0.646280E+00  0.646391E+00  0.646461E+00  0.646746E+00  0.646659E+00  0.646687E+00
  0.646713E+00  0.646873E+00  0.646480E+00  0.646415E+00  0.646189E+00  0.646540E+00
  0.646612E+00  0.646443E+00  0.646606E+00  0.646509E+00  0.646181E+00  0.646802E+00
  0.646722E+00  0.646798E+00  0.646721E+00  0.646767E+00  0.647326E+00  0.647805E+00
  0.647831E+00  0.647900E+00  0.647660E+00  0.648263E+00  0.648260E+00  0.648315E+00
  0.648303E+00  0.648128E+00  0.648017E+00  0.648030E+00  0.647891E+00  0.647565E+00
  0.647667E+00  0.647340E+00  0.646829E+00  0.646731E+00  0.646715E+00  0.646253E+00
  0.646255E+00  0.645901E+00  0.646222E+00  0.646051E+00  0.645850E+00  0.645548E+00
  0.645668E+00  0.645949E+00  0.646088E+00  0.646045E+00  0.645994E+00  0.645948E+00
  0.646259E+00  0.646302E+00  0.646480E+00  0.645905E+00  0.645905E+00  0.646057E+00
  0.646378E+00  0.646310E+00  0.646292E+00  0.646615E+00  0.646561E+00  0.646131E+00
  0.646659E+00  0.646644E+00  0.646792E+00  0.647110E+00  0.647436E+00  0.647880E+00
  0.648042E+00  0.647909E+00  0.648299E+00  0.648176E+00  0.648572E+00  0.648462E+00
  0.648725E+00  0.648755E+00  0.648790E+00  0.648528E+00  0.648402E+00  0.648401E+00
  0.648058E+00  0.647940E+00  0.647594E+00  0.647148E+00  0.646645E+00  0.646459E+00
  0.645970E+00  0.646177E+00  0.645547E+00  0.645700E+00  0.645596E+00  0.645546E+00
  0.645342E+00  0.645140E+00  0.645297E+00  0.645465E+00  0.645460E+00  0.645697E+00
  0.645688E+00  0.645663E+00  0.645769E+00  0.645905E+00  0.645427E+00  0.645451E+00
  0.645537E+00  0.645826E+00  0.645746E+00  0.645659E+00  0.646162E+00  0.646380E+00
  0.646255E+00  0.646780E+00  0.646941E+00  0.647198E+00  0.647445E+00  0.647834E+00
  0.648030E+00  0.648264E+00  0.648087E+00  0.648553E+00  0.648974E+00  0.649222E+00
  0.649179E+00  0.649267E+00  0.649088E+00  0.649165E+00  0.648970E+00  0.648844E+00
  0.648761E+00  0.648370E+00  0.648118E+00  0.647827E+00  0.647572E+00  0.647034E+00
  0.646691E+00  0.646119E+00  0.646114E+00  0.645546E+00  0.645471E+00  0.645251E+00
  0.645217E+00  0.645293E+00  0.644994E+00  0.644596E+00  0.644832E+00  0.644888E+00
  0.645210E+00  0.645192E+00  0.645119E+00  0.645380E+00  0.645427E+00  0.644962E+00
  0.645079E+00  0.644839E+00  0.645229E+00  0.645565E+00  0.645502E+00  0.645803E+00
  0.645963E+00  0.646309E+00  0.646993E+00  0.647185E+00  0.647300E+00  0.647398E+00
  0.647954E+00  0.648066E+00  0.648615E+00  0.648804E+00  0.649207E+00  0.649481E+00
  0.649567E+00  0.649723E+00  0.649453E+00  0.649551E+00  0.649615E+00  0.649538E+00
  0.649383E+00  0.649092E+00  0.648886E+00  0.648476E+00  0.647867E+00  0.647659E+00
  0.647340E+00  0.646761E+00  0.646286E+00  0.645757E+00  0.645384E+00  0.645134E+00
  0.644610E+00  0.644698E+00  0.644755E+00  0.644810E+00  0.644620E+00  0.644746E+00
  0.644524E+00  0.644562E+00  0.644463E+00  0.644582E+00  0.644906E+00  0.644962E+00
  0.644556E+00  0.645044E+00  0.645065E+00  0.645255E+00  0.645426E+00  0.645658E+00
  0.646118E+00  0.646324E+00  0.646510E+00  0.646764E+00  0.647047E+00  0.647395E+00
  0.647827E+00  0.648414E+00  0.648557E+00  0.648996E+00  0.649047E+00  0.649437E+00
  0.649589E+00  0.649820E+00  0.650265E+00  0.649835E+00  0.650149E+00  0.649921E+00
  0.649808E+00  0.649686E+00  0.649391E+00  0.649214E+00  0.648692E+00  0.648122E+00
  0.647844E+00  0.647566E+00  0.646705E+00  0.646228E+00  0.645377E+00  0.645294E+00
  0.645182E+00  0.644672E+00  0.644778E+00  0.644190E+00  0.644201E+00  0.644211E+00
  0.644025E+00  0.644039E+00  0.644213E+00  0.644298E+00  0.644429E+00  0.644417E+00
  0.644556E+00  0.644278E+00  0.644681E+00  0.644883E+00  0.645082E+00  0.645427E+00
  0.645866E+00  0.646056E+00  0.646409E+00  0.646662E+00  0.646821E+00  0.647180E+00
  0.647380E+00  0.648005E+00  0.648279E+00  0.648646E+00  0.649319E+00  0.649478E+00
  0.649916E+00  0.650087E+00  0.650134E+00  0.650368E+00  0.650256E+00  0.650555E+00
  0.650248E+00  0.650135E+00  0.650094E+00  0.649688E+00  0.649078E+00  0.648704E+00
  0.648488E+00  0.647746E+00  0.647286E+00  0.646803E+00  0.646323E+00  0.645656E+00
  0.645434E+00  0.644906E+00  0.644407E+00  0.644408E+00  0.643906E+00  0.644051E+00
  0.644040E+00  0.643735E+00  0.644049E+00  0.643790E+00  0.643925E+00  0.644252E+00
  0.644077E+00  0.644278E+00  0.644164E+00  0.644517E+00  0.644562E+00  0.644506E+00
  0.644977E+00  0.645314E+00  0.645164E+00  0.645874E+00  0.646611E+00  0.646890E+00
  0.647247E+00  0.647502E+00  0.648534E+00  0.648770E+00  0.648974E+00  0.649298E+00
  0.649765E+00  0.650219E+00  0.650535E+00  0.650579E+00  0.650561E+00  0.650765E+00
  0.650723E+00  0.650697E+00  0.650366E+00  0.650269E+00  0.649859E+00  0.649043E+00
  0.648825E+00  0.648679E+00  0.647781E+00  0.647060E+00  0.647036E+00  0.646391E+00
  0.645945E+00  0.645249E+00  0.644333E+00  0.644250E+00  0.644180E+00  0.643943E+00
  0.643704E+00  0.643574E+00  0.643443E+00  0.643901E+00  0.643504E+00  0.643594E+00
  0.643869E+00  0.643778E+00  0.644164E+00  0.643619E+00  0.644143E+00  0.644512E+00
  0.644419E+00  0.644845E+00  0.645306E+00  0.645441E+00  0.646039E+00  0.646511E+00
  0.646510E+00  0.647085E+00  0.647821E+00  0.648631E+00  0.648742E+00  0.649048E+00
  0.649329E+00  0.650099E+00  0.650219E+00  0.650489E+00  0.650840E+00  0.650904E+00
  0.651101E+00  0.650671E+00  0.651109E+00  0.650643E+00  0.650351E+00  0.649916E+00
  0.649341E+00  0.648909E+00  0.648223E+00  0.647935E+00  0.647174E+00  0.646949E+00
  0.646204E+00  0.645965E+00  0.645165E+00  0.644443E+00  0.644392E+00  0.643812E+00
  0.643717E+00  0.643210E+00  0.643279E+00  0.643188E+00  0.643199E+00  0.643221E+00
  0.643592E+00  0.643754E+00  0.643586E+00  0.643619E+00  0.643568E+00  0.644006E+00
  0.644360E+00  0.644502E+00  0.645036E+00  0.645502E+00  0.645744E+00  0.646144E+00
  0.646786E+00  0.646852E+00  0.647299E+00  0.647906E+00  0.648318E+00  0.648562E+00
  0.648988E+00  0.649566E+00  0.650454E+00  0.650498E+00  0.650646E+00  0.650768E+00
  0.650884E+00  0.651261E+00  0.650943E+00  0.651311E+00  0.650762E+00  0.650426E+00
  0.649964E+00  0.649675E+00  0.649144E+00  0.648056E+00  0.648116E+00  0.647384E+00
  0.646661E+00  0.645906E+00  0.645773E+00  0.645213E+00  0.644625E+00  0.644077E+00
  0.643342E+00  0.643648E+00  0.643378E+00  0.643399E+00  0.643334E+00  0.643075E+00
  0.643016E+00  0.643206E+00  0.643407E+00  0.643607E+00  0.643568E+00  0.643671E+00
  0.644069E+00  0.644258E+00  0.644478E+00  0.644821E+00  0.645061E+00  0.645394E+00
  0.645945E+00  0.646788E+00  0.646868E+00  0.647295E+00  0.647840E+00  0.648434E+00
  0.649021E+00  0.649104E+00  0.649691E+00  0.650255E+00  0.650495E+00  0.650887E+00
  0.650936E+00  0.651096E+00  0.651330E+00  0.651219E+00  0.651252E+00  0.650691E+00
  0.650516E+00  0.650116E+00  0.649570E+00  0.649202E+00  0.648480E+00  0.647997E+00
  0.647323E+00  0.646892E+00  0.646074E+00  0.645497E+00  0.645062E+00  0.644474E+00
  0.644026E+00  0.643683E+00  0.643465E+00  0.643233E+00  0.643067E+00  0.643015E+00
  0.643039E+00  0.642933E+00  0.643014E+00  0.643173E+00  0.643505E+00  0.643671E+00
  0.643313E+00  0.643759E+00  0.644143E+00  0.644535E+00  0.644793E+00  0.645038E+00
  0.645552E+00  0.646091E+00  0.646578E+00  0.646403E+00  0.647037E+00  0.647750E+00
  0.648407E+00  0.649029E+00  0.648985E+00  0.649734E+00  0.650128E+00  0.650374E+00
  0.650886E+00  0.651052E+00  0.651236E+00  0.651183E+00  0.651178E+00  0.651260E+00
  0.650832E+00  0.650731E+00  0.650276E+00  0.649322E+00  0.648965E+00  0.648526E+00
  0.647534E+00  0.646953E+00  0.647090E+00  0.646359E+00  0.645462E+00  0.645011E+00
  0.644376E+00  0.644128E+00  0.643916E+00  0.643057E+00  0.642904E+00  0.642896E+00
  0.642796E+00  0.642892E+00  0.642887E+00  0.643174E+00  0.643275E+00  0.643293E+00
  0.643313E+00  0.643671E+00  0.644069E+00  0.644258E+00  0.644478E+00  0.644821E+00
  0.645061E+00  0.645394E+00  0.645945E+00  0.646788E+00  0.646868E+00  0.647295E+00
  0.647840E+00  0.648434E+00  0.649021E+00  0.649104E+00  0.649691E+00  0.650255E+00
  0.650495E+00  0.650887E+00  0.650936E+00  0.651096E+00  0.651330E+00  0.651219E+00
  0.651252E+00  0.650691E+00  0.650516E+00  0.650116E+00  0.649570E+00  0.649202E+00
  0.648480E+00  0.647997E+00  0.647323E+00  0.646892E+00  0.646074E+00  0.645497E+00
  0.645062E+00  0.644474E+00  0.644026E+00  0.643683E+00  0.643465E+00  0.643233E+00
  0.643067E+00  0.643015E+00  0.643039E+00  0.642933E+00  0.643014E+00  0.643173E+00
  0.643505E+00  0.643671E+00  0.643568E+00  0.644006E+00  0.644360E+00  0.644502E+00
  0.645036E+00  0.645502E+00  0.645744E+00  0.646144E+00  0.646786E+00  0.646852E+00
  0.647299E+00  0.647906E+00  0.648318E+00  0.648562E+00  0.648988E+00  0.649566E+00
  0.650454E+00  0.650498E+00  0.650646E+00  0.650768E+00  0.650884E+00  0.651261E+00
  0.650943E+00  0.651311E+00  0.650762E+00  0.650426E+00  0.649964E+00  0.649675E+00
  0.649144E+00  0.648056E+00  0.648116E+00  0.647384E+00  0.646661E+00  0.645906E+00
  0.645773E+00  0.645213E+00  0.644625E+00  0.644077E+00  0.643342E+00  0.643648E+00
  0.643378E+00  0.643399E+00  0.643334E+00  0.643075E+00  0.643016E+00  0.643206E+00
  0.643407E+00  0.643607E+00  0.643568E+00  0.643619E+00  0.644143E+00  0.644512E+00
  0.644419E+00  0.644845E+00  0.645306E+00  0.645441E+00  0.646039E+00  0.646511E+00
  0.646510E+00  0.647085E+00  0.647821E+00  0.648631E+00  0.648742E+00  0.649048E+00
  0.649329E+00  0.650099E+00  0.650219E+00  0.650489E+00  0.650840E+00  0.650904E+00
  0.651101E+00  0.650671E+00  0.651109E+00  0.650643E+00  0.650351E+00  0.649916E+00
  0.649341E+00  0.648909E+00  0.648223E+00  0.647935E+00  0.647174E+00  0.646949E+00
  0.646204E+00  0.645965E+00  0.645165E+00  0.644443E+00  0.644392E+00  0.643812E+00
  0.643717E+00  0.643210E+00  0.643279E+00  0.643188E+00  0.643199E+00  0.643221E+00
  0.643592E+00  0.643754E+00  0.643586E+00  0.643619E+00  0.644164E+00  0.644517E+00
  0.644562E+00  0.644506E+00  0.644977E+00  0.645314E+00  0.645164E+00  0.645874E+00
  0.646611E+00  0.646890E+00  0.647247E+00  0.647502E+00  0.648534E+00  0.648770E+00
  0.648974E+00  0.649298E+00  0.649765E+00  0.650219E+00  0.650535E+00  0.650579E+00
  0.650561E+00  0.650765E+00  0.650723E+00  0.650697E+00  0.650366E+00  0.650269E+00
  0.649859E+00  0.649043E+00  0.648825E+00  0.648679E+00  0.647781E+00  0.647060E+00
  0.647036E+00  0.646391E+00  0.645945E+00  0.645249E+00  0.644333E+00  0.644250E+00
  0.644180E+00  0.643943E+00  0.643704E+00  0.643574E+00  0.643443E+00  0.643901E+00
  0.643504E+00  0.643594E+00  0.643869E+00  0.643778E+00  0.644164E+00  0.644278E+00
  0.644681E+00  0.644883E+00  0.645082E+00  0.645427E+00  0.645866E+00  0.646056E+00
  0.646409E+00  0.646662E+00  0.646821E+00  0.647180E+00  0.647380E+00  0.648005E+00
  0.648279E+00  0.648646E+00  0.649319E+00  0.649478E+00  0.649916E+00  0.650087E+00
  0.650134E+00  0.650368E+00  0.650256E+00  0.650555E+00  0.650248E+00  0.650135E+00
  0.650094E+00  0.649688E+00  0.649078E+00  0.648704E+00  0.648488E+00  0.647746E+00
  0.647286E+00  0.646803E+00  0.646323E+00  0.645656E+00  0.645434E+00  0.644906E+00
  0.644407E+00  0.644408E+00  0.643906E+00  0.644051E+00  0.644040E+00  0.643735E+00
  0.644049E+00  0.643790E+00  0.643925E+00  0.644252E+00  0.644077E+00  0.644278E+00
  0.644556E+00  0.645044E+00  0.645065E+00  0.645255E+00  0.645426E+00  0.645658E+00
  0.646118E+00  0.646324E+00  0.646510E+00  0.646764E+00  0.647047E+00  0.647395E+00
  0.647827E+00  0.648414E+00  0.648557E+00  0.648996E+00  0.649047E+00  0.649437E+00
  0.649589E+00  0.649820E+00  0.650265E+00  0.649835E+00  0.650149E+00  0.649921E+00
  0.649808E+00  0.649686E+00  0.649391E+00  0.649214E+00  0.648692E+00  0.648122E+00
  0.647844E+00  0.647566E+00  0.646705E+00  0.646228E+00  0.645377E+00  0.645294E+00
  0.645182E+00  0.644672E+00  0.644778E+00  0.644190E+00  0.644201E+00  0.644211E+00
  0.644025E+00  0.644039E+00  0.644213E+00  0.644298E+00  0.644429E+00  0.644417E+00
  0.644556E+00  0.644962E+00  0.645079E+00  0.644839E+00  0.645229E+00  0.645565E+00
  0.645502E+00  0.645803E+00  0.645963E+00  0.646309E+00  0.646993E+00  0.647185E+00
  0.647300E+00  0.647398E+00  0.647954E+00  0.648066E+00  0.648615E+00  0.648804E+00
  0.649207E+00  0.649481E+00  0.649567E+00  0.649723E+00  0.649453E+00  0.649551E+00
  0.649615E+00  0.649538E+00  0.649383E+00  0.649092E+00  0.648886E+00  0.648476E+00
  0.647867E+00  0.647659E+00  0.647340E+00  0.646761E+00  0.646286E+00  0.645757E+00
  0.645384E+00  0.645134E+00  0.644610E+00  0.644698E+00  0.644755E+00  0.644810E+00
  0.644620E+00  0.644746E+00  0.644524E+00  0.644562E+00  0.644463E+00  0.644582E+00
  0.644906E+00  0.644962E+00  0.645427E+00  0.645451E+00  0.645537E+00  0.645826E+00
  0.645746E+00  0.645659E+00  0.646162E+00  0.646380E+00  0.646255E+00  0.646780E+00
  0.646941E+00  0.647198E+00  0.647445E+00  0.647834E+00  0.648030E+00  0.648264E+00
  0.648087E+00  0.648553E+00  0.648974E+00  0.649222E+00  0.649179E+00  0.649267E+00
  0.649088E+00  0.649165E+00  0.648970E+00  0.648844E+00  0.648761E+00  0.648370E+00
  0.648118E+00  0.647827E+00  0.647572E+00  0.647034E+00  0.646691E+00  0.646119E+00
  0.646114E+00  0.645546E+00  0.645471E+00  0.645251E+00  0.645217E+00  0.645293E+00
  0.644994E+00  0.644596E+00  0.644832E+00  0.644888E+00  0.645210E+00  0.645192E+00
  0.645119E+00  0.645380E+00  0.645427E+00  0.645905E+00  0.645905E+00  0.646057E+00
  0.646378E+00  0.646310E+00  0.646292E+00  0.646615E+00  0.646561E+00  0.646131E+00
  0.646659E+00  0.646644E+00  0.646792E+00  0.647110E+00  0.647436E+00  0.647880E+00
  0.648042E+00  0.647909E+00  0.648299E+00  0.648176E+00  0.648572E+00  0.648462E+00
  0.648725E+00  0.648755E+00  0.648790E+00  0.648528E+00  0.648402E+00  0.648401E+00
  0.648058E+00  0.647940E+00  0.647594E+00  0.647148E+00  0.646645E+00  0.646459E+00
  0.645970E+00  0.646177E+00  0.645547E+00  0.645700E+00  0.645596E+00  0.645546E+00
  0.645342E+00  0.645140E+00  0.645297E+00  0.645465E+00  0.645460E+00  0.645697E+00
  0.645688E+00  0.645663E+00  0.645769E+00  0.645905E+00  0.646480E+00  0.646415E+00
  0.646189E+00  0.646540E+00  0.646612E+00  0.646443E+00  0.646606E+00  0.646509E+00
  0.646181E+00  0.646802E+00  0.646722E+00  0.646798E+00  0.646721E+00  0.646767E+00
  0.647326E+00  0.647805E+00  0.647831E+00  0.647900E+00  0.647660E+00  0.648263E+00
  0.648260E+00  0.648315E+00  0.648303E+00  0.648128E+00  0.648017E+00  0.648030E+00
  0.647891E+00  0.647565E+00  0.647667E+00  0.647340E+00  0.646829E+00  0.646731E+00
  0.646715E+00  0.646253E+00  0.646255E+00  0.645901E+00  0.646222E+00  0.646051E+00
  0.645850E+00  0.645548E+00  0.645668E+00  0.645949E+00  0.646088E+00  0.646045E+00
  0.645994E+00  0.645948E+00  0.646259E+00  0.646302E+00  0.646480E+00  0.646873E+00
  0.646875E+00  0.646751E+00  0.646831E+00  0.646593E+00  0.646460E+00  0.646754E+00
  0.646909E+00  0.646737E+00  0.646818E+00  0.646548E+00  0.646911E+00  0.646724E+00
  0.646698E+00  0.646865E+00  0.647095E+00  0.647232E+00  0.647441E+00  0.647571E+00
  0.647583E+00  0.647714E+00  0.647857E+00  0.647820E+00  0.647663E+00  0.647466E+00
  0.647398E+00  0.647372E+00  0.646992E+00  0.647059E+00  0.647081E+00  0.646549E+00
  0.646439E+00  0.646564E+00  0.646360E+00  0.646314E+00  0.646369E+00  0.646452E+00
  0.646409E+00  0.646240E+00  0.646134E+00  0.646416E+00  0.646280E+00  0.646391E+00
  0.646461E+00  0.646746E+00  0.646659E+00  0.646687E+00  0.646713E+00  0.646873E+00
  0.647118E+00  0.646965E+00  0.647096E+00  0.646919E+00  0.646731E+00  0.646839E+00
  0.646617E+00  0.646503E+00  0.646579E+00  0.646517E+00  0.646333E+00  0.646622E+00
  0.646341E+00  0.646344E+00  0.646303E+00  0.646463E+00  0.646992E+00  0.647188E+00
  0.647264E+00  0.646792E+00  0.647066E+00  0.647205E+00  0.647166E+00  0.647250E+00
  0.647118E+00  0.646965E+00  0.647096E+00  0.646919E+00  0.646731E+00  0.646839E+00
  0.646617E+00  0.646503E+00  0.646579E+00  0.646517E+00  0.646333E+00  0.646622E+00
  0.646341E+00  0.646344E+00  0.646303E+00  0.646463E+00  0.646992E+00  0.647188E+00
  0.647264E+00  0.646792E+00  0.647066E+00  0.647205E+00  0.647166E+00  0.647250E+00
  0.647118E+00  0.647466E+00  0.647398E+00  0.647372E+00  0.646992E+00  0.647059E+00
  0.647081E+00  0.646549E+00  0.646439E+00  0.646564E+00  0.646360E+00  0.646314E+00
  0.646369E+00  0.646452E+00  0.646409E+00  0.646240E+00  0.646134E+00  0.646416E+00
  0.646280E+00  0.646391E+00  0.646461E+00  0.646746E+00  0.646659E+00  0.646687E+00
  0.646713E+00  0.646873E+00  0.646875E+00  0.646751E+00  0.646831E+00  0.646593E+00
  0.646460E+00  0.646754E+00  0.646909E+00  0.646737E+00  0.646818E+00  0.646548E+00
  0.646911E+00  0.646724E+00  0.646698E+00  0.646865E+00  0.647095E+00  0.647232E+00
  0.647441E+00  0.647571E+00  0.647583E+00  0.647714E+00  0.647857E+00  0.647820E+00
  0.647663E+00  0.647466E+00  0.648017E+00  0.648030E+00  0.647891E+00  0.647565E+00
  0.647667E+00  0.647340E+00  0.646829E+00  0.646731E+00  0.646715E+00  0.646253E+00
  0.646255E+00  0.645901E+00  0.646222E+00  0.646051E+00  0.645850E+00  0.645548E+00
  0.645668E+00  0.645949E+00  0.646088E+00  0.646045E+00  0.645994E+00  0.645948E+00
  0.646259E+00  0.646302E+00  0.646480E+00  0.646415E+00  0.646189E+00  0.646540E+00
  0.646612E+00  0.646443E+00  0.646606E+00  0.646509E+00  0.646181E+00  0.646802E+00
  0.646722E+00  0.646798E+00  0.646721E+00  0.646767E+00  0.647326E+00  0.647805E+00
  0.647831E+00  0.647900E+00  0.647660E+00  0.648263E+00  0.648260E+00  0.648315E+00
  0.648303E+00  0.648128E+00  0.648017E+00  0.648528E+00  0.648402E+00  0.648401E+00
  0.648058E+00  0.647940E+00  0.647594E+00  0.647148E+00  0.646645E+00  0.646459E+00
  0.645970E+00  0.646177E+00  0.645547E+00  0.645700E+00  0.645596E+00  0.645546E+00
  0.645342E+00  0.645140E+00  0.645297E+00  0.645465E+00  0.645460E+00  0.645697E+00
  0.645688E+00  0.645663E+00  0.645769E+00  0.645905E+00  0.645905E+00  0.646057E+00
  0.646378E+00  0.646310E+00  0.646292E+00  0.646615E+00  0.646561E+00  0.646131E+00
  0.646659E+00  0.646644E+00  0.646792E+00  0.647110E+00  0.647436E+00  0.647880E+00
  0.648042E+00  0.647909E+00  0.648299E+00  0.648176E+00  0.648572E+00  0.648462E+00
  0.648725E+00  0.648755E+00  0.648790E+00  0.648528E+00  0.648970E+00  0.648844E+00
  0.648761E+00  0.648370E+00  0.648118E+00  0.647827E+00  0.647572E+00  0.647034E+00
  0.646691E+00  0.646119E+00  0.646114E+00  0.645546E+00  0.645471E+00  0.645251E+00
  0.645217E+00  0.645293E+00  0.644994E+00  0.644596E+00  0.644832E+00  0.644888E+00
  0.645210E+00  0.645192E+00  0.645119E+00  0.645380E+00  0.645427E+00  0.645451E+00
  0.645537E+00  0.645826E+00  0.645746E+00  0.645659E+00  0.646162E+00  0.646380E+00
  0.646255E+00  0.646780E+00  0.646941E+00  0.647198E+00  0.647445E+00  0.647834E+00
  0.648030E+00  0.648264E+00  0.648087E+00  0.648553E+00  0.648974E+00  0.649222E+00
  0.649179E+00  0.649267E+00  0.649088E+00  0.649165E+00  0.648970E+00  0.649538E+00
  0.649383E+00  0.649092E+00  0.648886E+00  0.648476E+00  0.647867E+00  0.647659E+00
  0.647340E+00  0.646761E+00  0.646286E+00  0.645757E+00  0.645384E+00  0.645134E+00
  0.644610E+00  0.644698E+00  0.644755E+00  0.644810E+00  0.644620E+00  0.644746E+00
  0.644524E+00  0.644562E+00  0.644463E+00  0.644582E+00  0.644906E+00  0.644962E+00
  0.645079E+00  0.644839E+00  0.645229E+00  0.645565E+00  0.645502E+00  0.645803E+00
  0.645963E+00  0.646309E+00  0.646993E+00  0.647185E+00  0.647300E+00  0.647398E+00
  0.647954E+00  0.648066E+00  0.648615E+00  0.648804E+00  0.649207E+00  0.649481E+00
  0.649567E+00  0.649723E+00  0.649453E+00  0.649551E+00  0.649615E+00  0.649538E+00
  0.649808E+00  0.649686E+00  0.649391E+00  0.649214E+00  0.648692E+00  0.648122E+00
  0.647844E+00  0.647566E+00  0.646705E+00  0.646228E+00  0.645377E+00  0.645294E+00
  0.645182E+00  0.644672E+00  0.644778E+00  0.644190E+00  0.644201E+00  0.644211E+00
  0.644025E+00  0.644039E+00  0.644213E+00  0.644298E+00  0.644429E+00  0.644417E+00
  0.644556E+00  0.645044E+00  0.645065E+00  0.645255E+00  0.645426E+00  0.645658E+00
  0.646118E+00  0.646324E+00  0.646510E+00  0.646764E+00  0.647047E+00  0.647395E+00
  0.647827E+00  0.648414E+00  0.648557E+00  0.648996E+00  0.649047E+00  0.649437E+00
  0.649589E+00  0.649820E+00  0.650265E+00  0.649835E+00  0.650149E+00  0.649921E+00
  0.649808E+00  0.650135E+00  0.650094E+00  0.649688E+00  0.649078E+00  0.648704E+00
  0.648488E+00  0.647746E+00  0.647286E+00  0.646803E+00  0.646323E+00  0.645656E+00
  0.645434E+00  0.644906E+00  0.644407E+00  0.644408E+00  0.643906E+00  0.644051E+00
  0.644040E+00  0.643735E+00  0.644049E+00  0.643790E+00  0.643925E+00  0.644252E+00
  0.644077E+00  0.644278E+00  0.644681E+00  0.644883E+00  0.645082E+00  0.645427E+00
  0.645866E+00  0.646056E+00  0.646409E+00  0.646662E+00  0.646821E+00  0.647180E+00
  0.647380E+00  0.648005E+00  0.648279E+00  0.648646E+00  0.649319E+00  0.649478E+00
  0.649916E+00  0.650087E+00  0.650134E+00  0.650368E+00  0.650256E+00  0.650555E+00
  0.650248E+00  0.650135E+00  0.650366E+00  0.650269E+00  0.649859E+00  0.649043E+00
  0.648825E+00  0.648679E+00  0.647781E+00  0.647060E+00  0.647036E+00  0.646391E+00
  0.645945E+00  0.645249E+00  0.644333E+00  0.644250E+00  0.644180E+00  0.643943E+00
  0.643704E+00  0.643574E+00  0.643443E+00  0.643901E+00  0.643504E+00  0.643594E+00
  0.643869E+00  0.643778E+00  0.644164E+00  0.644517E+00  0.644562E+00  0.644506E+00
  0.644977E+00  0.645314E+00  0.645164E+00  0.645874E+00  0.646611E+00  0.646890E+00
  0.647247E+00  0.647502E+00  0.648534E+00  0.648770E+00  0.648974E+00  0.649298E+00
  0.649765E+00  0.650219E+00  0.650535E+00  0.650579E+00  0.650561E+00  0.650765E+00
  0.650723E+00  0.650697E+00  0.650366E+00  0.650643E+00  0.650351E+00  0.649916E+00
  0.649341E+00  0.648909E+00  0.648223E+00  0.647935E+00  0.647174E+00  0.646949E+00
  0.646204E+00  0.645965E+00  0.645165E+00  0.644443E+00  0.644392E+00  0.643812E+00
  0.643717E+00  0.643210E+00  0.643279E+00  0.643188E+00  0.643199E+00  0.643221E+00
  0.643592E+00  0.643754E+00  0.643586E+00  0.643619E+00  0.644143E+00  0.644512E+00
  0.644419E+00  0.644845E+00  0.645306E+00  0.645441E+00  0.646039E+00  0.646511E+00
  0.646510E+00  0.647085E+00  0.647821E+00  0.648631E+00  0.648742E+00  0.649048E+00
  0.649329E+00  0.650099E+00  0.650219E+00  0.650489E+00  0.650840E+00  0.650904E+00
  0.651101E+00  0.650671E+00  0.651109E+00  0.650643E+00  0.650762E+00  0.650426E+00
  0.649964E+00  0.649675E+00  0.649144E+00  0.648056E+00  0.648116E+00  0.647384E+00
  0.646661E+00  0.645906E+00  0.645773E+00  0.645213E+00  0.644625E+00  0.644077E+00
  0.643342E+00  0.643648E+00  0.643378E+00  0.643399E+00  0.643334E+00  0.643075E+00
  0.643016E+00  0.643206E+00  0.643407E+00  0.643607E+00  0.643568E+00  0.644006E+00
  0.644360E+00  0.644502E+00  0.645036E+00  0.645502E+00  0.645744E+00  0.646144E+00
  0.646786E+00  0.646852E+00  0.647299E+00  0.647906E+00  0.648318E+00  0.648562E+00
  0.648988E+00  0.649566E+00  0.650454E+00  0.650498E+00  0.650646E+00  0.650768E+00
  0.650884E+00  0.651261E+00  0.650943E+00  0.651311E+00  0.650762E+00  0.650691E+00
  0.650516E+00  0.650116E+00  0.649570E+00  0.649202E+00  0.648480E+00  0.647997E+00
  0.647323E+00  0.646892E+00  0.646074E+00  0.645497E+00  0.645062E+00  0.644474E+00
  0.644026E+00  0.643683E+00  0.643465E+00  0.643233E+00  0.643067E+00  0.643015E+00
  0.643039E+00  0.642933E+00  0.643014E+00  0.643173E+00  0.643505E+00  0.643671E+00
  0.644069E+00  0.644258E+00  0.644478E+00  0.644821E+00  0.645061E+00  0.645394E+00
  0.645945E+00  0.646788E+00  0.646868E+00  0.647295E+00  0.647840E+00  0.648434E+00
  0.649021E+00  0.649104E+00  0.649691E+00  0.650255E+00  0.650495E+00  0.650887E+00
  0.650936E+00  0.651096E+00  0.651330E+00  0.651219E+00  0.651252E+00  0.650691E+00
  0.650832E+00  0.650731E+00  0.650276E+00  0.649322E+00  0.648965E+00  0.648526E+00
  0.647534E+00  0.646953E+00  0.647090E+00  0.646359E+00  0.645462E+00  0.645011E+00
  0.644376E+00  0.644128E+00  0.643916E+00  0.643057E+00  0.642904E+00  0.642896E+00
  0.642796E+00  0.642892E+00  0.642887E+00  0.643174E+00  0.643275E+00  0.643293E+00
  0.643313E+00  0.643759E+00  0.644143E+00  0.644535E+00  0.644793E+00  0.645038E+00
  0.645552E+00  0.646091E+00  0.646578E+00  0.646403E+00  0.647037E+00  0.647750E+00
  0.648407E+00  0.649029E+00  0.648985E+00  0.649734E+00  0.650128E+00  0.650374E+00
  0.650886E+00  0.651052E+00  0.651236E+00  0.651183E+00  0.651178E+00  0.651260E+00
  0.650832E+00  0.650691E+00  0.650516E+00  0.650116E+00  0.649570E+00  0.649202E+00
  0.648480E+00  0.647997E+00  0.647323E+00  0.646892E+00  0.646074E+00  0.645497E+00
  0.645062E+00  0.644474E+00  0.644026E+00  0.643683E+00  0.643465E+00  0.643233E+00
  0.643067E+00  0.643015E+00  0.643039E+00  0.642933E+00  0.643014E+00  0.643173E+00
  0.643505E+00  0.643671E+00  0.644069E+00  0.644258E+00  0.644478E+00  0.644821E+00
  0.645061E+00  0.645394E+00  0.645945E+00  0.646788E+00  0.646868E+00  0.647295E+00
  0.647840E+00  0.648434E+00  0.649021E+00  0.649104E+00  0.649691E+00  0.650255E+00
  0.650495E+00  0.650887E+00  0.650936E+00  0.651096E+00  0.651330E+00  0.651219E+00
  0.651252E+00  0.650691E+00  0.650762E+00  0.650426E+00  0.649964E+00  0.649675E+00
  0.649144E+00  0.648056E+00  0.648116E+00  0.647384E+00  0.646661E+00  0.645906E+00
  0.645773E+00  0.645213E+00  0.644625E+00  0.644077E+00  0.643342E+00  0.643648E+00
  0.643378E+00  0.643399E+00  0.643334E+00  0.643075E+00  0.643016E+00  0.643206E+00
  0.643407E+00  0.643607E+00  0.643568E+00  0.644006E+00  0.644360E+00  0.644502E+00
  0.645036E+00  0.645502E+00  0.645744E+00  0.646144E+00  0.646786E+00  0.646852E+00
  0.647299E+00  0.647906E+00  0.648318E+00  0.648562E+00  0.648988E+00  0.649566E+00
  0.650454E+00  0.650498E+00  0.650646E+00  0.650768E+00  0.650884E+00  0.651261E+00
  0.650943E+00  0.651311E+00  0.650762E+00  0.650643E+00  0.650351E+00  0.649916E+00
  0.649341E+00  0.648909E+00  0.648223E+00  0.647935E+00  0.647174E+00  0.646949E+00
  0.646204E+00  0.645965E+00  0.645165E+00  0.644443E+00  0.644392E+00  0.643812E+00
  0.643717E+00  0.643210E+00  0.643279E+00  0.643188E+00  0.643199E+00  0.643221E+00
  0.643592E+00  0.643754E+00  0.643586E+00  0.643619E+00  0.644143E+00  0.644512E+00
  0.644419E+00  0.644845E+00  0.645306E+00  0.645441E+00  0.646039E+00  0.646511E+00
  0.646510E+00  0.647085E+00  0.647821E+00  0.648631E+00  0.648742E+00  0.649048E+00
  0.649329E+00  0.650099E+00  0.650219E+00  0.650489E+00  0.650840E+00  0.650904E+00
  0.651101E+00  0.650671E+00  0.651109E+00  0.650643E+00  0.650366E+00  0.650269E+00
  0.649859E+00  0.649043E+00  0.648825E+00  0.648679E+00  0.647781E+00  0.647060E+00
  0.647036E+00  0.646391E+00  0.645945E+00  0.645249E+00  0.644333E+00  0.644250E+00
  0.644180E+00  0.643943E+00  0.643704E+00  0.643574E+00  0.643443E+00  0.643901E+00
  0.643504E+00  0.643594E+00  0.643869E+00  0.643778E+00  0.644164E+00  0.644517E+00
  0.644562E+00  0.644506E+00  0.644977E+00  0.645314E+00  0.645164E+00  0.645874E+00
  0.646611E+00  0.646890E+00  0.647247E+00  0.647502E+00  0.648534E+00  0.648770E+00
  0.648974E+00  0.649298E+00  0.649765E+00  0.650219E+00  0.650535E+00  0.650579E+00
  0.650561E+00  0.650765E+00  0.650723E+00  0.650697E+00  0.650366E+00  0.650135E+00
  0.650094E+00  0.649688E+00  0.649078E+00  0.648704E+00  0.648488E+00  0.647746E+00
  0.647286E+00  0.646803E+00  0.646323E+00  0.645656E+00  0.645434E+00  0.644906E+00
  0.644407E+00  0.644408E+00  0.643906E+00  0.644051E+00  0.644040E+00  0.643735E+00
  0.644049E+00  0.643790E+00  0.643925E+00  0.644252E+00  0.644077E+00  0.644278E+00
  0.644681E+00  0.644883E+00  0.645082E+00  0.645427E+00  0.645866E+00  0.646056E+00
  0.646409E+00  0.646662E+00  0.646821E+00  0.647180E+00  0.647380E+00  0.648005E+00
  0.648279E+00  0.648646E+00  0.649319E+00  0.649478E+00  0.649916E+00  0.650087E+00
  0.650134E+00  0.650368E+00  0.650256E+00  0.650555E+00  0.650248E+00  0.650135E+00
  0.649808E+00  0.649686E+00  0.649391E+00  0.649214E+00  0.648692E+00  0.648122E+00
  0.647844E+00  0.647566E+00  0.646705E+00  0.646228E+00  0.645377E+00  0.645294E+00
  0.645182E+00  0.644672E+00  0.644778E+00  0.644190E+00  0.644201E+00  0.644211E+00
  0.644025E+00  0.644039E+00  0.644213E+00  0.644298E+00  0.644429E+00  0.644417E+00
  0.644556E+00  0.645044E+00  0.645065E+00  0.645255E+00  0.645426E+00  0.645658E+00
  0.646118E+00  0.646324E+00  0.646510E+00  0.646764E+00  0.647047E+00  0.647395E+00
  0.647827E+00  0.648414E+00  0.648557E+00  0.648996E+00  0.649047E+00  0.649437E+00
  0.649589E+00  0.649820E+00  0.650265E+00  0.649835E+00  0.650149E+00  0.649921E+00
  0.649808E+00  0.649538E+00  0.649383E+00  0.649092E+00  0.648886E+00  0.648476E+00
  0.647867E+00  0.647659E+00  0.647340E+00  0.646761E+00  0.646286E+00  0.645757E+00
  0.645384E+00  0.645134E+00  0.644610E+00  0.644698E+00  0.644755E+00  0.644810E+00
  0.644620E+00  0.644746E+00  0.644524E+00  0.644562E+00  0.644463E+00  0.644582E+00
  0.644906E+00  0.644962E+00  0.645079E+00  0.644839E+00  0.645229E+00  0.645565E+00
  0.645502E+00  0.645803E+00  0.645963E+00  0.646309E+00  0.646993E+00  0.647185E+00
  0.647300E+00  0.647398E+00  0.647954E+00  0.648066E+00  0.648615E+00  0.648804E+00
  0.649207E+00  0.649481E+00  0.649567E+00  0.649723E+00  0.649453E+00  0.649551E+00
  0.649615E+00  0.649538E+00  0.648970E+00  0.648844E+00  0.648761E+00  0.648370E+00
  0.648118E+00  0.647827E+00  0.647572E+00  0.647034E+00  0.646691E+00  0.646119E+00
  0.646114E+00  0.645546E+00  0.645471E+00  0.645251E+00  0.645217E+00  0.645293E+00
  0.644994E+00  0.644596E+00  0.644832E+00  0.644888E+00  0.645210E+00  0.645192E+00
  0.645119E+00  0.645380E+00  0.645427E+00  0.645451E+00  0.645537E+00  0.645826E+00
  0.645746E+00  0.645659E+00  0.646162E+00  0.646380E+00  0.646255E+00  0.646780E+00
  0.646941E+00  0.647198E+00  0.647445E+00  0.647834E+00  0.648030E+00  0.648264E+00
  0.648087E+00  0.648553E+00  0.648974E+00  0.649222E+00  0.649179E+00  0.649267E+00
  0.649088E+00  0.649165E+00  0.648970E+00  0.648528E+00  0.648402E+00  0.648401E+00
  0.648058E+00  0.647940E+00  0.647594E+00  0.647148E+00  0.646645E+00  0.646459E+00
  0.645970E+00  0.646177E+00  0.645547E+00  0.645700E+00  0.645596E+00  0.645546E+00
  0.645342E+00  0.645140E+00  0.645297E+00  0.645465E+00  0.645460E+00  0.645697E+00
  0.645688E+00  0.645663E+00  0.645769E+00  0.645905E+00  0.645905E+00  0.646057E+00
  0.646378E+00  0.646310E+00  0.646292E+00  0.646615E+00  0.646561E+00  0.646131E+00
  0.646659E+00  0.646644E+00  0.646792E+00  0.647110E+00  0.647436E+00  0.647880E+00
  0.648042E+00  0.647909E+00  0.648299E+00  0.648176E+00  0.648572E+00  0.648462E+00
  0.648725E+00  0.648755E+00  0.648790E+00  0.648528E+00  0.648017E+00  0.648030E+00
  0.647891E+00  0.647565E+00  0.647667E+00  0.647340E+00  0.646829E+00  0.646731E+00
  0.646715E+00  0.646253E+00  0.646255E+00  0.645901E+00  0.646222E+00  0.646051E+00
  0.645850E+00  0.645548E+00  0.645668E+00  0.645949E+00  0.646088E+00  0.646045E+00
  0.645994E+00  0.645948E+00  0.646259E+00  0.646302E+00  0.646480E+00  0.646415E+00
  0.646189E+00  0.646540E+00  0.646612E+00  0.646443E+00  0.646606E+00  0.646509E+00
  0.646181E+00  0.646802E+00  0.646722E+00  0.646798E+00  0.646721E+00  0.646767E+00
  0.647326E+00  0.647805E+00  0.647831E+00  0.647900E+00  0.647660E+00  0.648263E+00
  0.648260E+00  0.648315E+00  0.648303E+00  0.648128E+00  0.648017E+00  0.647466E+00
  0.647398E+00  0.647372E+00  0.646992E+00  0.647059E+00  0.647081E+00  0.646549E+00
  0.646439E+00  0.646564E+00  0.646360E+00  0.646314E+00  0.646369E+00  0.646452E+00
  0.646409E+00  0.646240E+00  0.646134E+00  0.646416E+00  0.646280E+00  0.646391E+00
  0.646461E+00  0.646746E+00  0.646659E+00  0.646687E+00  0.646713E+00  0.646873E+00
  0.646875E+00  0.646751E+00  0.646831E+00  0.646593E+00  0.646460E+00  0.646754E+00
  0.646909E+00  0.646737E+00  0.646818E+00  0.646548E+00  0.646911E+00  0.646724E+00
  0.646698E+00  0.646865E+00  0.647095E+00  0.647232E+00  0.647441E+00  0.647571E+00
  0.647583E+00  0.647714E+00  0.647857E+00  0.647820E+00  0.647663E+00  0.647466E+00
  0.647118E+00  0.646965E+00  0.647096E+00  0.646919E+00  0.646731E+00  0.646839E+00
  0.646617E+00  0.646503E+00  0.646579E+00  0.646517E+00  0.646333E+00  0.646622E+00
  0.646341E+00  0.646344E+00  0.646303E+00  0.646463E+00  0.646992E+00  0.647188E+00
  0.647264E+00  0.646792E+00  0.647066E+00  0.647205E+00  0.647166E+00  0.647250E+00
  0.647118E+00  0.646965E+00  0.647096E+00  0.646919E+00  0.646731E+00  0.646839E+00
  0.646617E+00  0.646503E+00  0.646579E+00  0.646517E+00  0.646333E+00  0.646622E+00
  0.646341E+00  0.646344E+00  0.646303E+00  0.646463E+00  0.646992E+00  0.647188E+00
  0.647264E+00  0.646792E+00  0.647066E+00  0.647205E+00  0.647166E+00  0.647250E+00
  0.647118E+00  0.645469E+00  0.645082E+00  0.644739E+00  0.644694E+00  0.644419E+00
  0.644146E+00  0.644253E+00  0.643811E+00  0.643669E+00  0.644016E+00  0.644002E+00
  0.643993E+00  0.644119E+00  0.644838E+00  0.645051E+00  0.645354E+00  0.645776E+00
  0.646055E+00  0.646882E+00  0.647356E+00  0.647469E+00  0.647611E+00  0.648323E+00
  0.648610E+00  0.648751E+00  0.648900E+00  0.649198E+00  0.649201E+00  0.649239E+00
  0.649378E+00  0.648874E+00  0.648986E+00  0.648785E+00  0.648574E+00  0.648407E+00
  0.648382E+00  0.648007E+00  0.647857E+00  0.647845E+00  0.647600E+00  0.647232E+00
  0.646861E+00  0.646695E+00  0.646174E+00  0.646419E+00  0.646187E+00  0.645627E+00
  0.645585E+00  0.645469E+00  0.644960E+00  0.645022E+00  0.644663E+00  0.644313E+00
  0.644327E+00  0.644165E+00  0.644068E+00  0.643946E+00  0.644056E+00  0.644293E+00
  0.644212E+00  0.644611E+00  0.645230E+00  0.645735E+00  0.645846E+00  0.646212E+00
  0.646182E+00  0.646678E+00  0.647297E+00  0.647686E+00  0.647934E+00  0.648521E+00
  0.649052E+00  0.649139E+00  0.649554E+00  0.649936E+00  0.650006E+00  0.649645E+00
  0.649514E+00  0.649651E+00  0.649459E+00  0.649304E+00  0.648963E+00  0.648847E+00
  0.648545E+00  0.648071E+00  0.648003E+00  0.647522E+00  0.647584E+00  0.647495E+00
  0.646974E+00  0.646577E+00  0.646615E+00  0.646384E+00  0.646325E+00  0.646070E+00
  0.645748E+00  0.645295E+00  0.644960E+00  0.644523E+00  0.644587E+00  0.644444E+00
  0.643938E+00  0.644245E+00  0.644250E+00  0.643764E+00  0.644042E+00  0.644408E+00
  0.644536E+00  0.644785E+00  0.645263E+00  0.645535E+00  0.645708E+00  0.646008E+00
  0.646448E+00  0.647033E+00  0.648028E+00  0.647958E+00  0.648530E+00  0.648744E+00
  0.649272E+00  0.649691E+00  0.649845E+00  0.650007E+00  0.650269E+00  0.650298E+00
  0.650087E+00  0.650028E+00  0.649877E+00  0.649832E+00  0.649586E+00  0.649344E+00
  0.648903E+00  0.648737E+00  0.648242E+00  0.648073E+00  0.647336E+00  0.647326E+00
  0.647037E+00  0.646930E+00  0.646854E+00  0.646196E+00  0.645841E+00  0.645418E+00
  0.645209E+00  0.645525E+00  0.645160E+00  0.644523E+00  0.644504E+00  0.644471E+00
  0.644571E+00  0.644090E+00  0.644130E+00  0.644286E+00  0.644084E+00  0.644597E+00
  0.644882E+00  0.644987E+00  0.645245E+00  0.645623E+00  0.645961E+00  0.646182E+00
  0.646608E+00  0.647012E+00  0.647725E+00  0.648759E+00  0.648744E+00  0.649565E+00
  0.649789E+00  0.650130E+00  0.650233E+00  0.650749E+00  0.650665E+00  0.650675E+00
  0.650756E+00  0.650623E+00  0.650522E+00  0.650131E+00  0.650116E+00  0.649874E+00
  0.649867E+00  0.649030E+00  0.648905E+00  0.648475E+00  0.648047E+00  0.647459E+00
  0.647435E+00  0.646871E+00  0.646713E+00  0.646645E+00  0.645819E+00  0.645604E+00
  0.645288E+00  0.644973E+00  0.644968E+00  0.644767E+00  0.644504E+00  0.644291E+00
  0.644410E+00  0.644359E+00  0.644050E+00  0.644119E+00  0.644326E+00  0.644369E+00
  0.644711E+00  0.644896E+00  0.645158E+00  0.645317E+00  0.645848E+00  0.646532E+00
  0.646795E+00  0.647371E+00  0.648225E+00  0.648421E+00  0.648750E+00  0.649160E+00
  0.649801E+00  0.650427E+00  0.651097E+00  0.650639E+00  0.651138E+00  0.651388E+00
  0.651290E+00  0.651130E+00  0.650982E+00  0.650864E+00  0.650532E+00  0.650504E+00
  0.649895E+00  0.649753E+00  0.649267E+00  0.648912E+00  0.648271E+00  0.648057E+00
  0.647662E+00  0.647240E+00  0.646622E+00  0.646196E+00  0.645972E+00  0.645883E+00
  0.645794E+00  0.645263E+00  0.644968E+00  0.644837E+00  0.644362E+00  0.644291E+00
  0.643981E+00  0.644133E+00  0.644030E+00  0.644103E+00  0.644343E+00  0.644479E+00
  0.644535E+00  0.644746E+00  0.645049E+00  0.645310E+00  0.645517E+00  0.646047E+00
  0.646539E+00  0.647128E+00  0.647765E+00  0.648659E+00  0.649091E+00  0.649557E+00
  0.650179E+00  0.650277E+00  0.650703E+00  0.651503E+00  0.651536E+00  0.651756E+00
  0.651865E+00  0.651660E+00  0.651539E+00  0.651577E+00  0.651336E+00  0.650909E+00
  0.650653E+00  0.649968E+00  0.649586E+00  0.649587E+00  0.649040E+00  0.648424E+00
  0.648192E+00  0.647546E+00  0.646929E+00  0.646347E+00  0.646056E+00  0.645810E+00
  0.645693E+00  0.645432E+00  0.644903E+00  0.644524E+00  0.644583E+00  0.644162E+00
  0.643981E+00  0.644072E+00  0.643905E+00  0.644066E+00  0.644230E+00  0.643957E+00
  0.643990E+00  0.644395E+00  0.644832E+00  0.645104E+00  0.645246E+00  0.646024E+00
  0.646814E+00  0.647111E+00  0.647912E+00  0.648367E+00  0.648638E+00  0.649248E+00
  0.649982E+00  0.650723E+00  0.651223E+00  0.651412E+00  0.651630E+00  0.652231E+00
  0.652260E+00  0.652246E+00  0.651985E+00  0.651874E+00  0.652016E+00  0.651665E+00
  0.651262E+00  0.650886E+00  0.650401E+00  0.649801E+00  0.649745E+00  0.649024E+00
  0.648509E+00  0.647902E+00  0.647320E+00  0.647220E+00  0.646504E+00  0.646053E+00
  0.645491E+00  0.644920E+00  0.644887E+00  0.644885E+00  0.644474E+00  0.644318E+00
  0.644248E+00  0.644072E+00  0.644047E+00  0.643719E+00  0.643836E+00  0.643938E+00
  0.644063E+00  0.644376E+00  0.644542E+00  0.644815E+00  0.645200E+00  0.645631E+00
  0.646417E+00  0.646888E+00  0.647362E+00  0.647962E+00  0.648461E+00  0.649033E+00
  0.649874E+00  0.650382E+00  0.650835E+00  0.651669E+00  0.652042E+00  0.652150E+00
  0.652623E+00  0.652596E+00  0.652922E+00  0.652840E+00  0.652495E+00  0.652515E+00
  0.652074E+00  0.651596E+00  0.651187E+00  0.650675E+00  0.650068E+00  0.649707E+00
  0.648977E+00  0.648642E+00  0.647817E+00  0.647211E+00  0.646961E+00  0.646247E+00
  0.645870E+00  0.645278E+00  0.644781E+00  0.644636E+00  0.644415E+00  0.644405E+00
  0.644117E+00  0.644072E+00  0.644047E+00  0.643832E+00  0.643697E+00  0.643748E+00
  0.643876E+00  0.644214E+00  0.644351E+00  0.644652E+00  0.645039E+00  0.645476E+00
  0.646175E+00  0.646640E+00  0.646752E+00  0.647578E+00  0.648186E+00  0.648961E+00
  0.649636E+00  0.650419E+00  0.650921E+00  0.651254E+00  0.651848E+00  0.652270E+00
  0.652695E+00  0.652851E+00  0.652744E+00  0.652840E+00  0.653183E+00  0.653004E+00
  0.652804E+00  0.652363E+00  0.651807E+00  0.651529E+00  0.650838E+00  0.650370E+00
  0.649429E+00  0.648631E+00  0.648548E+00  0.647898E+00  0.647357E+00  0.646650E+00
  0.646152E+00  0.645875E+00  0.645400E+00  0.645027E+00  0.644691E+00  0.644145E+00
  0.644009E+00  0.643512E+00  0.643602E+00  0.643832E+00  0.643683E+00  0.643486E+00
  0.643620E+00  0.644138E+00  0.644103E+00  0.643974E+00  0.645042E+00  0.645322E+00
  0.645340E+00  0.646056E+00  0.646737E+00  0.647250E+00  0.647751E+00  0.648158E+00
  0.649403E+00  0.649868E+00  0.650301E+00  0.650988E+00  0.651568E+00  0.652220E+00
  0.652710E+00  0.653122E+00  0.653148E+00  0.653494E+00  0.653314E+00  0.653544E+00
  0.653319E+00  0.653095E+00  0.652868E+00  0.652215E+00  0.651999E+00  0.650932E+00
  0.650512E+00  0.649697E+00  0.648964E+00  0.648450E+00  0.647808E+00  0.647413E+00
  0.646511E+00  0.646159E+00  0.645676E+00  0.645112E+00  0.644637E+00  0.644435E+00
  0.644249E+00  0.643960E+00  0.643453E+00  0.643629E+00  0.643683E+00  0.643803E+00
  0.643658E+00  0.643426E+00  0.643960E+00  0.644124E+00  0.644236E+00  0.644993E+00
  0.644853E+00  0.645376E+00  0.646345E+00  0.646706E+00  0.647332E+00  0.647999E+00
  0.648617E+00  0.649735E+00  0.650009E+00  0.650361E+00  0.651364E+00  0.652051E+00
  0.652522E+00  0.652897E+00  0.653187E+00  0.653205E+00  0.653828E+00  0.653851E+00
  0.653674E+00  0.653386E+00  0.653410E+00  0.653020E+00  0.652090E+00  0.652041E+00
  0.651101E+00  0.650441E+00  0.649945E+00  0.649312E+00  0.648335E+00  0.647843E+00
  0.647457E+00  0.646486E+00  0.646127E+00  0.645579E+00  0.644897E+00  0.644416E+00
  0.644206E+00  0.644138E+00  0.644131E+00  0.643741E+00  0.643647E+00  0.643803E+00
  0.643796E+00  0.643573E+00  0.643467E+00  0.643856E+00  0.643973E+00  0.644272E+00
  0.644774E+00  0.644873E+00  0.645426E+00  0.646388E+00  0.647008E+00  0.647337E+00
  0.648084E+00  0.649034E+00  0.649727E+00  0.650302E+00  0.650748E+00  0.651648E+00
  0.652214E+00  0.652584E+00  0.652910E+00  0.653326E+00  0.653495E+00  0.653563E+00
  0.653745E+00  0.653660E+00  0.653535E+00  0.653369E+00  0.652937E+00  0.652381E+00
  0.651993E+00  0.651265E+00  0.650522E+00  0.649836E+00  0.649162E+00  0.648378E+00
  0.647892E+00  0.647249E+00  0.646570E+00  0.646086E+00  0.645741E+00  0.645079E+00
  0.644546E+00  0.644283E+00  0.644054E+00  0.644005E+00  0.643485E+00  0.643455E+00
  0.643796E+00  0.643604E+00  0.643107E+00  0.643487E+00  0.644082E+00  0.644025E+00
  0.644401E+00  0.645187E+00  0.645530E+00  0.645361E+00  0.646045E+00  0.647320E+00
  0.647472E+00  0.647732E+00  0.648566E+00  0.649252E+00  0.650406E+00  0.650977E+00
  0.651568E+00  0.651996E+00  0.652524E+00  0.653002E+00  0.653612E+00  0.654009E+00
  0.653756E+00  0.653990E+00  0.654074E+00  0.653926E+00  0.653394E+00  0.653140E+00
  0.653028E+00  0.652084E+00  0.651230E+00  0.650650E+00  0.649928E+00  0.649291E+00
  0.648691E+00  0.647901E+00  0.646905E+00  0.646418E+00  0.645848E+00  0.645715E+00
  0.645186E+00  0.644585E+00  0.644345E+00  0.644095E+00  0.643887E+00  0.643278E+00
  0.643440E+00  0.643604E+00  0.643796E+00  0.643573E+00  0.643467E+00  0.643856E+00
  0.643973E+00  0.644272E+00  0.644774E+00  0.644873E+00  0.645426E+00  0.646388E+00
  0.647008E+00  0.647337E+00  0.648084E+00  0.649034E+00  0.649727E+00  0.650302E+00
  0.650748E+00  0.651648E+00  0.652214E+00  0.652584E+00  0.652910E+00  0.653326E+00
  0.653495E+00  0.653563E+00  0.653745E+00  0.653660E+00  0.653535E+00  0.653369E+00
  0.652937E+00  0.652381E+00  0.651993E+00  0.651265E+00  0.650522E+00  0.649836E+00
  0.649162E+00  0.648378E+00  0.647892E+00  0.647249E+00  0.646570E+00  0.646086E+00
  0.645741E+00  0.645079E+00  0.644546E+00  0.644283E+00  0.644054E+00  0.644005E+00
  0.643485E+00  0.643455E+00  0.643796E+00  0.643803E+00  0.643658E+00  0.643426E+00
  0.643960E+00  0.644124E+00  0.644236E+00  0.644993E+00  0.644853E+00  0.645376E+00
  0.646345E+00  0.646706E+00  0.647332E+00  0.647999E+00  0.648617E+00  0.649735E+00
  0.650009E+00  0.650361E+00  0.651364E+00  0.652051E+00  0.652522E+00  0.652897E+00
  0.653187E+00  0.653205E+00  0.653828E+00  0.653851E+00  0.653674E+00  0.653386E+00
  0.653410E+00  0.653020E+00  0.652090E+00  0.652041E+00  0.651101E+00  0.650441E+00
  0.649945E+00  0.649312E+00  0.648335E+00  0.647843E+00  0.647457E+00  0.646486E+00
  0.646127E+00  0.645579E+00  0.644897E+00  0.644416E+00  0.644206E+00  0.644138E+00
  0.644131E+00  0.643741E+00  0.643647E+00  0.643803E+00  0.643683E+00  0.643486E+00
  0.643620E+00  0.644138E+00  0.644103E+00  0.643974E+00  0.645042E+00  0.645322E+00
  0.645340E+00  0.646056E+00  0.646737E+00  0.647250E+00  0.647751E+00  0.648158E+00
  0.649403E+00  0.649868E+00  0.650301E+00  0.650988E+00  0.651568E+00  0.652220E+00
  0.652710E+00  0.653122E+00  0.653148E+00  0.653494E+00  0.653314E+00  0.653544E+00
  0.653319E+00  0.653095E+00  0.652868E+00  0.652215E+00  0.651999E+00  0.650932E+00
  0.650512E+00  0.649697E+00  0.648964E+00  0.648450E+00  0.647808E+00  0.647413E+00
  0.646511E+00  0.646159E+00  0.645676E+00  0.645112E+00  0.644637E+00  0.644435E+00
  0.644249E+00  0.643960E+00  0.643453E+00  0.643629E+00  0.643683E+00  0.643832E+00
  0.643697E+00  0.643748E+00  0.643876E+00  0.644214E+00  0.644351E+00  0.644652E+00
  0.645039E+00  0.645476E+00  0.646175E+00  0.646640E+00  0.646752E+00  0.647578E+00
  0.648186E+00  0.648961E+00  0.649636E+00  0.650419E+00  0.650921E+00  0.651254E+00
  0.651848E+00  0.652270E+00  0.652695E+00  0.652851E+00  0.652744E+00  0.652840E+00
  0.653183E+00  0.653004E+00  0.652804E+00  0.652363E+00  0.651807E+00  0.651529E+00
  0.650838E+00  0.650370E+00  0.649429E+00  0.648631E+00  0.648548E+00  0.647898E+00
  0.647357E+00  0.646650E+00  0.646152E+00  0.645875E+00  0.645400E+00  0.645027E+00
  0.644691E+00  0.644145E+00  0.644009E+00  0.643512E+00  0.643602E+00  0.643832E+00
  0.644047E+00  0.643719E+00  0.643836E+00  0.643938E+00  0.644063E+00  0.644376E+00
  0.644542E+00  0.644815E+00  0.645200E+00  0.645631E+00  0.646417E+00  0.646888E+00
  0.647362E+00  0.647962E+00  0.648461E+00  0.649033E+00  0.649874E+00  0.650382E+00
  0.650835E+00  0.651669E+00  0.652042E+00  0.652150E+00  0.652623E+00  0.652596E+00
  0.652922E+00  0.652840E+00  0.652495E+00  0.652515E+00  0.652074E+00  0.651596E+00
  0.651187E+00  0.650675E+00  0.650068E+00  0.649707E+00  0.648977E+00  0.648642E+00
  0.647817E+00  0.647211E+00  0.646961E+00  0.646247E+00  0.645870E+00  0.645278E+00
  0.644781E+00  0.644636E+00  0.644415E+00  0.644405E+00  0.644117E+00  0.644072E+00
  0.644047E+00  0.644072E+00  0.643905E+00  0.644066E+00  0.644230E+00  0.643957E+00
  0.643990E+00  0.644395E+00  0.644832E+00  0.645104E+00  0.645246E+00  0.646024E+00
  0.646814E+00  0.647111E+00  0.647912E+00  0.648367E+00  0.648638E+00  0.649248E+00
  0.649982E+00  0.650723E+00  0.651223E+00  0.651412E+00  0.651630E+00  0.652231E+00
  0.652260E+00  0.652246E+00  0.651985E+00  0.651874E+00  0.652016E+00  0.651665E+00
  0.651262E+00  0.650886E+00  0.650401E+00  0.649801E+00  0.649745E+00  0.649024E+00
  0.648509E+00  0.647902E+00  0.647320E+00  0.647220E+00  0.646504E+00  0.646053E+00
  0.645491E+00  0.644920E+00  0.644887E+00  0.644885E+00  0.644474E+00  0.644318E+00
  0.644248E+00  0.644072E+00  0.643981E+00  0.644133E+00  0.644030E+00  0.644103E+00
  0.644343E+00  0.644479E+00  0.644535E+00  0.644746E+00  0.645049E+00  0.645310E+00
  0.645517E+00  0.646047E+00  0.646539E+00  0.647128E+00  0.647765E+00  0.648659E+00
  0.649091E+00  0.649557E+00  0.650179E+00  0.650277E+00  0.650703E+00  0.651503E+00
  0.651536E+00  0.651756E+00  0.651865E+00  0.651660E+00  0.651539E+00  0.651577E+00
  0.651336E+00  0.650909E+00  0.650653E+00  0.649968E+00  0.649586E+00  0.649587E+00
  0.649040E+00  0.648424E+00  0.648192E+00  0.647546E+00  0.646929E+00  0.646347E+00
  0.646056E+00  0.645810E+00  0.645693E+00  0.645432E+00  0.644903E+00  0.644524E+00
  0.644583E+00  0.644162E+00  0.643981E+00  0.644291E+00  0.644410E+00  0.644359E+00
  0.644050E+00  0.644119E+00  0.644326E+00  0.644369E+00  0.644711E+00  0.644896E+00
  0.645158E+00  0.645317E+00  0.645848E+00  0.646532E+00  0.646795E+00  0.647371E+00
  0.648225E+00  0.648421E+00  0.648750E+00  0.649160E+00  0.649801E+00  0.650427E+00
  0.651097E+00  0.650639E+00  0.651138E+00  0.651388E+00  0.651290E+00  0.651130E+00
  0.650982E+00  0.650864E+00  0.650532E+00  0.650504E+00  0.649895E+00  0.649753E+00
  0.649267E+00  0.648912E+00  0.648271E+00  0.648057E+00  0.647662E+00  0.647240E+00
  0.646622E+00  0.646196E+00  0.645972E+00  0.645883E+00  0.645794E+00  0.645263E+00
  0.644968E+00  0.644837E+00  0.644362E+00  0.644291E+00  0.644504E+00  0.644471E+00
  0.644571E+00  0.644090E+00  0.644130E+00  0.644286E+00  0.644084E+00  0.644597E+00
  0.644882E+00  0.644987E+00  0.645245E+00  0.645623E+00  0.645961E+00  0.646182E+00
  0.646608E+00  0.647012E+00  0.647725E+00  0.648759E+00  0.648744E+00  0.649565E+00
  0.649789E+00  0.650130E+00  0.650233E+00  0.650749E+00  0.650665E+00  0.650675E+00
  0.650756E+00  0.650623E+00  0.650522E+00  0.650131E+00  0.650116E+00  0.649874E+00
  0.649867E+00  0.649030E+00  0.648905E+00  0.648475E+00  0.648047E+00  0.647459E+00
  0.647435E+00  0.646871E+00  0.646713E+00  0.646645E+00  0.645819E+00  0.645604E+00
  0.645288E+00  0.644973E+00  0.644968E+00  0.644767E+00  0.644504E+00  0.644523E+00
  0.644587E+00  0.644444E+00  0.643938E+00  0.644245E+00  0.644250E+00  0.643764E+00
  0.644042E+00  0.644408E+00  0.644536E+00  0.644785E+00  0.645263E+00  0.645535E+00
  0.645708E+00  0.646008E+00  0.646448E+00  0.647033E+00  0.648028E+00  0.647958E+00
  0.648530E+00  0.648744E+00  0.649272E+00  0.649691E+00  0.649845E+00  0.650007E+00
  0.650269E+00  0.650298E+00  0.650087E+00  0.650028E+00  0.649877E+00  0.649832E+00
  0.649586E+00  0.649344E+00  0.648903E+00  0.648737E+00  0.648242E+00  0.648073E+00
  0.647336E+00  0.647326E+00  0.647037E+00  0.646930E+00  0.646854E+00  0.646196E+00
  0.645841E+00  0.645418E+00  0.645209E+00  0.645525E+00  0.645160E+00  0.644523E+00
  0.644960E+00  0.645022E+00  0.644663E+00  0.644313E+00  0.644327E+00  0.644165E+00
  0.644068E+00  0.643946E+00  0.644056E+00  0.644293E+00  0.644212E+00  0.644611E+00
  0.645230E+00  0.645735E+00  0.645846E+00  0.646212E+00  0.646182E+00  0.646678E+00
  0.647297E+00  0.647686E+00  0.647934E+00  0.648521E+00  0.649052E+00  0.649139E+00
  0.649554E+00  0.649936E+00  0.650006E+00  0.649645E+00  0.649514E+00  0.649651E+00
  0.649459E+00  0.649304E+00  0.648963E+00  0.648847E+00  0.648545E+00  0.648071E+00
  0.648003E+00  0.647522E+00  0.647584E+00  0.647495E+00  0.646974E+00  0.646577E+00
  0.646615E+00  0.646384E+00  0.646325E+00  0.646070E+00  0.645748E+00  0.645295E+00
  0.644960E+00  0.645469E+00  0.645082E+00  0.644739E+00  0.644694E+00  0.644419E+00
  0.644146E+00  0.644253E+00  0.643811E+00  0.643669E+00  0.644016E+00  0.644002E+00
  0.643993E+00  0.644119E+00  0.644838E+00  0.645051E+00  0.645354E+00  0.645776E+00
  0.646055E+00  0.646882E+00  0.647356E+00  0.647469E+00  0.647611E+00  0.648323E+00
  0.648610E+00  0.648751E+00  0.648900E+00  0.649198E+00  0.649201E+00  0.649239E+00
  0.649378E+00  0.648874E+00  0.648986E+00  0.648785E+00  0.648574E+00  0.648407E+00
  0.648382E+00  0.648007E+00  0.647857E+00  0.647845E+00  0.647600E+00  0.647232E+00
  0.646861E+00  0.646695E+00  0.646174E+00  0.646419E+00  0.646187E+00  0.645627E+00
  0.645585E+00  0.645469E+00  0.645761E+00  0.645165E+00  0.644920E+00  0.645012E+00
  0.644607E+00  0.644055E+00  0.644223E+00  0.644053E+00  0.643734E+00  0.643577E+00
  0.643736E+00  0.643823E+00  0.643707E+00  0.644198E+00  0.644638E+00  0.644742E+00
  0.645260E+00  0.645171E+00  0.645658E+00  0.646323E+00  0.646715E+00  0.646844E+00
  0.647314E+00  0.647545E+00  0.647893E+00  0.648026E+00  0.648275E+00  0.648595E+00
  0.648499E+00  0.648580E+00  0.648448E+00  0.648653E+00  0.648336E+00  0.648215E+00
  0.648131E+00  0.648215E+00  0.647936E+00  0.648167E+00  0.647907E+00  0.647544E+00
  0.647356E+00  0.647130E+00  0.647092E+00  0.647011E+00  0.646879E+00  0.646339E+00
  0.645978E+00  0.646024E+00  0.645761E+00  0.646109E+00  0.645531E+00  0.645066E+00
  0.644975E+00  0.644539E+00  0.643994E+00  0.644180E+00  0.643877E+00  0.643600E+00
  0.643409E+00  0.643434E+00  0.643240E+00  0.643332E+00  0.643360E+00  0.643950E+00
  0.644352E+00  0.644635E+00  0.644618E+00  0.645194E+00  0.645631E+00  0.646115E+00
  0.646523E+00  0.646642E+00  0.646761E+00  0.647370E+00  0.647515E+00  0.647609E+00
  0.647975E+00  0.647793E+00  0.647985E+00  0.648112E+00  0.648250E+00  0.648134E+00
  0.648341E+00  0.648166E+00  0.648146E+00  0.648205E+00  0.648391E+00  0.647912E+00
  0.647842E+00  0.647601E+00  0.647416E+00  0.647482E+00  0.647552E+00  0.647096E+00
  0.646688E+00  0.646275E+00  0.646179E+00  0.646109E+00  0.646236E+00  0.645770E+00
  0.645259E+00  0.644809E+00  0.644313E+00  0.643940E+00  0.643899E+00  0.643254E+00
  0.643193E+00  0.643147E+00  0.643200E+00  0.642806E+00  0.643020E+00  0.642825E+00
  0.643051E+00  0.643602E+00  0.643967E+00  0.644110E+00  0.644723E+00  0.644912E+00
  0.645403E+00  0.645848E+00  0.645942E+00  0.646200E+00  0.646640E+00  0.646822E+00
  0.646930E+00  0.647168E+00  0.647307E+00  0.647746E+00  0.647624E+00  0.647848E+00
  0.648181E+00  0.648243E+00  0.648044E+00  0.648226E+00  0.648280E+00  0.648413E+00
  0.647968E+00  0.648057E+00  0.647955E+00  0.647973E+00  0.647790E+00  0.647386E+00
  0.646941E+00  0.647096E+00  0.646753E+00  0.646416E+00  0.646236E+00  0.646142E+00
  0.645873E+00  0.645496E+00  0.644900E+00  0.644521E+00  0.644058E+00  0.643596E+00
  0.643259E+00  0.643309E+00  0.642665E+00  0.642697E+00  0.642657E+00  0.642706E+00
  0.642716E+00  0.642578E+00  0.642763E+00  0.643423E+00  0.643527E+00  0.643797E+00
  0.643740E+00  0.644363E+00  0.644963E+00  0.645380E+00  0.645922E+00  0.646106E+00
  0.646429E+00  0.646807E+00  0.647054E+00  0.647208E+00  0.647558E+00  0.647509E+00
  0.647767E+00  0.647951E+00  0.647831E+00  0.647999E+00  0.648420E+00  0.648036E+00
  0.648256E+00  0.647957E+00  0.648066E+00  0.648339E+00  0.648362E+00  0.648146E+00
  0.647952E+00  0.647476E+00  0.647341E+00  0.647299E+00  0.646761E+00  0.646142E+00
  0.646510E+00  0.646189E+00  0.645530E+00  0.644743E+00  0.644441E+00  0.644022E+00
  0.643208E+00  0.642883E+00  0.642782E+00  0.642364E+00  0.642438E+00  0.642365E+00
  0.641982E+00  0.642119E+00  0.642206E+00  0.642233E+00  0.642709E+00  0.642780E+00
  0.643296E+00  0.643327E+00  0.644018E+00  0.644553E+00  0.644824E+00  0.645422E+00
  0.645623E+00  0.646027E+00  0.646387E+00  0.646724E+00  0.647079E+00  0.647412E+00
  0.647484E+00  0.647579E+00  0.647746E+00  0.647840E+00  0.647917E+00  0.648389E+00
  0.648185E+00  0.648468E+00  0.648158E+00  0.648244E+00  0.648568E+00  0.648393E+00
  0.647985E+00  0.647944E+00  0.647890E+00  0.647483E+00  0.647540E+00  0.647001E+00
  0.646510E+00  0.646793E+00  0.646280E+00  0.645728E+00  0.644959E+00  0.644405E+00
  0.644083E+00  0.643315E+00  0.642941E+00  0.642374E+00  0.642309E+00  0.642157E+00
  0.641818E+00  0.641761E+00  0.641769E+00  0.641710E+00  0.641741E+00  0.641875E+00
  0.642093E+00  0.642858E+00  0.642904E+00  0.643400E+00  0.643855E+00  0.644066E+00
  0.644612E+00  0.644972E+00  0.645494E+00  0.645706E+00  0.645897E+00  0.646305E+00
  0.646677E+00  0.646823E+00  0.646993E+00  0.647518E+00  0.647926E+00  0.647784E+00
  0.648139E+00  0.648288E+00  0.648399E+00  0.648363E+00  0.648628E+00  0.648582E+00
  0.648550E+00  0.648324E+00  0.648061E+00  0.648432E+00  0.648069E+00  0.647706E+00
  0.647047E+00  0.646793E+00  0.646945E+00  0.646060E+00  0.645762E+00  0.645230E+00
  0.644476E+00  0.643914E+00  0.643138E+00  0.642950E+00  0.642134E+00  0.641904E+00
  0.641705E+00  0.641260E+00  0.641543E+00  0.641305E+00  0.640947E+00  0.641286E+00
  0.641544E+00  0.641941E+00  0.642319E+00  0.642437E+00  0.642688E+00  0.643059E+00
  0.643571E+00  0.644090E+00  0.644319E+00  0.644562E+00  0.645081E+00  0.645724E+00
  0.645871E+00  0.646141E+00  0.646635E+00  0.646883E+00  0.647083E+00  0.647499E+00
  0.647943E+00  0.648204E+00  0.648148E+00  0.648079E+00  0.648555E+00  0.648947E+00
  0.648645E+00  0.648705E+00  0.648799E+00  0.648368E+00  0.648421E+00  0.648165E+00
  0.647781E+00  0.647340E+00  0.646945E+00  0.647259E+00  0.646231E+00  0.645941E+00
  0.645577E+00  0.644833E+00  0.644114E+00  0.643375E+00  0.642949E+00  0.642073E+00
  0.641521E+00  0.641480E+00  0.641058E+00  0.641216E+00  0.641054E+00  0.640811E+00
  0.641065E+00  0.640941E+00  0.641290E+00  0.641328E+00  0.641926E+00  0.642431E+00
  0.642799E+00  0.643388E+00  0.643942E+00  0.644334E+00  0.644401E+00  0.644945E+00
  0.645681E+00  0.645850E+00  0.646334E+00  0.646777E+00  0.646961E+00  0.647115E+00
  0.647353E+00  0.647990E+00  0.648076E+00  0.648096E+00  0.648309E+00  0.648813E+00
  0.648713E+00  0.648537E+00  0.648555E+00  0.648793E+00  0.648706E+00  0.648519E+00
  0.648430E+00  0.648038E+00  0.647839E+00  0.647259E+00  0.647036E+00  0.646523E+00
  0.646066E+00  0.645463E+00  0.644806E+00  0.644071E+00  0.643357E+00  0.642724E+00
  0.642221E+00  0.641381E+00  0.641030E+00  0.640762E+00  0.640891E+00  0.640845E+00
  0.640712E+00  0.640765E+00  0.640566E+00  0.641335E+00  0.641326E+00  0.641589E+00
  0.642014E+00  0.642442E+00  0.643016E+00  0.643571E+00  0.643999E+00  0.644339E+00
  0.644911E+00  0.645227E+00  0.645669E+00  0.646371E+00  0.646423E+00  0.646671E+00
  0.647181E+00  0.647476E+00  0.648011E+00  0.647879E+00  0.648050E+00  0.648515E+00
  0.648932E+00  0.648840E+00  0.649081E+00  0.648868E+00  0.648984E+00  0.649058E+00
  0.648597E+00  0.648527E+00  0.647958E+00  0.647596E+00  0.647036E+00  0.646967E+00
  0.646965E+00  0.646199E+00  0.645196E+00  0.644832E+00  0.644275E+00  0.643297E+00
  0.642487E+00  0.642233E+00  0.641514E+00  0.640941E+00  0.640651E+00  0.640515E+00
  0.640373E+00  0.640474E+00  0.640583E+00  0.640326E+00  0.640905E+00  0.641217E+00
  0.641603E+00  0.641919E+00  0.641969E+00  0.642443E+00  0.643196E+00  0.643438E+00
  0.643862E+00  0.644578E+00  0.644901E+00  0.645348E+00  0.645782E+00  0.646085E+00
  0.646628E+00  0.646913E+00  0.647223E+00  0.647947E+00  0.647947E+00  0.648086E+00
  0.648532E+00  0.648869E+00  0.648965E+00  0.649194E+00  0.648878E+00  0.649033E+00
  0.649146E+00  0.648697E+00  0.648738E+00  0.648298E+00  0.647527E+00  0.646967E+00
  0.647332E+00  0.646894E+00  0.646219E+00  0.645557E+00  0.644967E+00  0.644355E+00
  0.643607E+00  0.642809E+00  0.642032E+00  0.641510E+00  0.641069E+00  0.640700E+00
  0.640413E+00  0.640312E+00  0.640472E+00  0.640427E+00  0.640261E+00  0.640412E+00
  0.640826E+00  0.641379E+00  0.641780E+00  0.641976E+00  0.642579E+00  0.643188E+00
  0.643429E+00  0.644064E+00  0.644487E+00  0.644775E+00  0.645336E+00  0.645737E+00
  0.646145E+00  0.646511E+00  0.646941E+00  0.647348E+00  0.647799E+00  0.648135E+00
  0.648248E+00  0.648549E+00  0.648923E+00  0.648947E+00  0.648870E+00  0.648884E+00
  0.649046E+00  0.649198E+00  0.649123E+00  0.648785E+00  0.648397E+00  0.647851E+00
  0.647332E+00  0.647453E+00  0.646466E+00  0.645976E+00  0.645712E+00  0.644654E+00
  0.643771E+00  0.643388E+00  0.642811E+00  0.641700E+00  0.641259E+00  0.640946E+00
  0.640618E+00  0.640426E+00  0.640385E+00  0.640393E+00  0.640249E+00  0.640559E+00
  0.640887E+00  0.641130E+00  0.641242E+00  0.641518E+00  0.642134E+00  0.642936E+00
  0.643154E+00  0.643341E+00  0.644231E+00  0.644445E+00  0.644664E+00  0.645513E+00
  0.646143E+00  0.646304E+00  0.646281E+00  0.647074E+00  0.647647E+00  0.647764E+00
  0.648254E+00  0.648326E+00  0.648523E+00  0.649087E+00  0.649205E+00  0.649062E+00
  0.649251E+00  0.649156E+00  0.649110E+00  0.649101E+00  0.648290E+00  0.647895E+00
  0.647862E+00  0.647453E+00  0.647332E+00  0.646894E+00  0.646219E+00  0.645557E+00
  0.644967E+00  0.644355E+00  0.643607E+00  0.642809E+00  0.642032E+00  0.641510E+00
  0.641069E+00  0.640700E+00  0.640413E+00  0.640312E+00  0.640472E+00  0.640427E+00
  0.640261E+00  0.640412E+00  0.640826E+00  0.641379E+00  0.641780E+00  0.641976E+00
  0.642579E+00  0.643188E+00  0.643429E+00  0.644064E+00  0.644487E+00  0.644775E+00
  0.645336E+00  0.645737E+00  0.646145E+00  0.646511E+00  0.646941E+00  0.647348E+00
  0.647799E+00  0.648135E+00  0.648248E+00  0.648549E+00  0.648923E+00  0.648947E+00
  0.648870E+00  0.648884E+00  0.649046E+00  0.649198E+00  0.649123E+00  0.648785E+00
  0.648397E+00  0.647851E+00  0.647332E+00  0.646967E+00  0.646965E+00  0.646199E+00
  0.645196E+00  0.644832E+00  0.644275E+00  0.643297E+00  0.642487E+00  0.642233E+00
  0.641514E+00  0.640941E+00  0.640651E+00  0.640515E+00  0.640373E+00  0.640474E+00
  0.640583E+00  0.640326E+00  0.640905E+00  0.641217E+00  0.641603E+00  0.641919E+00
  0.641969E+00  0.642443E+00  0.643196E+00  0.643438E+00  0.643862E+00  0.644578E+00
  0.644901E+00  0.645348E+00  0.645782E+00  0.646085E+00  0.646628E+00  0.646913E+00
  0.647223E+00  0.647947E+00  0.647947E+00  0.648086E+00  0.648532E+00  0.648869E+00
  0.648965E+00  0.649194E+00  0.648878E+00  0.649033E+00  0.649146E+00  0.648697E+00
  0.648738E+00  0.648298E+00  0.647527E+00  0.646967E+00  0.647036E+00  0.646523E+00
  0.646066E+00  0.645463E+00  0.644806E+00  0.644071E+00  0.643357E+00  0.642724E+00
  0.642221E+00  0.641381E+00  0.641030E+00  0.640762E+00  0.640891E+00  0.640845E+00
  0.640712E+00  0.640765E+00  0.640566E+00  0.641335E+00  0.641326E+00  0.641589E+00
  0.642014E+00  0.642442E+00  0.643016E+00  0.643571E+00  0.643999E+00  0.644339E+00
  0.644911E+00  0.645227E+00  0.645669E+00  0.646371E+00  0.646423E+00  0.646671E+00
  0.647181E+00  0.647476E+00  0.648011E+00  0.647879E+00  0.648050E+00  0.648515E+00
  0.648932E+00  0.648840E+00  0.649081E+00  0.648868E+00  0.648984E+00  0.649058E+00
  0.648597E+00  0.648527E+00  0.647958E+00  0.647596E+00  0.647036E+00  0.647259E+00
  0.646231E+00  0.645941E+00  0.645577E+00  0.644833E+00  0.644114E+00  0.643375E+00
  0.642949E+00  0.642073E+00  0.641521E+00  0.641480E+00  0.641058E+00  0.641216E+00
  0.641054E+00  0.640811E+00  0.641065E+00  0.640941E+00  0.641290E+00  0.641328E+00
  0.641926E+00  0.642431E+00  0.642799E+00  0.643388E+00  0.643942E+00  0.644334E+00
  0.644401E+00  0.644945E+00  0.645681E+00  0.645850E+00  0.646334E+00  0.646777E+00
  0.646961E+00  0.647115E+00  0.647353E+00  0.647990E+00  0.648076E+00  0.648096E+00
  0.648309E+00  0.648813E+00  0.648713E+00  0.648537E+00  0.648555E+00  0.648793E+00
  0.648706E+00  0.648519E+00  0.648430E+00  0.648038E+00  0.647839E+00  0.647259E+00
  0.646945E+00  0.646060E+00  0.645762E+00  0.645230E+00  0.644476E+00  0.643914E+00
  0.643138E+00  0.642950E+00  0.642134E+00  0.641904E+00  0.641705E+00  0.641260E+00
  0.641543E+00  0.641305E+00  0.640947E+00  0.641286E+00  0.641544E+00  0.641941E+00
  0.642319E+00  0.642437E+00  0.642688E+00  0.643059E+00  0.643571E+00  0.644090E+00
  0.644319E+00  0.644562E+00  0.645081E+00  0.645724E+00  0.645871E+00  0.646141E+00
  0.646635E+00  0.646883E+00  0.647083E+00  0.647499E+00  0.647943E+00  0.648204E+00
  0.648148E+00  0.648079E+00  0.648555E+00  0.648947E+00  0.648645E+00  0.648705E+00
  0.648799E+00  0.648368E+00  0.648421E+00  0.648165E+00  0.647781E+00  0.647340E+00
  0.646945E+00  0.646793E+00  0.646280E+00  0.645728E+00  0.644959E+00  0.644405E+00
  0.644083E+00  0.643315E+00  0.642941E+00  0.642374E+00  0.642309E+00  0.642157E+00
  0.641818E+00  0.641761E+00  0.641769E+00  0.641710E+00  0.641741E+00  0.641875E+00
  0.642093E+00  0.642858E+00  0.642904E+00  0.643400E+00  0.643855E+00  0.644066E+00
  0.644612E+00  0.644972E+00  0.645494E+00  0.645706E+00  0.645897E+00  0.646305E+00
  0.646677E+00  0.646823E+00  0.646993E+00  0.647518E+00  0.647926E+00  0.647784E+00
  0.648139E+00  0.648288E+00  0.648399E+00  0.648363E+00  0.648628E+00  0.648582E+00
  0.648550E+00  0.648324E+00  0.648061E+00  0.648432E+00  0.648069E+00  0.647706E+00
  0.647047E+00  0.646793E+00  0.646510E+00  0.646189E+00  0.645530E+00  0.644743E+00
  0.644441E+00  0.644022E+00  0.643208E+00  0.642883E+00  0.642782E+00  0.642364E+00
  0.642438E+00  0.642365E+00  0.641982E+00  0.642119E+00  0.642206E+00  0.642233E+00
  0.642709E+00  0.642780E+00  0.643296E+00  0.643327E+00  0.644018E+00  0.644553E+00
  0.644824E+00  0.645422E+00  0.645623E+00  0.646027E+00  0.646387E+00  0.646724E+00
  0.647079E+00  0.647412E+00  0.647484E+00  0.647579E+00  0.647746E+00  0.647840E+00
  0.647917E+00  0.648389E+00  0.648185E+00  0.648468E+00  0.648158E+00  0.648244E+00
  0.648568E+00  0.648393E+00  0.647985E+00  0.647944E+00  0.647890E+00  0.647483E+00
  0.647540E+00  0.647001E+00  0.646510E+00  0.646142E+00  0.645873E+00  0.645496E+00
  0.644900E+00  0.644521E+00  0.644058E+00  0.643596E+00  0.643259E+00  0.643309E+00
  0.642665E+00  0.642697E+00  0.642657E+00  0.642706E+00  0.642716E+00  0.642578E+00
  0.642763E+00  0.643423E+00  0.643527E+00  0.643797E+00  0.643740E+00  0.644363E+00
  0.644963E+00  0.645380E+00  0.645922E+00  0.646106E+00  0.646429E+00  0.646807E+00
  0.647054E+00  0.647208E+00  0.647558E+00  0.647509E+00  0.647767E+00  0.647951E+00
  0.647831E+00  0.647999E+00  0.648420E+00  0.648036E+00  0.648256E+00  0.647957E+00
  0.648066E+00  0.648339E+00  0.648362E+00  0.648146E+00  0.647952E+00  0.647476E+00
  0.647341E+00  0.647299E+00  0.646761E+00  0.646142E+00  0.646236E+00  0.645770E+00
  0.645259E+00  0.644809E+00  0.644313E+00  0.643940E+00  0.643899E+00  0.643254E+00
  0.643193E+00  0.643147E+00  0.643200E+00  0.642806E+00  0.643020E+00  0.642825E+00
  0.643051E+00  0.643602E+00  0.643967E+00  0.644110E+00  0.644723E+00  0.644912E+00
  0.645403E+00  0.645848E+00  0.645942E+00  0.646200E+00  0.646640E+00  0.646822E+00
  0.646930E+00  0.647168E+00  0.647307E+00  0.647746E+00  0.647624E+00  0.647848E+00
  0.648181E+00  0.648243E+00  0.648044E+00  0.648226E+00  0.648280E+00  0.648413E+00
  0.647968E+00  0.648057E+00  0.647955E+00  0.647973E+00  0.647790E+00  0.647386E+00
  0.646941E+00  0.647096E+00  0.646753E+00  0.646416E+00  0.646236E+00  0.646109E+00
  0.645531E+00  0.645066E+00  0.644975E+00  0.644539E+00  0.643994E+00  0.644180E+00
  0.643877E+00  0.643600E+00  0.643409E+00  0.643434E+00  0.643240E+00  0.643332E+00
  0.643360E+00  0.643950E+00  0.644352E+00  0.644635E+00  0.644618E+00  0.645194E+00
  0.645631E+00  0.646115E+00  0.646523E+00  0.646642E+00  0.646761E+00  0.647370E+00
  0.647515E+00  0.647609E+00  0.647975E+00  0.647793E+00  0.647985E+00  0.648112E+00
  0.648250E+00  0.648134E+00  0.648341E+00  0.648166E+00  0.648146E+00  0.648205E+00
  0.648391E+00  0.647912E+00  0.647842E+00  0.647601E+00  0.647416E+00  0.647482E+00
  0.647552E+00  0.647096E+00  0.646688E+00  0.646275E+00  0.646179E+00  0.646109E+00
  0.645761E+00  0.645165E+00  0.644920E+00  0.645012E+00  0.644607E+00  0.644055E+00
  0.644223E+00  0.644053E+00  0.643734E+00  0.643577E+00  0.643736E+00  0.643823E+00
  0.643707E+00  0.644198E+00  0.644638E+00  0.644742E+00  0.645260E+00  0.645171E+00
  0.645658E+00  0.646323E+00  0.646715E+00  0.646844E+00  0.647314E+00  0.647545E+00
  0.647893E+00  0.648026E+00  0.648275E+00  0.648595E+00  0.648499E+00  0.648580E+00
  0.648448E+00  0.648653E+00  0.648336E+00  0.648215E+00  0.648131E+00  0.648215E+00
  0.647936E+00  0.648167E+00  0.647907E+00  0.647544E+00  0.647356E+00  0.647130E+00
  0.647092E+00  0.647011E+00  0.646879E+00  0.646339E+00  0.645978E+00  0.646024E+00
  0.645761E+00  0.645469E+00  0.645082E+00  0.644739E+00  0.644694E+00  0.644419E+00
  0.644146E+00  0.644253E+00  0.643811E+00  0.643669E+00  0.644016E+00  0.644002E+00
  0.643993E+00  0.644119E+00  0.644838E+00  0.645051E+00  0.645354E+00  0.645776E+00
  0.646055E+00  0.646882E+00  0.647356E+00  0.647469E+00  0.647611E+00  0.648323E+00
  0.648610E+00  0.648751E+00  0.648900E+00  0.649198E+00  0.649201E+00  0.649239E+00
  0.649378E+00  0.648874E+00  0.648986E+00  0.648785E+00  0.648574E+00  0.648407E+00
  0.648382E+00  0.648007E+00  0.647857E+00  0.647845E+00  0.647600E+00  0.647232E+00
  0.646861E+00  0.646695E+00  0.646174E+00  0.646419E+00  0.646187E+00  0.645627E+00
  0.645585E+00  0.645469E+00  0.642957E+00  0.642545E+00  0.641895E+00  0.641451E+00
  0.641220E+00  0.640920E+00  0.640793E+00  0.640745E+00  0.640841E+00  0.641101E+00
  0.641391E+00  0.641650E+00  0.641980E+00  0.642401E+00  0.642932E+00  0.643911E+00
  0.644661E+00  0.645304E+00  0.645926E+00  0.646735E+00  0.647756E+00  0.648198E+00
  0.648784E+00  0.649176E+00  0.649709E+00  0.649971E+00  0.650106E+00  0.650490E+00
  0.650724E+00  0.650767E+00  0.650595E+00  0.650807E+00  0.650492E+00  0.650447E+00
  0.650115E+00  0.649756E+00  0.649479E+00  0.649035E+00  0.648449E+00  0.647837E+00
  0.647450E+00  0.646935E+00  0.646514E+00  0.645848E+00  0.645086E+00  0.644459E+00
  0.644130E+00  0.643496E+00  0.642957E+00  0.642870E+00  0.642418E+00  0.642119E+00
  0.641892E+00  0.641602E+00  0.641302E+00  0.641301E+00  0.641331E+00  0.641374E+00
  0.641399E+00  0.641848E+00  0.642081E+00  0.642598E+00  0.643275E+00  0.643760E+00
  0.645050E+00  0.645479E+00  0.646179E+00  0.646901E+00  0.647647E+00  0.648614E+00
  0.649129E+00  0.649329E+00  0.649870E+00  0.650633E+00  0.650561E+00  0.650796E+00
  0.651588E+00  0.651375E+00  0.651087E+00  0.651487E+00  0.651402E+00  0.650733E+00
  0.650746E+00  0.650366E+00  0.649630E+00  0.649542E+00  0.649003E+00  0.648468E+00
  0.647897E+00  0.647305E+00  0.646734E+00  0.646597E+00  0.645986E+00  0.645048E+00
  0.644355E+00  0.643805E+00  0.643388E+00  0.642870E+00  0.642952E+00  0.642510E+00
  0.642383E+00  0.641937E+00  0.641630E+00  0.641682E+00  0.641657E+00  0.641762E+00
  0.641974E+00  0.641718E+00  0.642433E+00  0.642857E+00  0.643314E+00  0.644355E+00
  0.644914E+00  0.645738E+00  0.646200E+00  0.647074E+00  0.647810E+00  0.648751E+00
  0.649309E+00  0.649982E+00  0.650322E+00  0.650951E+00  0.651422E+00  0.651404E+00
  0.651527E+00  0.652139E+00  0.652168E+00  0.651949E+00  0.652072E+00  0.651364E+00
  0.651054E+00  0.650941E+00  0.650653E+00  0.650062E+00  0.649747E+00  0.649152E+00
  0.648783E+00  0.648028E+00  0.647346E+00  0.646507E+00  0.645945E+00  0.645766E+00
  0.645244E+00  0.644654E+00  0.643782E+00  0.643356E+00  0.642952E+00  0.643293E+00
  0.642345E+00  0.642182E+00  0.642105E+00  0.641885E+00  0.641935E+00  0.641838E+00
  0.641979E+00  0.642354E+00  0.642438E+00  0.643151E+00  0.643499E+00  0.644040E+00
  0.645157E+00  0.645841E+00  0.646424E+00  0.647147E+00  0.647972E+00  0.648627E+00
  0.649656E+00  0.649816E+00  0.650617E+00  0.651280E+00  0.651937E+00  0.652062E+00
  0.652597E+00  0.652744E+00  0.652826E+00  0.652866E+00  0.652522E+00  0.652526E+00
  0.651892E+00  0.651932E+00  0.651252E+00  0.650847E+00  0.650553E+00  0.649866E+00
  0.649066E+00  0.648681E+00  0.647962E+00  0.647431E+00  0.646671E+00  0.645919E+00
  0.645767E+00  0.645285E+00  0.644733E+00  0.643713E+00  0.643423E+00  0.643293E+00
  0.643291E+00  0.642510E+00  0.642299E+00  0.642226E+00  0.642078E+00  0.642133E+00
  0.642032E+00  0.642159E+00  0.642442E+00  0.642994E+00  0.643758E+00  0.644319E+00
  0.645019E+00  0.645583E+00  0.646217E+00  0.647059E+00  0.648034E+00  0.648793E+00
  0.649523E+00  0.650312E+00  0.650594E+00  0.651510E+00  0.651969E+00  0.652610E+00
  0.652785E+00  0.653355E+00  0.653415E+00  0.653424E+00  0.653534E+00  0.653158E+00
  0.653060E+00  0.652438E+00  0.652221E+00  0.651512E+00  0.651011E+00  0.650424E+00
  0.649780E+00  0.649191E+00  0.648546E+00  0.648069E+00  0.647590E+00  0.646795E+00
  0.645946E+00  0.645232E+00  0.644558E+00  0.644410E+00  0.643955E+00  0.643440E+00
  0.643291E+00  0.643202E+00  0.642901E+00  0.642704E+00  0.642435E+00  0.642496E+00
  0.642846E+00  0.642776E+00  0.642925E+00  0.643292E+00  0.643810E+00  0.644267E+00
  0.644917E+00  0.645611E+00  0.646183E+00  0.646836E+00  0.647529E+00  0.648681E+00
  0.649463E+00  0.650297E+00  0.651017E+00  0.651604E+00  0.652494E+00  0.652918E+00
  0.653426E+00  0.653637E+00  0.654179E+00  0.654394E+00  0.654046E+00  0.654006E+00
  0.653933E+00  0.653447E+00  0.653158E+00  0.652711E+00  0.651824E+00  0.651422E+00
  0.650873E+00  0.650169E+00  0.649590E+00  0.648631E+00  0.648071E+00  0.647449E+00
  0.646672E+00  0.645785E+00  0.644930E+00  0.644615E+00  0.644384E+00  0.644100E+00
  0.643442E+00  0.643202E+00  0.643140E+00  0.642593E+00  0.642496E+00  0.642483E+00
  0.642377E+00  0.642538E+00  0.642704E+00  0.643068E+00  0.643748E+00  0.644313E+00
  0.644730E+00  0.645406E+00  0.645862E+00  0.646772E+00  0.647850E+00  0.648467E+00
  0.649555E+00  0.650139E+00  0.650858E+00  0.651621E+00  0.652358E+00  0.653047E+00
  0.653434E+00  0.653781E+00  0.654199E+00  0.654645E+00  0.654912E+00  0.654332E+00
  0.654169E+00  0.654442E+00  0.653668E+00  0.653571E+00  0.653009E+00  0.652112E+00
  0.651591E+00  0.650897E+00  0.650044E+00  0.649492E+00  0.648617E+00  0.648157E+00
  0.647483E+00  0.646866E+00  0.646376E+00  0.645480E+00  0.644943E+00  0.644029E+00
  0.643436E+00  0.643307E+00  0.643140E+00  0.642921E+00  0.642537E+00  0.642554E+00
  0.642455E+00  0.642516E+00  0.642762E+00  0.643047E+00  0.643232E+00  0.643810E+00
  0.644374E+00  0.644954E+00  0.645821E+00  0.646417E+00  0.647168E+00  0.648285E+00
  0.649156E+00  0.650049E+00  0.650623E+00  0.651446E+00  0.652202E+00  0.653067E+00
  0.653785E+00  0.654135E+00  0.654628E+00  0.655210E+00  0.654939E+00  0.654985E+00
  0.655157E+00  0.654907E+00  0.654719E+00  0.654225E+00  0.653880E+00  0.652973E+00
  0.652688E+00  0.652036E+00  0.650960E+00  0.650351E+00  0.649763E+00  0.648557E+00
  0.648005E+00  0.647196E+00  0.646541E+00  0.646382E+00  0.645276E+00  0.644580E+00
  0.644227E+00  0.643584E+00  0.643290E+00  0.642921E+00  0.642919E+00  0.642840E+00
  0.642936E+00  0.642676E+00  0.642931E+00  0.643169E+00  0.643500E+00  0.643646E+00
  0.644106E+00  0.644601E+00  0.645254E+00  0.646055E+00  0.647018E+00  0.647894E+00
  0.648710E+00  0.649448E+00  0.650217E+00  0.651136E+00  0.652147E+00  0.652771E+00
  0.653358E+00  0.654057E+00  0.654694E+00  0.655215E+00  0.655434E+00  0.655160E+00
  0.655240E+00  0.655568E+00  0.655142E+00  0.654503E+00  0.654471E+00  0.654212E+00
  0.653263E+00  0.652809E+00  0.652058E+00  0.651322E+00  0.650756E+00  0.649896E+00
  0.648775E+00  0.648078E+00  0.647190E+00  0.646514E+00  0.645991E+00  0.644982E+00
  0.644600E+00  0.644530E+00  0.643965E+00  0.643595E+00  0.642919E+00  0.643146E+00
  0.642857E+00  0.642807E+00  0.642886E+00  0.642956E+00  0.642903E+00  0.643468E+00
  0.643784E+00  0.644315E+00  0.644959E+00  0.645830E+00  0.646546E+00  0.647170E+00
  0.648047E+00  0.649003E+00  0.649918E+00  0.650813E+00  0.651725E+00  0.652486E+00
  0.653204E+00  0.653713E+00  0.654386E+00  0.655178E+00  0.655400E+00  0.655396E+00
  0.655733E+00  0.655679E+00  0.655330E+00  0.655427E+00  0.655235E+00  0.654602E+00
  0.654024E+00  0.653642E+00  0.652925E+00  0.652101E+00  0.651557E+00  0.650507E+00
  0.649509E+00  0.649025E+00  0.648210E+00  0.647332E+00  0.646825E+00  0.645994E+00
  0.645309E+00  0.644733E+00  0.643961E+00  0.643721E+00  0.643812E+00  0.643146E+00
  0.642748E+00  0.642959E+00  0.642778E+00  0.642764E+00  0.642956E+00  0.643158E+00
  0.643511E+00  0.643891E+00  0.644649E+00  0.645168E+00  0.645553E+00  0.646571E+00
  0.647485E+00  0.648215E+00  0.649067E+00  0.650103E+00  0.651059E+00  0.651911E+00
  0.652499E+00  0.653489E+00  0.654214E+00  0.654855E+00  0.655451E+00  0.655459E+00
  0.655774E+00  0.656126E+00  0.656050E+00  0.655570E+00  0.655594E+00  0.655535E+00
  0.654691E+00  0.654144E+00  0.653893E+00  0.653177E+00  0.652239E+00  0.651395E+00
  0.650512E+00  0.649708E+00  0.649167E+00  0.647967E+00  0.647017E+00  0.646620E+00
  0.646086E+00  0.645454E+00  0.644506E+00  0.643831E+00  0.643717E+00  0.643145E+00
  0.642748E+00  0.642755E+00  0.643006E+00  0.643055E+00  0.642675E+00  0.642954E+00
  0.643385E+00  0.643323E+00  0.644083E+00  0.644768E+00  0.645259E+00  0.645569E+00
  0.646668E+00  0.647786E+00  0.648516E+00  0.649283E+00  0.650207E+00  0.651002E+00
  0.651972E+00  0.652593E+00  0.653734E+00  0.654411E+00  0.654793E+00  0.655422E+00
  0.655490E+00  0.656040E+00  0.655882E+00  0.656004E+00  0.655917E+00  0.655437E+00
  0.655177E+00  0.654716E+00  0.654545E+00  0.653730E+00  0.652992E+00  0.652235E+00
  0.651296E+00  0.650705E+00  0.649844E+00  0.649223E+00  0.648072E+00  0.647088E+00
  0.646470E+00  0.646043E+00  0.645277E+00  0.644408E+00  0.643977E+00  0.643847E+00
  0.643159E+00  0.642755E+00  0.643244E+00  0.642959E+00  0.643227E+00  0.642841E+00
  0.643074E+00  0.643483E+00  0.643332E+00  0.644363E+00  0.644738E+00  0.645360E+00
  0.646105E+00  0.647019E+00  0.647708E+00  0.648358E+00  0.649322E+00  0.650344E+00
  0.651070E+00  0.652058E+00  0.652657E+00  0.653865E+00  0.654495E+00  0.654763E+00
  0.655612E+00  0.655809E+00  0.656373E+00  0.655896E+00  0.656033E+00  0.656159E+00
  0.655680E+00  0.655422E+00  0.654920E+00  0.654697E+00  0.653561E+00  0.652946E+00
  0.652477E+00  0.651558E+00  0.650790E+00  0.649635E+00  0.649126E+00  0.648204E+00
  0.647239E+00  0.646440E+00  0.645928E+00  0.645169E+00  0.644490E+00  0.643952E+00
  0.643933E+00  0.643836E+00  0.643244E+00  0.642755E+00  0.643006E+00  0.643055E+00
  0.642675E+00  0.642954E+00  0.643385E+00  0.643323E+00  0.644083E+00  0.644768E+00
  0.645259E+00  0.645569E+00  0.646668E+00  0.647786E+00  0.648516E+00  0.649283E+00
  0.650207E+00  0.651002E+00  0.651972E+00  0.652593E+00  0.653734E+00  0.654411E+00
  0.654793E+00  0.655422E+00  0.655490E+00  0.656040E+00  0.655882E+00  0.656004E+00
  0.655917E+00  0.655437E+00  0.655177E+00  0.654716E+00  0.654545E+00  0.653730E+00
  0.652992E+00  0.652235E+00  0.651296E+00  0.650705E+00  0.649844E+00  0.649223E+00
  0.648072E+00  0.647088E+00  0.646470E+00  0.646043E+00  0.645277E+00  0.644408E+00
  0.643977E+00  0.643847E+00  0.643159E+00  0.642755E+00  0.642748E+00  0.642959E+00
  0.642778E+00  0.642764E+00  0.642956E+00  0.643158E+00  0.643511E+00  0.643891E+00
  0.644649E+00  0.645168E+00  0.645553E+00  0.646571E+00  0.647485E+00  0.648215E+00
  0.649067E+00  0.650103E+00  0.651059E+00  0.651911E+00  0.652499E+00  0.653489E+00
[...]
  0.644994E+00  0.644596E+00  0.644832E+00  0.644888E+00  0.645210E+00  0.645192E+00
  0.645119E+00  0.645380E+00  0.645427E+00  0.645905E+00  0.645905E+00  0.646057E+00
  0.646378E+00  0.646310E+00  0.646292E+00  0.646615E+00  0.646561E+00  0.646131E+00
  0.646659E+00  0.646644E+00  0.646792E+00  0.647110E+00  0.647436E+00  0.647880E+00
  0.648042E+00  0.647909E+00  0.648299E+00  0.648176E+00  0.648572E+00  0.648462E+00
  0.648725E+00  0.648755E+00  0.648790E+00  0.648528E+00  0.648402E+00  0.648401E+00
  0.648058E+00  0.647940E+00  0.647594E+00  0.647148E+00  0.646645E+00  0.646459E+00
  0.645970E+00  0.646177E+00  0.645547E+00  0.645700E+00  0.645596E+00  0.645546E+00
  0.645342E+00  0.645140E+00  0.645297E+00  0.645465E+00  0.645460E+00  0.645697E+00
  0.645688E+00  0.645663E+00  0.645769E+00  0.645905E+00  0.646480E+00  0.646415E+00
  0.646189E+00  0.646540E+00  0.646612E+00  0.646443E+00  0.646606E+00  0.646509E+00
  0.646181E+00  0.646802E+00  0.646722E+00  0.646798E+00  0.646721E+00  0.646767E+00
  0.647326E+00  0.647805E+00  0.647831E+00  0.647900E+00  0.647660E+00  0.648263E+00
  0.648260E+00  0.648315E+00  0.648303E+00  0.648128E+00  0.648017E+00  0.648030E+00
  0.647891E+00  0.647565E+00  0.647667E+00  0.647340E+00  0.646829E+00  0.646731E+00
  0.646715E+00  0.646253E+00  0.646255E+00  0.645901E+00  0.646222E+00  0.646051E+00
  0.645850E+00  0.645548E+00  0.645668E+00  0.645949E+00  0.646088E+00  0.646045E+00
  0.645994E+00  0.645948E+00  0.646259E+00  0.646302E+00  0.646480E+00  0.646873E+00
  0.646875E+00  0.646751E+00  0.646831E+00  0.646593E+00  0.646460E+00  0.646754E+00
  0.646909E+00  0.646737E+00  0.646818E+00  0.646548E+00  0.646911E+00  0.646724E+00
  0.646698E+00  0.646865E+00  0.647095E+00  0.647232E+00  0.647441E+00  0.647571E+00
  0.647583E+00  0.647714E+00  0.647857E+00  0.647820E+00  0.647663E+00  0.647466E+00
  0.647398E+00  0.647372E+00  0.646992E+00  0.647059E+00  0.647081E+00  0.646549E+00
  0.646439E+00  0.646564E+00  0.646360E+00  0.646314E+00  0.646369E+00  0.646452E+00
  0.646409E+00  0.646240E+00  0.646134E+00  0.646416E+00  0.646280E+00  0.646391E+00
  0.646461E+00  0.646746E+00  0.646659E+00  0.646687E+00  0.646713E+00  0.646873E+00
  0.647118E+00  0.646965E+00  0.647096E+00  0.646919E+00  0.646731E+00  0.646839E+00
  0.646617E+00  0.646503E+00  0.646579E+00  0.646517E+00  0.646333E+00  0.646622E+00
  0.646341E+00  0.646344E+00  0.646303E+00  0.646463E+00  0.646992E+00  0.647188E+00
  0.647264E+00  0.646792E+00  0.647066E+00  0.647205E+00  0.647166E+00  0.647250E+00
  0.647118E+00  0.646965E+00  0.647096E+00  0.646919E+00  0.646731E+00  0.646839E+00
  0.646617E+00  0.646503E+00  0.646579E+00  0.646517E+00  0.646333E+00  0.646622E+00
  0.646341E+00  0.646344E+00  0.646303E+00  0.646463E+00  0.646992E+00  0.647188E+00
  0.647264E+00  0.646792E+00  0.647066E+00  0.647205E+00  0.647166E+00  0.647250E+00
  0.647118E+00  0.647466E+00  0.647398E+00  0.647372E+00  0.646992E+00  0.647059E+00
  0.647081E+00  0.646549E+00  0.646439E+00  0.646564E+00  0.646360E+00  0.646314E+00
  0.646369E+00  0.646452E+00  0.646409E+00  0.646240E+00  0.646134E+00  0.646416E+00
  0.646280E+00  0.646391E+00  0.646461E+00  0.646746E+00  0.646659E+00  0.646687E+00
  0.646713E+00  0.646873E+00  0.646875E+00  0.646751E+00  0.646831E+00  0.646593E+00
  0.646460E+00  0.646754E+00  0.646909E+00  0.646737E+00  0.646818E+00  0.646548E+00
  0.646911E+00  0.646724E+00  0.646698E+00  0.646865E+00  0.647095E+00  0.647232E+00
  0.647441E+00  0.647571E+00  0.647583E+00  0.647714E+00  0.647857E+00  0.647820E+00
  0.647663E+00  0.647466E+00  0.648017E+00  0.648030E+00  0.647891E+00  0.647565E+00
  0.647667E+00  0.647340E+00  0.646829E+00  0.646731E+00  0.646715E+00  0.646253E+00
  0.646255E+00  0.645901E+00  0.646222E+00  0.646051E+00  0.645850E+00  0.645548E+00
  0.645668E+00  0.645949E+00  0.646088E+00  0.646045E+00  0.645994E+00  0.645948E+00
  0.646259E+00  0.646302E+00  0.646480E+00  0.646415E+00  0.646189E+00  0.646540E+00
  0.646612E+00  0.646443E+00  0.646606E+00  0.646509E+00  0.646181E+00  0.646802E+00
  0.646722E+00  0.646798E+00  0.646721E+00  0.646767E+00  0.647326E+00  0.647805E+00
  0.647831E+00  0.647900E+00  0.647660E+00  0.648263E+00  0.648260E+00  0.648315E+00
  0.648303E+00  0.648128E+00  0.648017E+00  0.648528E+00  0.648402E+00  0.648401E+00
  0.648058E+00  0.647940E+00  0.647594E+00  0.647148E+00  0.646645E+00  0.646459E+00
  0.645970E+00  0.646177E+00  0.645547E+00  0.645700E+00  0.645596E+00  0.645546E+00
  0.645342E+00  0.645140E+00  0.645297E+00  0.645465E+00  0.645460E+00  0.645697E+00
  0.645688E+00  0.645663E+00  0.645769E+00  0.645905E+00  0.645905E+00  0.646057E+00
  0.646378E+00  0.646310E+00  0.646292E+00  0.646615E+00  0.646561E+00  0.646131E+00
  0.646659E+00  0.646644E+00  0.646792E+00  0.647110E+00  0.647436E+00  0.647880E+00
  0.648042E+00  0.647909E+00  0.648299E+00  0.648176E+00  0.648572E+00  0.648462E+00
  0.648725E+00  0.648755E+00  0.648790E+00  0.648528E+00  0.648970E+00  0.648844E+00
  0.648761E+00  0.648370E+00  0.648118E+00  0.647827E+00  0.647572E+00  0.647034E+00
  0.646691E+00  0.646119E+00  0.646114E+00  0.645546E+00  0.645471E+00  0.645251E+00
  0.645217E+00  0.645293E+00  0.644994E+00  0.644596E+00  0.644832E+00  0.644888E+00
  0.645210E+00  0.645192E+00  0.645119E+00  0.645380E+00  0.645427E+00  0.645451E+00
  0.645537E+00  0.645826E+00  0.645746E+00  0.645659E+00  0.646162E+00  0.646380E+00
  0.646255E+00  0.646780E+00  0.646941E+00  0.647198E+00  0.647445E+00  0.647834E+00
  0.648030E+00  0.648264E+00  0.648087E+00  0.648553E+00  0.648974E+00  0.649222E+00
  0.649179E+00  0.649267E+00  0.649088E+00  0.649165E+00  0.648970E+00  0.649538E+00
  0.649383E+00  0.649092E+00  0.648886E+00  0.648476E+00  0.647867E+00  0.647659E+00
  0.647340E+00  0.646761E+00  0.646286E+00  0.645757E+00  0.645384E+00  0.645134E+00
  0.644610E+00  0.644698E+00  0.644755E+00  0.644810E+00  0.644620E+00  0.644746E+00
  0.644524E+00  0.644562E+00  0.644463E+00  0.644582E+00  0.644906E+00  0.644962E+00
  0.645079E+00  0.644839E+00  0.645229E+00  0.645565E+00  0.645502E+00  0.645803E+00
  0.645963E+00  0.646309E+00  0.646993E+00  0.647185E+00  0.647300E+00  0.647398E+00
  0.647954E+00  0.648066E+00  0.648615E+00  0.648804E+00  0.649207E+00  0.649481E+00
  0.649567E+00  0.649723E+00  0.649453E+00  0.649551E+00  0.649615E+00  0.649538E+00
  0.649808E+00  0.649686E+00  0.649391E+00  0.649214E+00  0.648692E+00  0.648122E+00
  0.647844E+00  0.647566E+00  0.646705E+00  0.646228E+00  0.645377E+00  0.645294E+00
  0.645182E+00  0.644672E+00  0.644778E+00  0.644190E+00  0.644201E+00  0.644211E+00
  0.644025E+00  0.644039E+00  0.644213E+00  0.644298E+00  0.644429E+00  0.644417E+00
  0.644556E+00  0.645044E+00  0.645065E+00  0.645255E+00  0.645426E+00  0.645658E+00
  0.646118E+00  0.646324E+00  0.646510E+00  0.646764E+00  0.647047E+00  0.647395E+00
  0.647827E+00  0.648414E+00  0.648557E+00  0.648996E+00  0.649047E+00  0.649437E+00
  0.649589E+00  0.649820E+00  0.650265E+00  0.649835E+00  0.650149E+00  0.649921E+00
  0.649808E+00  0.650135E+00  0.650094E+00  0.649688E+00  0.649078E+00  0.648704E+00
  0.648488E+00  0.647746E+00  0.647286E+00  0.646803E+00  0.646323E+00  0.645656E+00
  0.645434E+00  0.644906E+00  0.644407E+00  0.644408E+00  0.643906E+00  0.644051E+00
  0.644040E+00  0.643735E+00  0.644049E+00  0.643790E+00  0.643925E+00  0.644252E+00
  0.644077E+00  0.644278E+00  0.644681E+00  0.644883E+00  0.645082E+00  0.645427E+00
  0.645866E+00  0.646056E+00  0.646409E+00  0.646662E+00  0.646821E+00  0.647180E+00
  0.647380E+00  0.648005E+00  0.648279E+00  0.648646E+00  0.649319E+00  0.649478E+00
  0.649916E+00  0.650087E+00  0.650134E+00  0.650368E+00  0.650256E+00  0.650555E+00
  0.650248E+00  0.650135E+00  0.650366E+00  0.650269E+00  0.649859E+00  0.649043E+00
  0.648825E+00  0.648679E+00  0.647781E+00  0.647060E+00  0.647036E+00  0.646391E+00
  0.645945E+00  0.645249E+00  0.644333E+00  0.644250E+00  0.644180E+00  0.643943E+00
  0.643704E+00  0.643574E+00  0.643443E+00  0.643901E+00  0.643504E+00  0.643594E+00
  0.643869E+00  0.643778E+00  0.644164E+00  0.644517E+00  0.644562E+00  0.644506E+00
  0.644977E+00  0.645314E+00  0.645164E+00  0.645874E+00  0.646611E+00  0.646890E+00
  0.647247E+00  0.647502E+00  0.648534E+00  0.648770E+00  0.648974E+00  0.649298E+00
  0.649765E+00  0.650219E+00  0.650535E+00  0.650579E+00  0.650561E+00  0.650765E+00
  0.650723E+00  0.650697E+00  0.650366E+00  0.650643E+00  0.650351E+00  0.649916E+00
  0.649341E+00  0.648909E+00  0.648223E+00  0.647935E+00  0.647174E+00  0.646949E+00
  0.646204E+00  0.645965E+00  0.645165E+00  0.644443E+00  0.644392E+00  0.643812E+00
  0.643717E+00  0.643210E+00  0.643279E+00  0.643188E+00  0.643199E+00  0.643221E+00
  0.643592E+00  0.643754E+00  0.643586E+00  0.643619E+00  0.644143E+00  0.644512E+00
  0.644419E+00  0.644845E+00  0.645306E+00  0.645441E+00  0.646039E+00  0.646511E+00
  0.646510E+00  0.647085E+00  0.647821E+00  0.648631E+00  0.648742E+00  0.649048E+00
  0.649329E+00  0.650099E+00  0.650219E+00  0.650489E+00  0.650840E+00  0.650904E+00
  0.651101E+00  0.650671E+00  0.651109E+00  0.650643E+00  0.650762E+00  0.650426E+00
  0.649964E+00  0.649675E+00  0.649144E+00  0.648056E+00  0.648116E+00  0.647384E+00
  0.646661E+00  0.645906E+00  0.645773E+00  0.645213E+00  0.644625E+00  0.644077E+00
  0.643342E+00  0.643648E+00  0.643378E+00  0.643399E+00  0.643334E+00  0.643075E+00
  0.643016E+00  0.643206E+00  0.643407E+00  0.643607E+00  0.643568E+00  0.644006E+00
  0.644360E+00  0.644502E+00  0.645036E+00  0.645502E+00  0.645744E+00  0.646144E+00
  0.646786E+00  0.646852E+00  0.647299E+00  0.647906E+00  0.648318E+00  0.648562E+00
  0.648988E+00  0.649566E+00  0.650454E+00  0.650498E+00  0.650646E+00  0.650768E+00
  0.650884E+00  0.651261E+00  0.650943E+00  0.651311E+00  0.650762E+00  0.650691E+00
  0.650516E+00  0.650116E+00  0.649570E+00  0.649202E+00  0.648480E+00  0.647997E+00
  0.647323E+00  0.646892E+00  0.646074E+00  0.645497E+00  0.645062E+00  0.644474E+00
  0.644026E+00  0.643683E+00  0.643465E+00  0.643233E+00  0.643067E+00  0.643015E+00
  0.643039E+00  0.642933E+00  0.643014E+00  0.643173E+00  0.643505E+00  0.643671E+00
  0.644069E+00  0.644258E+00  0.644478E+00  0.644821E+00  0.645061E+00  0.645394E+00
  0.645945E+00  0.646788E+00  0.646868E+00  0.647295E+00  0.647840E+00  0.648434E+00
  0.649021E+00  0.649104E+00  0.649691E+00  0.650255E+00  0.650495E+00  0.650887E+00
  0.650936E+00  0.651096E+00  0.651330E+00  0.651219E+00  0.651252E+00  0.650691E+00
  0.650832E+00  0.650731E+00  0.650276E+00  0.649322E+00  0.648965E+00  0.648526E+00
  0.647534E+00  0.646953E+00  0.647090E+00  0.646359E+00  0.645462E+00  0.645011E+00
  0.644376E+00  0.644128E+00  0.643916E+00  0.643057E+00  0.642904E+00  0.642896E+00
  0.642796E+00  0.642892E+00  0.642887E+00  0.643174E+00  0.643275E+00  0.643293E+00
  0.643313E+00  0.643759E+00  0.644143E+00  0.644535E+00  0.644793E+00  0.645038E+00
  0.645552E+00  0.646091E+00  0.646578E+00  0.646403E+00  0.647037E+00  0.647750E+00
  0.648407E+00  0.649029E+00  0.648985E+00  0.649734E+00  0.650128E+00  0.650374E+00
  0.650886E+00  0.651052E+00  0.651236E+00  0.651183E+00  0.651178E+00  0.651260E+00
  0.650832E+00  0.650691E+00  0.650516E+00  0.650116E+00  0.649570E+00  0.649202E+00
  0.648480E+00  0.647997E+00  0.647323E+00  0.646892E+00  0.646074E+00  0.645497E+00
  0.645062E+00  0.644474E+00  0.644026E+00  0.643683E+00  0.643465E+00  0.643233E+00
  0.643067E+00  0.643015E+00  0.643039E+00  0.642933E+00  0.643014E+00  0.643173E+00
  0.643505E+00  0.643671E+00  0.644069E+00  0.644258E+00  0.644478E+00  0.644821E+00
  0.645061E+00  0.645394E+00  0.645945E+00  0.646788E+00  0.646868E+00  0.647295E+00
  0.647840E+00  0.648434E+00  0.649021E+00  0.649104E+00  0.649691E+00  0.650255E+00
  0.650495E+00  0.650887E+00  0.650936E+00  0.651096E+00  0.651330E+00  0.651219E+00
  0.651252E+00  0.650691E+00  0.650762E+00  0.650426E+00  0.649964E+00  0.649675E+00
  0.649144E+00  0.648056E+00  0.648116E+00  0.647384E+00  0.646661E+00  0.645906E+00
  0.645773E+00  0.645213E+00  0.644625E+00  0.644077E+00  0.643342E+00  0.643648E+00
  0.643378E+00  0.643399E+00  0.643334E+00  0.643075E+00  0.643016E+00  0.643206E+00
  0.643407E+00  0.643607E+00  0.643568E+00  0.644006E+00  0.644360E+00  0.644502E+00
  0.645036E+00  0.645502E+00  0.645744E+00  0.646144E+00  0.646786E+00  0.646852E+00
  0.647299E+00  0.647906E+00  0.648318E+00  0.648562E+00  0.648988E+00  0.649566E+00
  0.650454E+00  0.650498E+00  0.650646E+00  0.650768E+00  0.650884E+00  0.651261E+00
  0.650943E+00  0.651311E+00  0.650762E+00  0.650643E+00  0.650351E+00  0.649916E+00
  0.649341E+00  0.648909E+00  0.648223E+00  0.647935E+00  0.647174E+00  0.646949E+00
  0.646204E+00  0.645965E+00  0.645165E+00  0.644443E+00  0.644392E+00  0.643812E+00
  0.643717E+00  0.643210E+00  0.643279E+00  0.643188E+00  0.643199E+00  0.643221E+00
  0.643592E+00  0.643754E+00  0.643586E+00  0.643619E+00  0.644143E+00  0.644512E+00
  0.644419E+00  0.644845E+00  0.645306E+00  0.645441E+00  0.646039E+00  0.646511E+00
  0.646510E+00  0.647085E+00  0.647821E+00  0.648631E+00  0.648742E+00  0.649048E+00
  0.649329E+00  0.650099E+00  0.650219E+00  0.650489E+00  0.650840E+00  0.650904E+00
  0.651101E+00  0.650671E+00  0.651109E+00  0.650643E+00  0.650366E+00  0.650269E+00
  0.649859E+00  0.649043E+00  0.648825E+00  0.648679E+00  0.647781E+00  0.647060E+00
  0.647036E+00  0.646391E+00  0.645945E+00  0.645249E+00  0.644333E+00  0.644250E+00
  0.644180E+00  0.643943E+00  0.643704E+00  0.643574E+00  0.643443E+00  0.643901E+00
  0.643504E+00  0.643594E+00  0.643869E+00  0.643778E+00  0.644164E+00  0.644517E+00
  0.644562E+00  0.644506E+00  0.644977E+00  0.645314E+00  0.645164E+00  0.645874E+00
  0.646611E+00  0.646890E+00  0.647247E+00  0.647502E+00  0.648534E+00  0.648770E+00
  0.648974E+00  0.649298E+00  0.649765E+00  0.650219E+00  0.650535E+00  0.650579E+00
  0.650561E+00  0.650765E+00  0.650723E+00  0.650697E+00  0.650366E+00  0.650135E+00
  0.650094E+00  0.649688E+00  0.649078E+00  0.648704E+00  0.648488E+00  0.647746E+00
  0.647286E+00  0.646803E+00  0.646323E+00  0.645656E+00  0.645434E+00  0.644906E+00
  0.644407E+00  0.644408E+00  0.643906E+00  0.644051E+00  0.644040E+00  0.643735E+00
  0.644049E+00  0.643790E+00  0.643925E+00  0.644252E+00  0.644077E+00  0.644278E+00
  0.644681E+00  0.644883E+00  0.645082E+00  0.645427E+00  0.645866E+00  0.646056E+00
  0.646409E+00  0.646662E+00  0.646821E+00  0.647180E+00  0.647380E+00  0.648005E+00
  0.648279E+00  0.648646E+00  0.649319E+00  0.649478E+00  0.649916E+00  0.650087E+00
  0.650134E+00  0.650368E+00  0.650256E+00  0.650555E+00  0.650248E+00  0.650135E+00
  0.649808E+00  0.649686E+00  0.649391E+00  0.649214E+00  0.648692E+00  0.648122E+00
  0.647844E+00  0.647566E+00  0.646705E+00  0.646228E+00  0.645377E+00  0.645294E+00
  0.645182E+00  0.644672E+00  0.644778E+00  0.644190E+00  0.644201E+00  0.644211E+00
  0.644025E+00  0.644039E+00  0.644213E+00  0.644298E+00  0.644429E+00  0.644417E+00
  0.644556E+00  0.645044E+00  0.645065E+00  0.645255E+00  0.645426E+00  0.645658E+00
  0.646118E+00  0.646324E+00  0.646510E+00  0.646764E+00  0.647047E+00  0.647395E+00
  0.647827E+00  0.648414E+00  0.648557E+00  0.648996E+00  0.649047E+00  0.649437E+00
  0.649589E+00  0.649820E+00  0.650265E+00  0.649835E+00  0.650149E+00  0.649921E+00
  0.649808E+00  0.649538E+00  0.649383E+00  0.649092E+00  0.648886E+00  0.648476E+00
  0.647867E+00  0.647659E+00  0.647340E+00  0.646761E+00  0.646286E+00  0.645757E+00
  0.645384E+00  0.645134E+00  0.644610E+00  0.644698E+00  0.644755E+00  0.644810E+00
  0.644620E+00  0.644746E+00  0.644524E+00  0.644562E+00  0.644463E+00  0.644582E+00
  0.644906E+00  0.644962E+00  0.645079E+00  0.644839E+00  0.645229E+00  0.645565E+00
  0.645502E+00  0.645803E+00  0.645963E+00  0.646309E+00  0.646993E+00  0.647185E+00
  0.647300E+00  0.647398E+00  0.647954E+00  0.648066E+00  0.648615E+00  0.648804E+00
  0.649207E+00  0.649481E+00  0.649567E+00  0.649723E+00  0.649453E+00  0.649551E+00
  0.649615E+00  0.649538E+00  0.648970E+00  0.648844E+00  0.648761E+00  0.648370E+00
  0.648118E+00  0.647827E+00  0.647572E+00  0.647034E+00  0.646691E+00  0.646119E+00
  0.646114E+00  0.645546E+00  0.645471E+00  0.645251E+00  0.645217E+00  0.645293E+00
  0.644994E+00  0.644596E+00  0.644832E+00  0.644888E+00  0.645210E+00  0.645192E+00
  0.645119E+00  0.645380E+00  0.645427E+00  0.645451E+00  0.645537E+00  0.645826E+00
  0.645746E+00  0.645659E+00  0.646162E+00  0.646380E+00  0.646255E+00  0.646780E+00
  0.646941E+00  0.647198E+00  0.647445E+00  0.647834E+00  0.648030E+00  0.648264E+00
  0.648087E+00  0.648553E+00  0.648974E+00  0.649222E+00  0.649179E+00  0.649267E+00
  0.649088E+00  0.649165E+00  0.648970E+00  0.648528E+00  0.648402E+00  0.648401E+00
  0.648058E+00  0.647940E+00  0.647594E+00  0.647148E+00  0.646645E+00  0.646459E+00
  0.645970E+00  0.646177E+00  0.645547E+00  0.645700E+00  0.645596E+00  0.645546E+00
  0.645342E+00  0.645140E+00  0.645297E+00  0.645465E+00  0.645460E+00  0.645697E+00
  0.645688E+00  0.645663E+00  0.645769E+00  0.645905E+00  0.645905E+00  0.646057E+00
  0.646378E+00  0.646310E+00  0.646292E+00  0.646615E+00  0.646561E+00  0.646131E+00
  0.646659E+00  0.646644E+00  0.646792E+00  0.647110E+00  0.647436E+00  0.647880E+00
  0.648042E+00  0.647909E+00  0.648299E+00  0.648176E+00  0.648572E+00  0.648462E+00
  0.648725E+00  0.648755E+00  0.648790E+00  0.648528E+00  0.648017E+00  0.648030E+00
  0.647891E+00  0.647565E+00  0.647667E+00  0.647340E+00  0.646829E+00  0.646731E+00
  0.646715E+00  0.646253E+00  0.646255E+00  0.645901E+00  0.646222E+00  0.646051E+00
  0.645850E+00  0.645548E+00  0.645668E+00  0.645949E+00  0.646088E+00  0.646045E+00
  0.645994E+00  0.645948E+00  0.646259E+00  0.646302E+00  0.646480E+00  0.646415E+00
  0.646189E+00  0.646540E+00  0.646612E+00  0.646443E+00  0.646606E+00  0.646509E+00
  0.646181E+00  0.646802E+00  0.646722E+00  0.646798E+00  0.646721E+00  0.646767E+00
  0.647326E+00  0.647805E+00  0.647831E+00  0.647900E+00  0.647660E+00  0.648263E+00
  0.648260E+00  0.648315E+00  0.648303E+00  0.648128E+00  0.648017E+00  0.647466E+00
  0.647398E+00  0.647372E+00  0.646992E+00  0.647059E+00  0.647081E+00  0.646549E+00
  0.646439E+00  0.646564E+00  0.646360E+00  0.646314E+00  0.646369E+00  0.646452E+00
  0.646409E+00  0.646240E+00  0.646134E+00  0.646416E+00  0.646280E+00  0.646391E+00
  0.646461E+00  0.646746E+00  0.646659E+00  0.646687E+00  0.646713E+00  0.646873E+00
  0.646875E+00  0.646751E+00  0.646831E+00  0.646593E+00  0.646460E+00  0.646754E+00
  0.646909E+00  0.646737E+00  0.646818E+00  0.646548E+00  0.646911E+00  0.646724E+00
  0.646698E+00  0.646865E+00  0.647095E+00  0.647232E+00  0.647441E+00  0.647571E+00
  0.647583E+00  0.647714E+00  0.647857E+00  0.647820E+00  0.647663E+00  0.647466E+00
  0.647118E+00  0.646965E+00  0.647096E+00  0.646919E+00  0.646731E+00  0.646839E+00
  0.646617E+00  0.646503E+00  0.646579E+00  0.646517E+00  0.646333E+00  0.646622E+00
  0.646341E+00  0.646344E+00  0.646303E+00  0.646463E+00  0.646992E+00  0.647188E+00
  0.647264E+00  0.646792E+00  0.647066E+00  0.647205E+00  0.647166E+00  0.647250E+00
  0.647118E+00  0.646965E+00  0.647096E+00  0.646919E+00  0.646731E+00  0.646839E+00
  0.646617E+00  0.646503E+00  0.646579E+00  0.646517E+00  0.646333E+00  0.646622E+00
  0.646341E+00  0.646344E+00  0.646303E+00  0.646463E+00  0.646992E+00  0.647188E+00
  0.647264E+00  0.646792E+00  0.647066E+00  0.647205E+00  0.647166E+00  0.647250E+00
  0.647118E+00
END_DATAGRID_3D
END_BLOCK_DATAGRID_3D
     Plot Type: 3D                     Output format: XCrySDen     

     POST-PROC    :      2.20s CPU      1.97s WALL


   This run was terminated on:  22:57: 9  26May2026            

=------------------------------------------------------------------------------=
   JOB DONE.
=------------------------------------------------------------------------------=
