
     Program POST-PROC v.6.7MaX starts on 26May2026 at 22:55:57 

     This program is part of the open-source Quantum ESPRESSO suite
     for quantum simulation of materials; please cite
         "P. Giannozzi et al., J. Phys.:Condens. Matter 21 395502 (2009);
         "P. Giannozzi et al., J. Phys.:Condens. Matter 29 465901 (2017);
          URL http://www.quantum-espresso.org", 
     in publications or presentations arising from this work. More details at
     http://www.quantum-espresso.org/quote

     Parallel version (MPI), running on     1 processors

     MPI processes distributed on     1 nodes

     Reading xml data from directory:

     ./tmp/SnSe_monolayer.save/

     IMPORTANT: XC functional enforced from input :
     Exchange-correlation= PBE
                           (   1   4   3   4   0   0   0)
     Any further DFT definition will be discarded
     Please, verify this is what you really want


     G-vector sticks info
     --------------------
     sticks:   dense  smooth     PW     G-vecs:    dense   smooth      PW
     Sum        1629     641    199                56305    14225    2365


     Calling punch_plot, plot_num =  11
     Writing data to file  potential_files/snse_mono_potential_C5.pp
     Reading data from file  potential_files/snse_mono_potential_C5.pp
 CRYSTAL
 PRIMVEC
    4.555500000    0.000000000    0.000000000
    0.000000000    4.171400000    0.000000000
    0.000000000    0.000000000    5.000000000
 PRIMCOORD
           4           1
Sn        0.453298954    3.128550000    1.109543411
Se        2.412287972    1.042850000    1.174241007
Se        0.134537972    3.128550000    3.825758993
Sn        2.731048954    1.042850000    3.890456589
BEGIN_BLOCK_DATAGRID_3D
3D_PWSCF
BEGIN_DATAGRID_3D_UNKNOWN
          49          49          55
  0.000000  0.000000  0.000000
    4.555500    0.000000    0.000000
    0.000000    4.171400    0.000000
    0.000000    0.000000    5.000000
  0.728060E+00  0.715980E+00  0.705216E+00  0.698845E+00  0.697343E+00  0.699046E+00
  0.706176E+00  0.715746E+00  0.728829E+00  0.743773E+00  0.759163E+00  0.775850E+00
  0.790825E+00  0.803968E+00  0.813286E+00  0.818751E+00  0.821142E+00  0.819223E+00
  0.812889E+00  0.803349E+00  0.792338E+00  0.777097E+00  0.760494E+00  0.744132E+00
  0.728060E+00  0.715980E+00  0.705216E+00  0.698845E+00  0.697343E+00  0.699046E+00
  0.706176E+00  0.715746E+00  0.728829E+00  0.743773E+00  0.759163E+00  0.775850E+00
  0.790825E+00  0.803968E+00  0.813286E+00  0.818751E+00  0.821142E+00  0.819223E+00
  0.812889E+00  0.803349E+00  0.792338E+00  0.777097E+00  0.760494E+00  0.744132E+00
  0.728060E+00  0.767261E+00  0.757083E+00  0.749618E+00  0.744606E+00  0.743177E+00
  0.745150E+00  0.749390E+00  0.757016E+00  0.767351E+00  0.779142E+00  0.791136E+00
  0.802502E+00  0.812062E+00  0.819290E+00  0.823658E+00  0.824532E+00  0.822550E+00
  0.813821E+00  0.802119E+00  0.787401E+00  0.768602E+00  0.746695E+00  0.724998E+00
  0.703481E+00  0.682565E+00  0.666004E+00  0.651780E+00  0.643380E+00  0.640759E+00
  0.643151E+00  0.652771E+00  0.666273E+00  0.683833E+00  0.703532E+00  0.724274E+00
  0.745875E+00  0.765228E+00  0.783486E+00  0.798533E+00  0.810616E+00  0.817530E+00
  0.821993E+00  0.822086E+00  0.816325E+00  0.809436E+00  0.800601E+00  0.789796E+00
  0.778560E+00  0.767261E+00  0.798988E+00  0.791559E+00  0.786691E+00  0.782857E+00
  0.781461E+00  0.783647E+00  0.786736E+00  0.793519E+00  0.800872E+00  0.808842E+00
  0.817075E+00  0.824034E+00  0.829778E+00  0.832244E+00  0.832258E+00  0.827723E+00
  0.819002E+00  0.804603E+00  0.788272E+00  0.766231E+00  0.739328E+00  0.711973E+00
  0.684389E+00  0.656569E+00  0.630473E+00  0.607567E+00  0.590463E+00  0.580206E+00
  0.576784E+00  0.580903E+00  0.591258E+00  0.608702E+00  0.631264E+00  0.656837E+00
  0.684005E+00  0.711203E+00  0.736670E+00  0.760596E+00  0.780834E+00  0.799196E+00
  0.811189E+00  0.819949E+00  0.825937E+00  0.826946E+00  0.824247E+00  0.819707E+00
  0.813348E+00  0.805707E+00  0.798988E+00  0.824588E+00  0.820471E+00  0.817469E+00
  0.815488E+00  0.815276E+00  0.817151E+00  0.819330E+00  0.823958E+00  0.828749E+00
  0.833660E+00  0.838354E+00  0.841513E+00  0.843669E+00  0.841906E+00  0.837181E+00
  0.827019E+00  0.812506E+00  0.793644E+00  0.769914E+00  0.739909E+00  0.707670E+00
  0.673858E+00  0.638140E+00  0.602147E+00  0.569726E+00  0.541865E+00  0.522091E+00
  0.509977E+00  0.506225E+00  0.512172E+00  0.525149E+00  0.546580E+00  0.573023E+00
  0.604459E+00  0.638142E+00  0.672556E+00  0.705466E+00  0.735427E+00  0.761160E+00
  0.784742E+00  0.803245E+00  0.816391E+00  0.825723E+00  0.832871E+00  0.835122E+00
  0.834525E+00  0.832219E+00  0.827849E+00  0.824588E+00  0.845043E+00  0.843576E+00
  0.842215E+00  0.841157E+00  0.841137E+00  0.842615E+00  0.844663E+00  0.847357E+00
  0.850729E+00  0.853519E+00  0.856232E+00  0.856370E+00  0.854315E+00  0.848456E+00
  0.838735E+00  0.823893E+00  0.804679E+00  0.780009E+00  0.747851E+00  0.711373E+00
  0.673089E+00  0.629544E+00  0.584875E+00  0.541510E+00  0.502415E+00  0.470053E+00
  0.445620E+00  0.430773E+00  0.426841E+00  0.434205E+00  0.452140E+00  0.478835E+00
  0.511261E+00  0.549600E+00  0.589538E+00  0.630691E+00  0.670131E+00  0.707328E+00
  0.740119E+00  0.767623E+00  0.792066E+00  0.811457E+00  0.824418E+00  0.835151E+00
  0.841651E+00  0.845651E+00  0.847229E+00  0.846247E+00  0.845043E+00  0.861179E+00
  0.861880E+00  0.861772E+00  0.861837E+00  0.862557E+00  0.863818E+00  0.865860E+00
  0.867384E+00  0.869769E+00  0.870438E+00  0.870255E+00  0.866992E+00  0.861608E+00
  0.852666E+00  0.838514E+00  0.819015E+00  0.793892E+00  0.762014E+00  0.724021E+00
  0.681918E+00  0.634482E+00  0.581506E+00  0.528347E+00  0.477474E+00  0.431086E+00
  0.392331E+00  0.361767E+00  0.343632E+00  0.339397E+00  0.348413E+00  0.371055E+00
  0.403831E+00  0.444837E+00  0.490905E+00  0.538662E+00  0.587398E+00  0.633719E+00
  0.678084E+00  0.717991E+00  0.750394E+00  0.778637E+00  0.803221E+00  0.821500E+00
  0.836131E+00  0.846118E+00  0.853138E+00  0.857471E+00  0.860077E+00  0.861179E+00
  0.873123E+00  0.875720E+00  0.877030E+00  0.878605E+00  0.880280E+00  0.881257E+00
  0.883018E+00  0.883203E+00  0.883754E+00  0.882846E+00  0.880412E+00  0.875166E+00
  0.866976E+00  0.854151E+00  0.836259E+00  0.812723E+00  0.782391E+00  0.744326E+00
  0.700523E+00  0.650546E+00  0.592354E+00  0.531697E+00  0.470919E+00  0.412161E+00
  0.357574E+00  0.310691E+00  0.275138E+00  0.254719E+00  0.250241E+00  0.261367E+00
  0.287626E+00  0.326357E+00  0.375962E+00  0.430400E+00  0.487721E+00  0.544732E+00
  0.598124E+00  0.647340E+00  0.693339E+00  0.733602E+00  0.766205E+00  0.794504E+00
  0.816703E+00  0.834567E+00  0.848607E+00  0.858372E+00  0.865039E+00  0.870265E+00
  0.873123E+00  0.882420E+00  0.886574E+00  0.889229E+00  0.891144E+00  0.892512E+00
  0.893353E+00  0.895205E+00  0.895174E+00  0.894545E+00  0.892344E+00  0.888258E+00
  0.881591E+00  0.870597E+00  0.854296E+00  0.832990E+00  0.805054E+00  0.769455E+00
  0.726283E+00  0.676381E+00  0.618870E+00  0.552288E+00  0.483648E+00  0.414495E+00
  0.346777E+00  0.283395E+00  0.229389E+00  0.190507E+00  0.168528E+00  0.164208E+00
  0.177846E+00  0.207738E+00  0.251823E+00  0.307996E+00  0.370452E+00  0.436427E+00
  0.501561E+00  0.563671E+00  0.619335E+00  0.670907E+00  0.716740E+00  0.753255E+00
  0.785529E+00  0.811520E+00  0.831563E+00  0.848934E+00  0.861638E+00  0.870516E+00
  0.877937E+00  0.882420E+00  0.889423E+00  0.894368E+00  0.897858E+00  0.900687E+00
  0.903049E+00  0.904205E+00  0.905360E+00  0.904914E+00  0.903871E+00  0.900514E+00
  0.894438E+00  0.885134E+00  0.871530E+00  0.853583E+00  0.829185E+00  0.797896E+00
  0.757769E+00  0.709818E+00  0.653788E+00  0.588381E+00  0.515044E+00  0.439442E+00
  0.362266E+00  0.284718E+00  0.213245E+00  0.154306E+00  0.112094E+00  0.881034E-01
  0.839587E-01  0.999890E-01  0.134317E+00  0.184134E+00  0.246004E+00  0.315765E+00
  0.389366E+00  0.462480E+00  0.532109E+00  0.593782E+00  0.650025E+00  0.700149E+00
  0.741302E+00  0.776636E+00  0.807005E+00  0.829640E+00  0.848344E+00  0.863142E+00
  0.873775E+00  0.883340E+00  0.889423E+00  0.893881E+00  0.900088E+00  0.904455E+00
  0.907634E+00  0.910299E+00  0.911465E+00  0.912493E+00  0.911271E+00  0.909243E+00
  0.904804E+00  0.898178E+00  0.888069E+00  0.872791E+00  0.852977E+00  0.825021E+00
  0.790815E+00  0.747268E+00  0.695396E+00  0.634412E+00  0.562229E+00  0.483133E+00
  0.401371E+00  0.316420E+00  0.230605E+00  0.153067E+00  0.896193E-01  0.435107E-01
  0.172661E-01  0.126394E-01  0.304706E-01  0.694429E-01  0.125433E+00  0.193543E+00
  0.269482E+00  0.349162E+00  0.429064E+00  0.504808E+00  0.571877E+00  0.632161E+00
  0.686607E+00  0.732390E+00  0.768693E+00  0.801416E+00  0.826773E+00  0.847478E+00
  0.864808E+00  0.876571E+00  0.886963E+00  0.893881E+00  0.897169E+00  0.903959E+00
  0.908780E+00  0.912166E+00  0.914937E+00  0.916214E+00  0.917268E+00  0.915811E+00
  0.913753E+00  0.908683E+00  0.901080E+00  0.889848E+00  0.872983E+00  0.851603E+00
  0.822147E+00  0.785482E+00  0.739073E+00  0.683965E+00  0.618552E+00  0.542177E+00
  0.459315E+00  0.372096E+00  0.279859E+00  0.188376E+00  0.106399E+00  0.388188E-01
 -0.107416E-01 -0.397135E-01 -0.456043E-01 -0.260665E-01  0.173373E-01  0.786955E-01
  0.152875E+00  0.234020E+00  0.318254E+00  0.402563E+00  0.483771E+00  0.556243E+00
  0.619166E+00  0.675459E+00  0.724415E+00  0.763386E+00  0.797815E+00  0.824603E+00
  0.846406E+00  0.865115E+00  0.877876E+00  0.889384E+00  0.897169E+00  0.899161E+00
  0.905806E+00  0.911027E+00  0.914997E+00  0.917978E+00  0.919493E+00  0.920136E+00
  0.918591E+00  0.916455E+00  0.911002E+00  0.902717E+00  0.890417E+00  0.872995E+00
  0.850451E+00  0.820459E+00  0.782294E+00  0.734235E+00  0.677330E+00  0.608728E+00
  0.529517E+00  0.443719E+00  0.353136E+00  0.256512E+00  0.161682E+00  0.767576E-01
  0.671576E-02 -0.457223E-01 -0.774067E-01 -0.839323E-01 -0.632795E-01 -0.170135E-01
  0.482200E-01  0.126989E+00  0.211832E+00  0.299586E+00  0.386358E+00  0.470477E+00
  0.545757E+00  0.610660E+00  0.668801E+00  0.719382E+00  0.760141E+00  0.795503E+00
  0.823646E+00  0.845635E+00  0.864808E+00  0.878431E+00  0.890565E+00  0.899161E+00
  0.899726E+00  0.906642E+00  0.912268E+00  0.916106E+00  0.918462E+00  0.919900E+00
  0.920607E+00  0.919163E+00  0.916503E+00  0.910764E+00  0.902895E+00  0.890988E+00
  0.873961E+00  0.850516E+00  0.819498E+00  0.780371E+00  0.731728E+00  0.674659E+00
  0.605612E+00  0.525665E+00  0.438527E+00  0.346768E+00  0.248724E+00  0.152625E+00
  0.666267E-01 -0.418130E-02 -0.579878E-01 -0.907489E-01 -0.971259E-01 -0.762580E-01
 -0.292916E-01  0.373933E-01  0.117817E+00  0.203746E+00  0.292839E+00  0.380664E+00
  0.465796E+00  0.541997E+00  0.608265E+00  0.667890E+00  0.718497E+00  0.758503E+00
  0.793527E+00  0.822715E+00  0.845263E+00  0.865026E+00  0.878973E+00  0.890794E+00
  0.899726E+00  0.899161E+00  0.905806E+00  0.911027E+00  0.914997E+00  0.917978E+00
  0.919493E+00  0.920136E+00  0.918591E+00  0.916455E+00  0.911002E+00  0.902717E+00
  0.890417E+00  0.872995E+00  0.850451E+00  0.820459E+00  0.782294E+00  0.734235E+00
  0.677330E+00  0.608728E+00  0.529517E+00  0.443719E+00  0.353136E+00  0.256512E+00
  0.161682E+00  0.767576E-01  0.671576E-02 -0.457223E-01 -0.774067E-01 -0.839323E-01
 -0.632795E-01 -0.170135E-01  0.482200E-01  0.126989E+00  0.211832E+00  0.299586E+00
  0.386358E+00  0.470477E+00  0.545757E+00  0.610660E+00  0.668801E+00  0.719382E+00
  0.760141E+00  0.795503E+00  0.823646E+00  0.845635E+00  0.864808E+00  0.878431E+00
  0.890565E+00  0.899161E+00  0.897169E+00  0.903959E+00  0.908780E+00  0.912166E+00
  0.914937E+00  0.916214E+00  0.917268E+00  0.915811E+00  0.913753E+00  0.908683E+00
  0.901080E+00  0.889848E+00  0.872983E+00  0.851603E+00  0.822147E+00  0.785482E+00
  0.739073E+00  0.683965E+00  0.618552E+00  0.542177E+00  0.459315E+00  0.372096E+00
  0.279859E+00  0.188376E+00  0.106399E+00  0.388188E-01 -0.107416E-01 -0.397135E-01
 -0.456043E-01 -0.260665E-01  0.173373E-01  0.786955E-01  0.152875E+00  0.234020E+00
  0.318254E+00  0.402563E+00  0.483771E+00  0.556243E+00  0.619166E+00  0.675459E+00
  0.724415E+00  0.763386E+00  0.797815E+00  0.824603E+00  0.846406E+00  0.865115E+00
  0.877876E+00  0.889384E+00  0.897169E+00  0.893881E+00  0.900088E+00  0.904455E+00
  0.907634E+00  0.910299E+00  0.911465E+00  0.912493E+00  0.911271E+00  0.909243E+00
  0.904804E+00  0.898178E+00  0.888069E+00  0.872791E+00  0.852977E+00  0.825021E+00
  0.790815E+00  0.747268E+00  0.695396E+00  0.634412E+00  0.562229E+00  0.483133E+00
  0.401371E+00  0.316420E+00  0.230605E+00  0.153067E+00  0.896193E-01  0.435107E-01
  0.172661E-01  0.126394E-01  0.304706E-01  0.694429E-01  0.125433E+00  0.193543E+00
  0.269482E+00  0.349162E+00  0.429064E+00  0.504808E+00  0.571877E+00  0.632161E+00
  0.686607E+00  0.732390E+00  0.768693E+00  0.801416E+00  0.826773E+00  0.847478E+00
  0.864808E+00  0.876571E+00  0.886963E+00  0.893881E+00  0.889423E+00  0.894368E+00
  0.897858E+00  0.900687E+00  0.903049E+00  0.904205E+00  0.905360E+00  0.904914E+00
  0.903871E+00  0.900514E+00  0.894438E+00  0.885134E+00  0.871530E+00  0.853583E+00
  0.829185E+00  0.797896E+00  0.757769E+00  0.709818E+00  0.653788E+00  0.588381E+00
  0.515044E+00  0.439442E+00  0.362266E+00  0.284718E+00  0.213245E+00  0.154306E+00
  0.112094E+00  0.881034E-01  0.839587E-01  0.999890E-01  0.134317E+00  0.184134E+00
  0.246004E+00  0.315765E+00  0.389366E+00  0.462480E+00  0.532109E+00  0.593782E+00
  0.650025E+00  0.700149E+00  0.741302E+00  0.776636E+00  0.807005E+00  0.829640E+00
  0.848344E+00  0.863142E+00  0.873775E+00  0.883340E+00  0.889423E+00  0.882420E+00
  0.886574E+00  0.889229E+00  0.891144E+00  0.892512E+00  0.893353E+00  0.895205E+00
  0.895174E+00  0.894545E+00  0.892344E+00  0.888258E+00  0.881591E+00  0.870597E+00
  0.854296E+00  0.832990E+00  0.805054E+00  0.769455E+00  0.726283E+00  0.676381E+00
  0.618870E+00  0.552288E+00  0.483648E+00  0.414495E+00  0.346777E+00  0.283395E+00
  0.229389E+00  0.190507E+00  0.168528E+00  0.164208E+00  0.177846E+00  0.207738E+00
  0.251823E+00  0.307996E+00  0.370452E+00  0.436427E+00  0.501561E+00  0.563671E+00
  0.619335E+00  0.670907E+00  0.716740E+00  0.753255E+00  0.785529E+00  0.811520E+00
  0.831563E+00  0.848934E+00  0.861638E+00  0.870516E+00  0.877937E+00  0.882420E+00
  0.873123E+00  0.875720E+00  0.877030E+00  0.878605E+00  0.880280E+00  0.881257E+00
  0.883018E+00  0.883203E+00  0.883754E+00  0.882846E+00  0.880412E+00  0.875166E+00
  0.866976E+00  0.854151E+00  0.836259E+00  0.812723E+00  0.782391E+00  0.744326E+00
  0.700523E+00  0.650546E+00  0.592354E+00  0.531697E+00  0.470919E+00  0.412161E+00
  0.357574E+00  0.310691E+00  0.275138E+00  0.254719E+00  0.250241E+00  0.261367E+00
  0.287626E+00  0.326357E+00  0.375962E+00  0.430400E+00  0.487721E+00  0.544732E+00
  0.598124E+00  0.647340E+00  0.693339E+00  0.733602E+00  0.766205E+00  0.794504E+00
  0.816703E+00  0.834567E+00  0.848607E+00  0.858372E+00  0.865039E+00  0.870265E+00
  0.873123E+00  0.861179E+00  0.861880E+00  0.861772E+00  0.861837E+00  0.862557E+00
  0.863818E+00  0.865860E+00  0.867384E+00  0.869769E+00  0.870438E+00  0.870255E+00
  0.866992E+00  0.861608E+00  0.852666E+00  0.838514E+00  0.819015E+00  0.793892E+00
  0.762014E+00  0.724021E+00  0.681918E+00  0.634482E+00  0.581506E+00  0.528347E+00
  0.477474E+00  0.431086E+00  0.392331E+00  0.361767E+00  0.343632E+00  0.339397E+00
  0.348413E+00  0.371055E+00  0.403831E+00  0.444837E+00  0.490905E+00  0.538662E+00
  0.587398E+00  0.633719E+00  0.678084E+00  0.717991E+00  0.750394E+00  0.778637E+00
  0.803221E+00  0.821500E+00  0.836131E+00  0.846118E+00  0.853138E+00  0.857471E+00
  0.860077E+00  0.861179E+00  0.845043E+00  0.843576E+00  0.842215E+00  0.841157E+00
  0.841137E+00  0.842615E+00  0.844663E+00  0.847357E+00  0.850729E+00  0.853519E+00
  0.856232E+00  0.856370E+00  0.854315E+00  0.848456E+00  0.838735E+00  0.823893E+00
  0.804679E+00  0.780009E+00  0.747851E+00  0.711373E+00  0.673089E+00  0.629544E+00
  0.584875E+00  0.541510E+00  0.502415E+00  0.470053E+00  0.445620E+00  0.430773E+00
  0.426841E+00  0.434205E+00  0.452140E+00  0.478835E+00  0.511261E+00  0.549600E+00
  0.589538E+00  0.630691E+00  0.670131E+00  0.707328E+00  0.740119E+00  0.767623E+00
  0.792066E+00  0.811457E+00  0.824418E+00  0.835151E+00  0.841651E+00  0.845651E+00
  0.847229E+00  0.846247E+00  0.845043E+00  0.824588E+00  0.820471E+00  0.817469E+00
  0.815488E+00  0.815276E+00  0.817151E+00  0.819330E+00  0.823958E+00  0.828749E+00
  0.833660E+00  0.838354E+00  0.841513E+00  0.843669E+00  0.841906E+00  0.837181E+00
  0.827019E+00  0.812506E+00  0.793644E+00  0.769914E+00  0.739909E+00  0.707670E+00
  0.673858E+00  0.638140E+00  0.602147E+00  0.569726E+00  0.541865E+00  0.522091E+00
  0.509977E+00  0.506225E+00  0.512172E+00  0.525149E+00  0.546580E+00  0.573023E+00
  0.604459E+00  0.638142E+00  0.672556E+00  0.705466E+00  0.735427E+00  0.761160E+00
  0.784742E+00  0.803245E+00  0.816391E+00  0.825723E+00  0.832871E+00  0.835122E+00
  0.834525E+00  0.832219E+00  0.827849E+00  0.824588E+00  0.798988E+00  0.791559E+00
  0.786691E+00  0.782857E+00  0.781461E+00  0.783647E+00  0.786736E+00  0.793519E+00
  0.800872E+00  0.808842E+00  0.817075E+00  0.824034E+00  0.829778E+00  0.832244E+00
  0.832258E+00  0.827723E+00  0.819002E+00  0.804603E+00  0.788272E+00  0.766231E+00
  0.739328E+00  0.711973E+00  0.684389E+00  0.656569E+00  0.630473E+00  0.607567E+00
  0.590463E+00  0.580206E+00  0.576784E+00  0.580903E+00  0.591258E+00  0.608702E+00
  0.631264E+00  0.656837E+00  0.684005E+00  0.711203E+00  0.736670E+00  0.760596E+00
  0.780834E+00  0.799196E+00  0.811189E+00  0.819949E+00  0.825937E+00  0.826946E+00
  0.824247E+00  0.819707E+00  0.813348E+00  0.805707E+00  0.798988E+00  0.767261E+00
  0.757083E+00  0.749618E+00  0.744606E+00  0.743177E+00  0.745150E+00  0.749390E+00
  0.757016E+00  0.767351E+00  0.779142E+00  0.791136E+00  0.802502E+00  0.812062E+00
  0.819290E+00  0.823658E+00  0.824532E+00  0.822550E+00  0.813821E+00  0.802119E+00
  0.787401E+00  0.768602E+00  0.746695E+00  0.724998E+00  0.703481E+00  0.682565E+00
  0.666004E+00  0.651780E+00  0.643380E+00  0.640759E+00  0.643151E+00  0.652771E+00
  0.666273E+00  0.683833E+00  0.703532E+00  0.724274E+00  0.745875E+00  0.765228E+00
  0.783486E+00  0.798533E+00  0.810616E+00  0.817530E+00  0.821993E+00  0.822086E+00
  0.816325E+00  0.809436E+00  0.800601E+00  0.789796E+00  0.778560E+00  0.767261E+00
  0.728060E+00  0.715980E+00  0.705216E+00  0.698845E+00  0.697343E+00  0.699046E+00
  0.706176E+00  0.715746E+00  0.728829E+00  0.743773E+00  0.759163E+00  0.775850E+00
  0.790825E+00  0.803968E+00  0.813286E+00  0.818751E+00  0.821142E+00  0.819223E+00
  0.812889E+00  0.803349E+00  0.792338E+00  0.777097E+00  0.760494E+00  0.744132E+00
  0.728060E+00  0.715980E+00  0.705216E+00  0.698845E+00  0.697343E+00  0.699046E+00
  0.706176E+00  0.715746E+00  0.728829E+00  0.743773E+00  0.759163E+00  0.775850E+00
  0.790825E+00  0.803968E+00  0.813286E+00  0.818751E+00  0.821142E+00  0.819223E+00
  0.812889E+00  0.803349E+00  0.792338E+00  0.777097E+00  0.760494E+00  0.744132E+00
  0.728060E+00  0.682565E+00  0.666004E+00  0.651780E+00  0.643380E+00  0.640759E+00
  0.643151E+00  0.652771E+00  0.666273E+00  0.683833E+00  0.703532E+00  0.724274E+00
  0.745875E+00  0.765228E+00  0.783486E+00  0.798533E+00  0.810616E+00  0.817530E+00
  0.821993E+00  0.822086E+00  0.816325E+00  0.809436E+00  0.800601E+00  0.789796E+00
  0.778560E+00  0.767261E+00  0.757083E+00  0.749618E+00  0.744606E+00  0.743177E+00
  0.745150E+00  0.749390E+00  0.757016E+00  0.767351E+00  0.779142E+00  0.791136E+00
  0.802502E+00  0.812062E+00  0.819290E+00  0.823658E+00  0.824532E+00  0.822550E+00
  0.813821E+00  0.802119E+00  0.787401E+00  0.768602E+00  0.746695E+00  0.724998E+00
  0.703481E+00  0.682565E+00  0.630473E+00  0.607567E+00  0.590463E+00  0.580206E+00
  0.576784E+00  0.580903E+00  0.591258E+00  0.608702E+00  0.631264E+00  0.656837E+00
  0.684005E+00  0.711203E+00  0.736670E+00  0.760596E+00  0.780834E+00  0.799196E+00
  0.811189E+00  0.819949E+00  0.825937E+00  0.826946E+00  0.824247E+00  0.819707E+00
  0.813348E+00  0.805707E+00  0.798988E+00  0.791559E+00  0.786691E+00  0.782857E+00
  0.781461E+00  0.783647E+00  0.786736E+00  0.793519E+00  0.800872E+00  0.808842E+00
  0.817075E+00  0.824034E+00  0.829778E+00  0.832244E+00  0.832258E+00  0.827723E+00
  0.819002E+00  0.804603E+00  0.788272E+00  0.766231E+00  0.739328E+00  0.711973E+00
  0.684389E+00  0.656569E+00  0.630473E+00  0.569726E+00  0.541865E+00  0.522091E+00
  0.509977E+00  0.506225E+00  0.512172E+00  0.525149E+00  0.546580E+00  0.573023E+00
  0.604459E+00  0.638142E+00  0.672556E+00  0.705466E+00  0.735427E+00  0.761160E+00
  0.784742E+00  0.803245E+00  0.816391E+00  0.825723E+00  0.832871E+00  0.835122E+00
  0.834525E+00  0.832219E+00  0.827849E+00  0.824588E+00  0.820471E+00  0.817469E+00
  0.815488E+00  0.815276E+00  0.817151E+00  0.819330E+00  0.823958E+00  0.828749E+00
  0.833660E+00  0.838354E+00  0.841513E+00  0.843669E+00  0.841906E+00  0.837181E+00
  0.827019E+00  0.812506E+00  0.793644E+00  0.769914E+00  0.739909E+00  0.707670E+00
  0.673858E+00  0.638140E+00  0.602147E+00  0.569726E+00  0.502415E+00  0.470053E+00
  0.445620E+00  0.430773E+00  0.426841E+00  0.434205E+00  0.452140E+00  0.478835E+00
  0.511261E+00  0.549600E+00  0.589538E+00  0.630691E+00  0.670131E+00  0.707328E+00
  0.740119E+00  0.767623E+00  0.792066E+00  0.811457E+00  0.824418E+00  0.835151E+00
  0.841651E+00  0.845651E+00  0.847229E+00  0.846247E+00  0.845043E+00  0.843576E+00
  0.842215E+00  0.841157E+00  0.841137E+00  0.842615E+00  0.844663E+00  0.847357E+00
  0.850729E+00  0.853519E+00  0.856232E+00  0.856370E+00  0.854315E+00  0.848456E+00
  0.838735E+00  0.823893E+00  0.804679E+00  0.780009E+00  0.747851E+00  0.711373E+00
  0.673089E+00  0.629544E+00  0.584875E+00  0.541510E+00  0.502415E+00  0.431086E+00
  0.392331E+00  0.361767E+00  0.343632E+00  0.339397E+00  0.348413E+00  0.371055E+00
  0.403831E+00  0.444837E+00  0.490905E+00  0.538662E+00  0.587398E+00  0.633719E+00
  0.678084E+00  0.717991E+00  0.750394E+00  0.778637E+00  0.803221E+00  0.821500E+00
  0.836131E+00  0.846118E+00  0.853138E+00  0.857471E+00  0.860077E+00  0.861179E+00
  0.861880E+00  0.861772E+00  0.861837E+00  0.862557E+00  0.863818E+00  0.865860E+00
  0.867384E+00  0.869769E+00  0.870438E+00  0.870255E+00  0.866992E+00  0.861608E+00
  0.852666E+00  0.838514E+00  0.819015E+00  0.793892E+00  0.762014E+00  0.724021E+00
  0.681918E+00  0.634482E+00  0.581506E+00  0.528347E+00  0.477474E+00  0.431086E+00
  0.357574E+00  0.310691E+00  0.275138E+00  0.254719E+00  0.250241E+00  0.261367E+00
  0.287626E+00  0.326357E+00  0.375962E+00  0.430400E+00  0.487721E+00  0.544732E+00
  0.598124E+00  0.647340E+00  0.693339E+00  0.733602E+00  0.766205E+00  0.794504E+00
  0.816703E+00  0.834567E+00  0.848607E+00  0.858372E+00  0.865039E+00  0.870265E+00
  0.873123E+00  0.875720E+00  0.877030E+00  0.878605E+00  0.880280E+00  0.881257E+00
  0.883018E+00  0.883203E+00  0.883754E+00  0.882846E+00  0.880412E+00  0.875166E+00
  0.866976E+00  0.854151E+00  0.836259E+00  0.812723E+00  0.782391E+00  0.744326E+00
  0.700523E+00  0.650546E+00  0.592354E+00  0.531697E+00  0.470919E+00  0.412161E+00
  0.357574E+00  0.283395E+00  0.229389E+00  0.190507E+00  0.168528E+00  0.164208E+00
  0.177846E+00  0.207738E+00  0.251823E+00  0.307996E+00  0.370452E+00  0.436427E+00
  0.501561E+00  0.563671E+00  0.619335E+00  0.670907E+00  0.716740E+00  0.753255E+00
  0.785529E+00  0.811520E+00  0.831563E+00  0.848934E+00  0.861638E+00  0.870516E+00
  0.877937E+00  0.882420E+00  0.886574E+00  0.889229E+00  0.891144E+00  0.892512E+00
  0.893353E+00  0.895205E+00  0.895174E+00  0.894545E+00  0.892344E+00  0.888258E+00
  0.881591E+00  0.870597E+00  0.854296E+00  0.832990E+00  0.805054E+00  0.769455E+00
  0.726283E+00  0.676381E+00  0.618870E+00  0.552288E+00  0.483648E+00  0.414495E+00
  0.346777E+00  0.283395E+00  0.213245E+00  0.154306E+00  0.112094E+00  0.881034E-01
  0.839587E-01  0.999890E-01  0.134317E+00  0.184134E+00  0.246004E+00  0.315765E+00
  0.389366E+00  0.462480E+00  0.532109E+00  0.593782E+00  0.650025E+00  0.700149E+00
  0.741302E+00  0.776636E+00  0.807005E+00  0.829640E+00  0.848344E+00  0.863142E+00
  0.873775E+00  0.883340E+00  0.889423E+00  0.894368E+00  0.897858E+00  0.900687E+00
  0.903049E+00  0.904205E+00  0.905360E+00  0.904914E+00  0.903871E+00  0.900514E+00
  0.894438E+00  0.885134E+00  0.871530E+00  0.853583E+00  0.829185E+00  0.797896E+00
  0.757769E+00  0.709818E+00  0.653788E+00  0.588381E+00  0.515044E+00  0.439442E+00
  0.362266E+00  0.284718E+00  0.213245E+00  0.153067E+00  0.896193E-01  0.435107E-01
  0.172661E-01  0.126394E-01  0.304706E-01  0.694429E-01  0.125433E+00  0.193543E+00
  0.269482E+00  0.349162E+00  0.429064E+00  0.504808E+00  0.571877E+00  0.632161E+00
  0.686607E+00  0.732390E+00  0.768693E+00  0.801416E+00  0.826773E+00  0.847478E+00
  0.864808E+00  0.876571E+00  0.886963E+00  0.893881E+00  0.900088E+00  0.904455E+00
  0.907634E+00  0.910299E+00  0.911465E+00  0.912493E+00  0.911271E+00  0.909243E+00
  0.904804E+00  0.898178E+00  0.888069E+00  0.872791E+00  0.852977E+00  0.825021E+00
  0.790815E+00  0.747268E+00  0.695396E+00  0.634412E+00  0.562229E+00  0.483133E+00
  0.401371E+00  0.316420E+00  0.230605E+00  0.153067E+00  0.106399E+00  0.388188E-01
 -0.107416E-01 -0.397135E-01 -0.456043E-01 -0.260665E-01  0.173373E-01  0.786955E-01
  0.152875E+00  0.234020E+00  0.318254E+00  0.402563E+00  0.483771E+00  0.556243E+00
  0.619166E+00  0.675459E+00  0.724415E+00  0.763386E+00  0.797815E+00  0.824603E+00
  0.846406E+00  0.865115E+00  0.877876E+00  0.889384E+00  0.897169E+00  0.903959E+00
  0.908780E+00  0.912166E+00  0.914937E+00  0.916214E+00  0.917268E+00  0.915811E+00
  0.913753E+00  0.908683E+00  0.901080E+00  0.889848E+00  0.872983E+00  0.851603E+00
  0.822147E+00  0.785482E+00  0.739073E+00  0.683965E+00  0.618552E+00  0.542177E+00
  0.459315E+00  0.372096E+00  0.279859E+00  0.188376E+00  0.106399E+00  0.767576E-01
  0.671576E-02 -0.457223E-01 -0.774067E-01 -0.839323E-01 -0.632795E-01 -0.170135E-01
  0.482200E-01  0.126989E+00  0.211832E+00  0.299586E+00  0.386358E+00  0.470477E+00
  0.545757E+00  0.610660E+00  0.668801E+00  0.719382E+00  0.760141E+00  0.795503E+00
  0.823646E+00  0.845635E+00  0.864808E+00  0.878431E+00  0.890565E+00  0.899161E+00
  0.905806E+00  0.911027E+00  0.914997E+00  0.917978E+00  0.919493E+00  0.920136E+00
  0.918591E+00  0.916455E+00  0.911002E+00  0.902717E+00  0.890417E+00  0.872995E+00
  0.850451E+00  0.820459E+00  0.782294E+00  0.734235E+00  0.677330E+00  0.608728E+00
  0.529517E+00  0.443719E+00  0.353136E+00  0.256512E+00  0.161682E+00  0.767576E-01
  0.666267E-01 -0.418130E-02 -0.579878E-01 -0.907489E-01 -0.971259E-01 -0.762580E-01
 -0.292916E-01  0.373933E-01  0.117817E+00  0.203746E+00  0.292839E+00  0.380664E+00
  0.465796E+00  0.541997E+00  0.608265E+00  0.667890E+00  0.718497E+00  0.758503E+00
  0.793527E+00  0.822715E+00  0.845263E+00  0.865026E+00  0.878973E+00  0.890794E+00
  0.899726E+00  0.906642E+00  0.912268E+00  0.916106E+00  0.918462E+00  0.919900E+00
  0.920607E+00  0.919163E+00  0.916503E+00  0.910764E+00  0.902895E+00  0.890988E+00
  0.873961E+00  0.850516E+00  0.819498E+00  0.780371E+00  0.731728E+00  0.674659E+00
  0.605612E+00  0.525665E+00  0.438527E+00  0.346768E+00  0.248724E+00  0.152625E+00
  0.666267E-01  0.767576E-01  0.671576E-02 -0.457223E-01 -0.774067E-01 -0.839323E-01
 -0.632795E-01 -0.170135E-01  0.482200E-01  0.126989E+00  0.211832E+00  0.299586E+00
  0.386358E+00  0.470477E+00  0.545757E+00  0.610660E+00  0.668801E+00  0.719382E+00
  0.760141E+00  0.795503E+00  0.823646E+00  0.845635E+00  0.864808E+00  0.878431E+00
  0.890565E+00  0.899161E+00  0.905806E+00  0.911027E+00  0.914997E+00  0.917978E+00
  0.919493E+00  0.920136E+00  0.918591E+00  0.916455E+00  0.911002E+00  0.902717E+00
  0.890417E+00  0.872995E+00  0.850451E+00  0.820459E+00  0.782294E+00  0.734235E+00
  0.677330E+00  0.608728E+00  0.529517E+00  0.443719E+00  0.353136E+00  0.256512E+00
  0.161682E+00  0.767576E-01  0.106399E+00  0.388188E-01 -0.107416E-01 -0.397135E-01
 -0.456043E-01 -0.260665E-01  0.173373E-01  0.786955E-01  0.152875E+00  0.234020E+00
  0.318254E+00  0.402563E+00  0.483771E+00  0.556243E+00  0.619166E+00  0.675459E+00
  0.724415E+00  0.763386E+00  0.797815E+00  0.824603E+00  0.846406E+00  0.865115E+00
  0.877876E+00  0.889384E+00  0.897169E+00  0.903959E+00  0.908780E+00  0.912166E+00
  0.914937E+00  0.916214E+00  0.917268E+00  0.915811E+00  0.913753E+00  0.908683E+00
  0.901080E+00  0.889848E+00  0.872983E+00  0.851603E+00  0.822147E+00  0.785482E+00
  0.739073E+00  0.683965E+00  0.618552E+00  0.542177E+00  0.459315E+00  0.372096E+00
  0.279859E+00  0.188376E+00  0.106399E+00  0.153067E+00  0.896193E-01  0.435107E-01
  0.172661E-01  0.126394E-01  0.304706E-01  0.694429E-01  0.125433E+00  0.193543E+00
  0.269482E+00  0.349162E+00  0.429064E+00  0.504808E+00  0.571877E+00  0.632161E+00
  0.686607E+00  0.732390E+00  0.768693E+00  0.801416E+00  0.826773E+00  0.847478E+00
  0.864808E+00  0.876571E+00  0.886963E+00  0.893881E+00  0.900088E+00  0.904455E+00
  0.907634E+00  0.910299E+00  0.911465E+00  0.912493E+00  0.911271E+00  0.909243E+00
  0.904804E+00  0.898178E+00  0.888069E+00  0.872791E+00  0.852977E+00  0.825021E+00
  0.790815E+00  0.747268E+00  0.695396E+00  0.634412E+00  0.562229E+00  0.483133E+00
  0.401371E+00  0.316420E+00  0.230605E+00  0.153067E+00  0.213245E+00  0.154306E+00
  0.112094E+00  0.881034E-01  0.839587E-01  0.999890E-01  0.134317E+00  0.184134E+00
  0.246004E+00  0.315765E+00  0.389366E+00  0.462480E+00  0.532109E+00  0.593782E+00
  0.650025E+00  0.700149E+00  0.741302E+00  0.776636E+00  0.807005E+00  0.829640E+00
  0.848344E+00  0.863142E+00  0.873775E+00  0.883340E+00  0.889423E+00  0.894368E+00
  0.897858E+00  0.900687E+00  0.903049E+00  0.904205E+00  0.905360E+00  0.904914E+00
  0.903871E+00  0.900514E+00  0.894438E+00  0.885134E+00  0.871530E+00  0.853583E+00
  0.829185E+00  0.797896E+00  0.757769E+00  0.709818E+00  0.653788E+00  0.588381E+00
  0.515044E+00  0.439442E+00  0.362266E+00  0.284718E+00  0.213245E+00  0.283395E+00
  0.229389E+00  0.190507E+00  0.168528E+00  0.164208E+00  0.177846E+00  0.207738E+00
  0.251823E+00  0.307996E+00  0.370452E+00  0.436427E+00  0.501561E+00  0.563671E+00
  0.619335E+00  0.670907E+00  0.716740E+00  0.753255E+00  0.785529E+00  0.811520E+00
  0.831563E+00  0.848934E+00  0.861638E+00  0.870516E+00  0.877937E+00  0.882420E+00
  0.886574E+00  0.889229E+00  0.891144E+00  0.892512E+00  0.893353E+00  0.895205E+00
  0.895174E+00  0.894545E+00  0.892344E+00  0.888258E+00  0.881591E+00  0.870597E+00
  0.854296E+00  0.832990E+00  0.805054E+00  0.769455E+00  0.726283E+00  0.676381E+00
  0.618870E+00  0.552288E+00  0.483648E+00  0.414495E+00  0.346777E+00  0.283395E+00
  0.357574E+00  0.310691E+00  0.275138E+00  0.254719E+00  0.250241E+00  0.261367E+00
  0.287626E+00  0.326357E+00  0.375962E+00  0.430400E+00  0.487721E+00  0.544732E+00
  0.598124E+00  0.647340E+00  0.693339E+00  0.733602E+00  0.766205E+00  0.794504E+00
  0.816703E+00  0.834567E+00  0.848607E+00  0.858372E+00  0.865039E+00  0.870265E+00
  0.873123E+00  0.875720E+00  0.877030E+00  0.878605E+00  0.880280E+00  0.881257E+00
  0.883018E+00  0.883203E+00  0.883754E+00  0.882846E+00  0.880412E+00  0.875166E+00
  0.866976E+00  0.854151E+00  0.836259E+00  0.812723E+00  0.782391E+00  0.744326E+00
  0.700523E+00  0.650546E+00  0.592354E+00  0.531697E+00  0.470919E+00  0.412161E+00
  0.357574E+00  0.431086E+00  0.392331E+00  0.361767E+00  0.343632E+00  0.339397E+00
  0.348413E+00  0.371055E+00  0.403831E+00  0.444837E+00  0.490905E+00  0.538662E+00
  0.587398E+00  0.633719E+00  0.678084E+00  0.717991E+00  0.750394E+00  0.778637E+00
  0.803221E+00  0.821500E+00  0.836131E+00  0.846118E+00  0.853138E+00  0.857471E+00
  0.860077E+00  0.861179E+00  0.861880E+00  0.861772E+00  0.861837E+00  0.862557E+00
  0.863818E+00  0.865860E+00  0.867384E+00  0.869769E+00  0.870438E+00  0.870255E+00
  0.866992E+00  0.861608E+00  0.852666E+00  0.838514E+00  0.819015E+00  0.793892E+00
  0.762014E+00  0.724021E+00  0.681918E+00  0.634482E+00  0.581506E+00  0.528347E+00
  0.477474E+00  0.431086E+00  0.502415E+00  0.470053E+00  0.445620E+00  0.430773E+00
  0.426841E+00  0.434205E+00  0.452140E+00  0.478835E+00  0.511261E+00  0.549600E+00
  0.589538E+00  0.630691E+00  0.670131E+00  0.707328E+00  0.740119E+00  0.767623E+00
  0.792066E+00  0.811457E+00  0.824418E+00  0.835151E+00  0.841651E+00  0.845651E+00
  0.847229E+00  0.846247E+00  0.845043E+00  0.843576E+00  0.842215E+00  0.841157E+00
  0.841137E+00  0.842615E+00  0.844663E+00  0.847357E+00  0.850729E+00  0.853519E+00
  0.856232E+00  0.856370E+00  0.854315E+00  0.848456E+00  0.838735E+00  0.823893E+00
  0.804679E+00  0.780009E+00  0.747851E+00  0.711373E+00  0.673089E+00  0.629544E+00
  0.584875E+00  0.541510E+00  0.502415E+00  0.569726E+00  0.541865E+00  0.522091E+00
  0.509977E+00  0.506225E+00  0.512172E+00  0.525149E+00  0.546580E+00  0.573023E+00
  0.604459E+00  0.638142E+00  0.672556E+00  0.705466E+00  0.735427E+00  0.761160E+00
  0.784742E+00  0.803245E+00  0.816391E+00  0.825723E+00  0.832871E+00  0.835122E+00
  0.834525E+00  0.832219E+00  0.827849E+00  0.824588E+00  0.820471E+00  0.817469E+00
  0.815488E+00  0.815276E+00  0.817151E+00  0.819330E+00  0.823958E+00  0.828749E+00
  0.833660E+00  0.838354E+00  0.841513E+00  0.843669E+00  0.841906E+00  0.837181E+00
  0.827019E+00  0.812506E+00  0.793644E+00  0.769914E+00  0.739909E+00  0.707670E+00
  0.673858E+00  0.638140E+00  0.602147E+00  0.569726E+00  0.630473E+00  0.607567E+00
  0.590463E+00  0.580206E+00  0.576784E+00  0.580903E+00  0.591258E+00  0.608702E+00
  0.631264E+00  0.656837E+00  0.684005E+00  0.711203E+00  0.736670E+00  0.760596E+00
  0.780834E+00  0.799196E+00  0.811189E+00  0.819949E+00  0.825937E+00  0.826946E+00
  0.824247E+00  0.819707E+00  0.813348E+00  0.805707E+00  0.798988E+00  0.791559E+00
  0.786691E+00  0.782857E+00  0.781461E+00  0.783647E+00  0.786736E+00  0.793519E+00
  0.800872E+00  0.808842E+00  0.817075E+00  0.824034E+00  0.829778E+00  0.832244E+00
  0.832258E+00  0.827723E+00  0.819002E+00  0.804603E+00  0.788272E+00  0.766231E+00
  0.739328E+00  0.711973E+00  0.684389E+00  0.656569E+00  0.630473E+00  0.682565E+00
  0.666004E+00  0.651780E+00  0.643380E+00  0.640759E+00  0.643151E+00  0.652771E+00
  0.666273E+00  0.683833E+00  0.703532E+00  0.724274E+00  0.745875E+00  0.765228E+00
  0.783486E+00  0.798533E+00  0.810616E+00  0.817530E+00  0.821993E+00  0.822086E+00
  0.816325E+00  0.809436E+00  0.800601E+00  0.789796E+00  0.778560E+00  0.767261E+00
  0.757083E+00  0.749618E+00  0.744606E+00  0.743177E+00  0.745150E+00  0.749390E+00
  0.757016E+00  0.767351E+00  0.779142E+00  0.791136E+00  0.802502E+00  0.812062E+00
  0.819290E+00  0.823658E+00  0.824532E+00  0.822550E+00  0.813821E+00  0.802119E+00
  0.787401E+00  0.768602E+00  0.746695E+00  0.724998E+00  0.703481E+00  0.682565E+00
  0.728060E+00  0.715980E+00  0.705216E+00  0.698845E+00  0.697343E+00  0.699046E+00
  0.706176E+00  0.715746E+00  0.728829E+00  0.743773E+00  0.759163E+00  0.775850E+00
  0.790825E+00  0.803968E+00  0.813286E+00  0.818751E+00  0.821142E+00  0.819223E+00
  0.812889E+00  0.803349E+00  0.792338E+00  0.777097E+00  0.760494E+00  0.744132E+00
  0.728060E+00  0.715980E+00  0.705216E+00  0.698845E+00  0.697343E+00  0.699046E+00
  0.706176E+00  0.715746E+00  0.728829E+00  0.743773E+00  0.759163E+00  0.775850E+00
  0.790825E+00  0.803968E+00  0.813286E+00  0.818751E+00  0.821142E+00  0.819223E+00
  0.812889E+00  0.803349E+00  0.792338E+00  0.777097E+00  0.760494E+00  0.744132E+00
  0.728060E+00  0.705672E+00  0.688032E+00  0.672831E+00  0.662919E+00  0.657353E+00
  0.656712E+00  0.663357E+00  0.673466E+00  0.688599E+00  0.706766E+00  0.725699E+00
  0.745013E+00  0.763203E+00  0.780262E+00  0.794490E+00  0.804135E+00  0.808952E+00
  0.810661E+00  0.808410E+00  0.801349E+00  0.791460E+00  0.779223E+00  0.765646E+00
  0.751914E+00  0.739153E+00  0.729181E+00  0.722177E+00  0.718622E+00  0.719854E+00
  0.724786E+00  0.733048E+00  0.744595E+00  0.757936E+00  0.772204E+00  0.786719E+00
  0.800622E+00  0.812785E+00  0.821923E+00  0.827770E+00  0.830392E+00  0.829267E+00
  0.823439E+00  0.814205E+00  0.801498E+00  0.784874E+00  0.765470E+00  0.745224E+00
  0.725503E+00  0.705672E+00  0.747224E+00  0.733917E+00  0.723335E+00  0.715832E+00
  0.711659E+00  0.712167E+00  0.716528E+00  0.724869E+00  0.736350E+00  0.748926E+00
  0.762730E+00  0.776976E+00  0.790200E+00  0.801456E+00  0.809064E+00  0.811806E+00
  0.811953E+00  0.807519E+00  0.797745E+00  0.783836E+00  0.767980E+00  0.749080E+00
  0.729665E+00  0.710987E+00  0.694030E+00  0.681045E+00  0.672207E+00  0.668470E+00
  0.669340E+00  0.675328E+00  0.686388E+00  0.700967E+00  0.718420E+00  0.737131E+00
  0.756126E+00  0.774992E+00  0.791622E+00  0.806743E+00  0.817447E+00  0.824593E+00
  0.828681E+00  0.828539E+00  0.824015E+00  0.816619E+00  0.806085E+00  0.792510E+00
  0.777436E+00  0.761922E+00  0.747224E+00  0.782572E+00  0.772488E+00  0.765024E+00
  0.759143E+00  0.756267E+00  0.757236E+00  0.759933E+00  0.766778E+00  0.774395E+00
  0.783463E+00  0.794504E+00  0.804355E+00  0.812530E+00  0.817784E+00  0.819419E+00
  0.816830E+00  0.811255E+00  0.798883E+00  0.782351E+00  0.762525E+00  0.739616E+00
  0.713333E+00  0.687053E+00  0.662081E+00  0.640786E+00  0.623555E+00  0.611740E+00
  0.607096E+00  0.608714E+00  0.617717E+00  0.631887E+00  0.650550E+00  0.672987E+00
  0.697553E+00  0.722079E+00  0.746042E+00  0.767495E+00  0.788563E+00  0.805142E+00
  0.816863E+00  0.824926E+00  0.830160E+00  0.830431E+00  0.827674E+00  0.822478E+00
  0.814279E+00  0.804822E+00  0.793454E+00  0.782572E+00  0.812951E+00  0.805637E+00
  0.800292E+00  0.796395E+00  0.794498E+00  0.794701E+00  0.796867E+00  0.802185E+00
  0.807369E+00  0.814567E+00  0.821813E+00  0.825997E+00  0.829361E+00  0.829680E+00
  0.826363E+00  0.818534E+00  0.805730E+00  0.786477E+00  0.763976E+00  0.736290E+00
  0.704826E+00  0.671137E+00  0.637693E+00  0.605529E+00  0.578078E+00  0.556000E+00
  0.541343E+00  0.535578E+00  0.538566E+00  0.550591E+00  0.569025E+00  0.593694E+00
  0.621527E+00  0.652613E+00  0.683780E+00  0.714492E+00  0.742138E+00  0.767201E+00
  0.789107E+00  0.807062E+00  0.819674E+00  0.829489E+00  0.834476E+00  0.836066E+00
  0.835001E+00  0.830642E+00  0.825831E+00  0.819727E+00  0.812951E+00  0.834916E+00
  0.830848E+00  0.828031E+00  0.825750E+00  0.824884E+00  0.825314E+00  0.827461E+00
  0.830880E+00  0.834439E+00  0.838635E+00  0.841762E+00  0.843011E+00  0.843292E+00
  0.838639E+00  0.830345E+00  0.817040E+00  0.797159E+00  0.771918E+00  0.741899E+00
  0.705109E+00  0.665004E+00  0.622616E+00  0.581035E+00  0.542537E+00  0.508269E+00
  0.481365E+00  0.464643E+00  0.458389E+00  0.462934E+00  0.477323E+00  0.500408E+00
  0.531654E+00  0.566057E+00  0.603989E+00  0.642241E+00  0.679760E+00  0.714199E+00
  0.744381E+00  0.771184E+00  0.794948E+00  0.812851E+00  0.826681E+00  0.836321E+00
  0.842177E+00  0.844773E+00  0.844649E+00  0.842158E+00  0.838652E+00  0.834916E+00
  0.853939E+00  0.851963E+00  0.850614E+00  0.849617E+00  0.849655E+00  0.850002E+00
  0.851868E+00  0.853861E+00  0.856339E+00  0.857854E+00  0.858136E+00  0.857377E+00
  0.853621E+00  0.843632E+00  0.830669E+00  0.811742E+00  0.785819E+00  0.754403E+00
  0.715994E+00  0.670992E+00  0.622375E+00  0.571734E+00  0.521001E+00  0.473826E+00
  0.432658E+00  0.401905E+00  0.382899E+00  0.376134E+00  0.382773E+00  0.401021E+00
  0.428932E+00  0.465926E+00  0.508413E+00  0.553060E+00  0.598164E+00  0.642530E+00
  0.684505E+00  0.721997E+00  0.753636E+00  0.781669E+00  0.804432E+00  0.821811E+00
  0.835538E+00  0.845378E+00  0.850702E+00  0.854827E+00  0.855999E+00  0.855419E+00
  0.853939E+00  0.868927E+00  0.868982E+00  0.868634E+00  0.868792E+00  0.869596E+00
  0.869896E+00  0.871553E+00  0.872364E+00  0.873709E+00  0.873748E+00  0.871945E+00
  0.867854E+00  0.859392E+00  0.846321E+00  0.829967E+00  0.805047E+00  0.773484E+00
  0.735522E+00  0.688257E+00  0.634805E+00  0.576959E+00  0.517830E+00  0.457410E+00
  0.400803E+00  0.353180E+00  0.317516E+00  0.295233E+00  0.288455E+00  0.296912E+00
  0.319970E+00  0.354849E+00  0.398221E+00  0.448948E+00  0.501824E+00  0.554758E+00
  0.605660E+00  0.654424E+00  0.698313E+00  0.734882E+00  0.767533E+00  0.795336E+00
  0.816831E+00  0.833610E+00  0.847043E+00  0.855367E+00  0.861690E+00  0.866030E+00
  0.868340E+00  0.868927E+00  0.879129E+00  0.881686E+00  0.882818E+00  0.883562E+00
  0.884609E+00  0.885408E+00  0.886697E+00  0.886837E+00  0.887169E+00  0.885013E+00
  0.881132E+00  0.874878E+00  0.863714E+00  0.848516E+00  0.827217E+00  0.796412E+00
  0.759859E+00  0.715387E+00  0.659807E+00  0.598926E+00  0.533504E+00  0.463991E+00
  0.393090E+00  0.328635E+00  0.274145E+00  0.232282E+00  0.206439E+00  0.199308E+00
  0.210018E+00  0.237996E+00  0.280514E+00  0.331761E+00  0.389928E+00  0.451867E+00
  0.513488E+00  0.570380E+00  0.625059E+00  0.675581E+00  0.717902E+00  0.753889E+00
  0.785379E+00  0.811108E+00  0.830568E+00  0.846836E+00  0.858877E+00  0.867000E+00
  0.873000E+00  0.876798E+00  0.879129E+00  0.888434E+00  0.891350E+00  0.893133E+00
  0.894970E+00  0.896577E+00  0.897607E+00  0.898140E+00  0.897761E+00  0.897593E+00
  0.894007E+00  0.888709E+00  0.880453E+00  0.866566E+00  0.848486E+00  0.822080E+00
  0.788240E+00  0.747540E+00  0.695895E+00  0.633463E+00  0.565508E+00  0.491641E+00
  0.411726E+00  0.332580E+00  0.260724E+00  0.198190E+00  0.151229E+00  0.122676E+00
  0.114138E+00  0.128025E+00  0.160891E+00  0.209115E+00  0.269209E+00  0.335323E+00
  0.404795E+00  0.474901E+00  0.539213E+00  0.598382E+00  0.653882E+00  0.702171E+00
  0.741487E+00  0.776069E+00  0.805131E+00  0.827774E+00  0.845886E+00  0.860073E+00
  0.870620E+00  0.879008E+00  0.884957E+00  0.888434E+00  0.894251E+00  0.898315E+00
  0.900963E+00  0.903396E+00  0.904919E+00  0.905953E+00  0.906809E+00  0.905749E+00
  0.904561E+00  0.900362E+00  0.894127E+00  0.883874E+00  0.867530E+00  0.847474E+00
  0.818145E+00  0.781660E+00  0.735784E+00  0.677679E+00  0.611178E+00  0.537444E+00
  0.454289E+00  0.365624E+00  0.279672E+00  0.200829E+00  0.132178E+00  0.803493E-01
  0.493109E-01  0.408640E-01  0.569925E-01  0.938332E-01  0.147365E+00  0.214571E+00
  0.288174E+00  0.364092E+00  0.440715E+00  0.512483E+00  0.576342E+00  0.635155E+00
  0.688412E+00  0.731801E+00  0.768876E+00  0.799630E+00  0.824901E+00  0.844807E+00
  0.860531E+00  0.872552E+00  0.881668E+00  0.889197E+00  0.894251E+00  0.898127E+00
  0.903079E+00  0.906343E+00  0.909014E+00  0.910834E+00  0.911897E+00  0.912726E+00
  0.911353E+00  0.909604E+00  0.904508E+00  0.897133E+00  0.885809E+00  0.868459E+00
  0.846423E+00  0.814595E+00  0.775113E+00  0.725897E+00  0.664572E+00  0.593781E+00
  0.514478E+00  0.425114E+00  0.331117E+00  0.238822E+00  0.154029E+00  0.814167E-01
  0.251480E-01 -0.775356E-02 -0.146620E-01  0.236332E-02  0.420621E-01  0.101008E+00
  0.172302E+00  0.251239E+00  0.333351E+00  0.414725E+00  0.491064E+00  0.559833E+00
  0.621746E+00  0.677703E+00  0.723779E+00  0.762773E+00  0.795578E+00  0.822258E+00
  0.843404E+00  0.860798E+00  0.874235E+00  0.884030E+00  0.892429E+00  0.898127E+00
  0.900586E+00  0.905763E+00  0.909231E+00  0.912051E+00  0.914435E+00  0.915624E+00
  0.915875E+00  0.914660E+00  0.912617E+00  0.906872E+00  0.899136E+00  0.886647E+00
  0.868884E+00  0.845194E+00  0.812023E+00  0.771493E+00  0.720179E+00  0.656622E+00
  0.582499E+00  0.499643E+00  0.406202E+00  0.308473E+00  0.212977E+00  0.124556E+00
  0.479916E-01 -0.982920E-02 -0.434504E-01 -0.506583E-01 -0.320379E-01  0.960398E-02
  0.710304E-01  0.145756E+00  0.228437E+00  0.313434E+00  0.398620E+00  0.478077E+00
  0.549427E+00  0.612967E+00  0.670545E+00  0.718429E+00  0.758543E+00  0.793139E+00
  0.820751E+00  0.842913E+00  0.860740E+00  0.875046E+00  0.886026E+00  0.894788E+00
  0.900586E+00  0.900885E+00  0.906923E+00  0.910773E+00  0.913300E+00  0.915403E+00
  0.916619E+00  0.916879E+00  0.915894E+00  0.913443E+00  0.907463E+00  0.899911E+00
  0.886660E+00  0.868737E+00  0.844669E+00  0.811394E+00  0.770676E+00  0.717660E+00
  0.652702E+00  0.578417E+00  0.495550E+00  0.400337E+00  0.300451E+00  0.204315E+00
  0.114850E+00  0.362357E-01 -0.214404E-01 -0.552299E-01 -0.633522E-01 -0.434520E-01
 -0.107744E-02  0.603922E-01  0.136936E+00  0.221077E+00  0.305940E+00  0.392643E+00
  0.473815E+00  0.545889E+00  0.609955E+00  0.668585E+00  0.717352E+00  0.757364E+00
  0.792039E+00  0.819983E+00  0.842855E+00  0.860513E+00  0.874715E+00  0.885814E+00
  0.894473E+00  0.900885E+00  0.900586E+00  0.905763E+00  0.909231E+00  0.912051E+00
  0.914435E+00  0.915624E+00  0.915875E+00  0.914660E+00  0.912617E+00  0.906872E+00
  0.899136E+00  0.886647E+00  0.868884E+00  0.845194E+00  0.812023E+00  0.771493E+00
  0.720179E+00  0.656622E+00  0.582499E+00  0.499643E+00  0.406202E+00  0.308473E+00
  0.212977E+00  0.124556E+00  0.479916E-01 -0.982920E-02 -0.434504E-01 -0.506583E-01
 -0.320379E-01  0.960398E-02  0.710304E-01  0.145756E+00  0.228437E+00  0.313434E+00
  0.398620E+00  0.478077E+00  0.549427E+00  0.612967E+00  0.670545E+00  0.718429E+00
  0.758543E+00  0.793139E+00  0.820751E+00  0.842913E+00  0.860740E+00  0.875046E+00
  0.886026E+00  0.894788E+00  0.900586E+00  0.898127E+00  0.903079E+00  0.906343E+00
  0.909014E+00  0.910834E+00  0.911897E+00  0.912726E+00  0.911353E+00  0.909604E+00
  0.904508E+00  0.897133E+00  0.885809E+00  0.868459E+00  0.846423E+00  0.814595E+00
  0.775113E+00  0.725897E+00  0.664572E+00  0.593781E+00  0.514478E+00  0.425114E+00
  0.331117E+00  0.238822E+00  0.154029E+00  0.814167E-01  0.251480E-01 -0.775356E-02
 -0.146620E-01  0.236332E-02  0.420621E-01  0.101008E+00  0.172302E+00  0.251239E+00
  0.333351E+00  0.414725E+00  0.491064E+00  0.559833E+00  0.621746E+00  0.677703E+00
  0.723779E+00  0.762773E+00  0.795578E+00  0.822258E+00  0.843404E+00  0.860798E+00
  0.874235E+00  0.884030E+00  0.892429E+00  0.898127E+00  0.894251E+00  0.898315E+00
  0.900963E+00  0.903396E+00  0.904919E+00  0.905953E+00  0.906809E+00  0.905749E+00
  0.904561E+00  0.900362E+00  0.894127E+00  0.883874E+00  0.867530E+00  0.847474E+00
  0.818145E+00  0.781660E+00  0.735784E+00  0.677679E+00  0.611178E+00  0.537444E+00
  0.454289E+00  0.365624E+00  0.279672E+00  0.200829E+00  0.132178E+00  0.803493E-01
  0.493109E-01  0.408640E-01  0.569925E-01  0.938332E-01  0.147365E+00  0.214571E+00
  0.288174E+00  0.364092E+00  0.440715E+00  0.512483E+00  0.576342E+00  0.635155E+00
  0.688412E+00  0.731801E+00  0.768876E+00  0.799630E+00  0.824901E+00  0.844807E+00
  0.860531E+00  0.872552E+00  0.881668E+00  0.889197E+00  0.894251E+00  0.888434E+00
  0.891350E+00  0.893133E+00  0.894970E+00  0.896577E+00  0.897607E+00  0.898140E+00
  0.897761E+00  0.897593E+00  0.894007E+00  0.888709E+00  0.880453E+00  0.866566E+00
  0.848486E+00  0.822080E+00  0.788240E+00  0.747540E+00  0.695895E+00  0.633463E+00
  0.565508E+00  0.491641E+00  0.411726E+00  0.332580E+00  0.260724E+00  0.198190E+00
  0.151229E+00  0.122676E+00  0.114138E+00  0.128025E+00  0.160891E+00  0.209115E+00
  0.269209E+00  0.335323E+00  0.404795E+00  0.474901E+00  0.539213E+00  0.598382E+00
  0.653882E+00  0.702171E+00  0.741487E+00  0.776069E+00  0.805131E+00  0.827774E+00
  0.845886E+00  0.860073E+00  0.870620E+00  0.879008E+00  0.884957E+00  0.888434E+00
  0.879129E+00  0.881686E+00  0.882818E+00  0.883562E+00  0.884609E+00  0.885408E+00
  0.886697E+00  0.886837E+00  0.887169E+00  0.885013E+00  0.881132E+00  0.874878E+00
  0.863714E+00  0.848516E+00  0.827217E+00  0.796412E+00  0.759859E+00  0.715387E+00
  0.659807E+00  0.598926E+00  0.533504E+00  0.463991E+00  0.393090E+00  0.328635E+00
  0.274145E+00  0.232282E+00  0.206439E+00  0.199308E+00  0.210018E+00  0.237996E+00
  0.280514E+00  0.331761E+00  0.389928E+00  0.451867E+00  0.513488E+00  0.570380E+00
  0.625059E+00  0.675581E+00  0.717902E+00  0.753889E+00  0.785379E+00  0.811108E+00
  0.830568E+00  0.846836E+00  0.858877E+00  0.867000E+00  0.873000E+00  0.876798E+00
  0.879129E+00  0.868927E+00  0.868982E+00  0.868634E+00  0.868792E+00  0.869596E+00
  0.869896E+00  0.871553E+00  0.872364E+00  0.873709E+00  0.873748E+00  0.871945E+00
  0.867854E+00  0.859392E+00  0.846321E+00  0.829967E+00  0.805047E+00  0.773484E+00
  0.735522E+00  0.688257E+00  0.634805E+00  0.576959E+00  0.517830E+00  0.457410E+00
  0.400803E+00  0.353180E+00  0.317516E+00  0.295233E+00  0.288455E+00  0.296912E+00
  0.319970E+00  0.354849E+00  0.398221E+00  0.448948E+00  0.501824E+00  0.554758E+00
  0.605660E+00  0.654424E+00  0.698313E+00  0.734882E+00  0.767533E+00  0.795336E+00
  0.816831E+00  0.833610E+00  0.847043E+00  0.855367E+00  0.861690E+00  0.866030E+00
  0.868340E+00  0.868927E+00  0.853939E+00  0.851963E+00  0.850614E+00  0.849617E+00
  0.849655E+00  0.850002E+00  0.851868E+00  0.853861E+00  0.856339E+00  0.857854E+00
  0.858136E+00  0.857377E+00  0.853621E+00  0.843632E+00  0.830669E+00  0.811742E+00
  0.785819E+00  0.754403E+00  0.715994E+00  0.670992E+00  0.622375E+00  0.571734E+00
  0.521001E+00  0.473826E+00  0.432658E+00  0.401905E+00  0.382899E+00  0.376134E+00
  0.382773E+00  0.401021E+00  0.428932E+00  0.465926E+00  0.508413E+00  0.553060E+00
  0.598164E+00  0.642530E+00  0.684505E+00  0.721997E+00  0.753636E+00  0.781669E+00
  0.804432E+00  0.821811E+00  0.835538E+00  0.845378E+00  0.850702E+00  0.854827E+00
  0.855999E+00  0.855419E+00  0.853939E+00  0.834916E+00  0.830848E+00  0.828031E+00
  0.825750E+00  0.824884E+00  0.825314E+00  0.827461E+00  0.830880E+00  0.834439E+00
  0.838635E+00  0.841762E+00  0.843011E+00  0.843292E+00  0.838639E+00  0.830345E+00
  0.817040E+00  0.797159E+00  0.771918E+00  0.741899E+00  0.705109E+00  0.665004E+00
  0.622616E+00  0.581035E+00  0.542537E+00  0.508269E+00  0.481365E+00  0.464643E+00
  0.458389E+00  0.462934E+00  0.477323E+00  0.500408E+00  0.531654E+00  0.566057E+00
  0.603989E+00  0.642241E+00  0.679760E+00  0.714199E+00  0.744381E+00  0.771184E+00
  0.794948E+00  0.812851E+00  0.826681E+00  0.836321E+00  0.842177E+00  0.844773E+00
  0.844649E+00  0.842158E+00  0.838652E+00  0.834916E+00  0.812951E+00  0.805637E+00
  0.800292E+00  0.796395E+00  0.794498E+00  0.794701E+00  0.796867E+00  0.802185E+00
  0.807369E+00  0.814567E+00  0.821813E+00  0.825997E+00  0.829361E+00  0.829680E+00
  0.826363E+00  0.818534E+00  0.805730E+00  0.786477E+00  0.763976E+00  0.736290E+00
  0.704826E+00  0.671137E+00  0.637693E+00  0.605529E+00  0.578078E+00  0.556000E+00
  0.541343E+00  0.535578E+00  0.538566E+00  0.550591E+00  0.569025E+00  0.593694E+00
  0.621527E+00  0.652613E+00  0.683780E+00  0.714492E+00  0.742138E+00  0.767201E+00
  0.789107E+00  0.807062E+00  0.819674E+00  0.829489E+00  0.834476E+00  0.836066E+00
  0.835001E+00  0.830642E+00  0.825831E+00  0.819727E+00  0.812951E+00  0.782572E+00
  0.772488E+00  0.765024E+00  0.759143E+00  0.756267E+00  0.757236E+00  0.759933E+00
  0.766778E+00  0.774395E+00  0.783463E+00  0.794504E+00  0.804355E+00  0.812530E+00
  0.817784E+00  0.819419E+00  0.816830E+00  0.811255E+00  0.798883E+00  0.782351E+00
  0.762525E+00  0.739616E+00  0.713333E+00  0.687053E+00  0.662081E+00  0.640786E+00
  0.623555E+00  0.611740E+00  0.607096E+00  0.608714E+00  0.617717E+00  0.631887E+00
  0.650550E+00  0.672987E+00  0.697553E+00  0.722079E+00  0.746042E+00  0.767495E+00
  0.788563E+00  0.805142E+00  0.816863E+00  0.824926E+00  0.830160E+00  0.830431E+00
  0.827674E+00  0.822478E+00  0.814279E+00  0.804822E+00  0.793454E+00  0.782572E+00
  0.747224E+00  0.733917E+00  0.723335E+00  0.715832E+00  0.711659E+00  0.712167E+00
  0.716528E+00  0.724869E+00  0.736350E+00  0.748926E+00  0.762730E+00  0.776976E+00
  0.790200E+00  0.801456E+00  0.809064E+00  0.811806E+00  0.811953E+00  0.807519E+00
  0.797745E+00  0.783836E+00  0.767980E+00  0.749080E+00  0.729665E+00  0.710987E+00
  0.694030E+00  0.681045E+00  0.672207E+00  0.668470E+00  0.669340E+00  0.675328E+00
  0.686388E+00  0.700967E+00  0.718420E+00  0.737131E+00  0.756126E+00  0.774992E+00
  0.791622E+00  0.806743E+00  0.817447E+00  0.824593E+00  0.828681E+00  0.828539E+00
  0.824015E+00  0.816619E+00  0.806085E+00  0.792510E+00  0.777436E+00  0.761922E+00
  0.747224E+00  0.705672E+00  0.688032E+00  0.672831E+00  0.662919E+00  0.657353E+00
  0.656712E+00  0.663357E+00  0.673466E+00  0.688599E+00  0.706766E+00  0.725699E+00
  0.745013E+00  0.763203E+00  0.780262E+00  0.794490E+00  0.804135E+00  0.808952E+00
  0.810661E+00  0.808410E+00  0.801349E+00  0.791460E+00  0.779223E+00  0.765646E+00
  0.751914E+00  0.739153E+00  0.729181E+00  0.722177E+00  0.718622E+00  0.719854E+00
  0.724786E+00  0.733048E+00  0.744595E+00  0.757936E+00  0.772204E+00  0.786719E+00
  0.800622E+00  0.812785E+00  0.821923E+00  0.827770E+00  0.830392E+00  0.829267E+00
  0.823439E+00  0.814205E+00  0.801498E+00  0.784874E+00  0.765470E+00  0.745224E+00
  0.725503E+00  0.705672E+00  0.655024E+00  0.632061E+00  0.612923E+00  0.599996E+00
  0.593967E+00  0.594166E+00  0.601838E+00  0.614310E+00  0.632854E+00  0.656283E+00
  0.682063E+00  0.708296E+00  0.732784E+00  0.755159E+00  0.774806E+00  0.792220E+00
  0.803647E+00  0.810588E+00  0.813771E+00  0.813227E+00  0.809117E+00  0.802655E+00
  0.794603E+00  0.786091E+00  0.778040E+00  0.770351E+00  0.765729E+00  0.763470E+00
  0.764148E+00  0.768017E+00  0.774216E+00  0.782670E+00  0.791766E+00  0.802643E+00
  0.813613E+00  0.822341E+00  0.829397E+00  0.833514E+00  0.835592E+00  0.833374E+00
  0.826911E+00  0.816005E+00  0.801493E+00  0.781929E+00  0.759260E+00  0.735111E+00
  0.708554E+00  0.681640E+00  0.655024E+00  0.596962E+00  0.568244E+00  0.545709E+00
  0.529283E+00  0.521290E+00  0.522497E+00  0.531481E+00  0.548887E+00  0.571957E+00
  0.599825E+00  0.631276E+00  0.664121E+00  0.697035E+00  0.727190E+00  0.752320E+00
  0.775436E+00  0.793751E+00  0.807097E+00  0.815654E+00  0.820867E+00  0.822266E+00
  0.821034E+00  0.817721E+00  0.812951E+00  0.808882E+00  0.804540E+00  0.801895E+00
  0.801082E+00  0.801274E+00  0.803779E+00  0.808819E+00  0.814576E+00  0.820915E+00
  0.828639E+00  0.834893E+00  0.839803E+00  0.843477E+00  0.843394E+00  0.841097E+00
  0.833399E+00  0.821495E+00  0.805356E+00  0.784829E+00  0.758904E+00  0.730168E+00
  0.698948E+00  0.663744E+00  0.629059E+00  0.596962E+00  0.532732E+00  0.497081E+00
  0.468340E+00  0.447275E+00  0.436346E+00  0.437686E+00  0.449349E+00  0.472447E+00
  0.502355E+00  0.537750E+00  0.576133E+00  0.615960E+00  0.656132E+00  0.694425E+00
  0.727641E+00  0.756419E+00  0.780761E+00  0.800501E+00  0.814908E+00  0.825043E+00
  0.830776E+00  0.833911E+00  0.834893E+00  0.833697E+00  0.832112E+00  0.830623E+00
  0.828909E+00  0.829160E+00  0.830379E+00  0.832351E+00  0.836178E+00  0.839793E+00
  0.845105E+00  0.849867E+00  0.852354E+00  0.854646E+00  0.854489E+00  0.850055E+00
  0.843098E+00  0.830834E+00  0.814331E+00  0.792528E+00  0.764931E+00  0.733116E+00
  0.697162E+00  0.656314E+00  0.613333E+00  0.571267E+00  0.532732E+00  0.461455E+00
  0.417145E+00  0.380483E+00  0.355427E+00  0.342982E+00  0.344233E+00  0.358675E+00
  0.385592E+00  0.423424E+00  0.468971E+00  0.516667E+00  0.565614E+00  0.612674E+00
  0.657979E+00  0.699828E+00  0.735232E+00  0.765532E+00  0.790887E+00  0.810505E+00
  0.825272E+00  0.835813E+00  0.843329E+00  0.847982E+00  0.851062E+00  0.851431E+00
  0.851849E+00  0.852088E+00  0.853265E+00  0.854580E+00  0.856231E+00  0.859272E+00
  0.861388E+00  0.864551E+00  0.865895E+00  0.867295E+00  0.866776E+00  0.861850E+00
  0.854309E+00  0.843008E+00  0.826544E+00  0.804994E+00  0.777091E+00  0.743118E+00
  0.704193E+00  0.659174E+00  0.609489E+00  0.560315E+00  0.509927E+00  0.461455E+00
  0.382336E+00  0.329385E+00  0.286929E+00  0.258699E+00  0.244853E+00  0.246483E+00
  0.264773E+00  0.295775E+00  0.339350E+00  0.393010E+00  0.451535E+00  0.511336E+00
  0.567946E+00  0.621095E+00  0.670155E+00  0.712920E+00  0.749280E+00  0.779726E+00
  0.804328E+00  0.823559E+00  0.838313E+00  0.849171E+00  0.856100E+00  0.862336E+00
  0.865689E+00  0.868401E+00  0.870272E+00  0.872013E+00  0.873576E+00  0.875115E+00
  0.877155E+00  0.878630E+00  0.880371E+00  0.879647E+00  0.879100E+00  0.874470E+00
  0.866885E+00  0.857580E+00  0.841553E+00  0.820469E+00  0.793400E+00  0.759413E+00
  0.719804E+00  0.672690E+00  0.619102E+00  0.562019E+00  0.503116E+00  0.441980E+00
  0.382336E+00  0.301255E+00  0.240786E+00  0.192736E+00  0.158653E+00  0.142059E+00
  0.144521E+00  0.167109E+00  0.205731E+00  0.256594E+00  0.317164E+00  0.385682E+00
  0.455396E+00  0.522326E+00  0.583828E+00  0.639452E+00  0.689610E+00  0.731901E+00
  0.767535E+00  0.797070E+00  0.820295E+00  0.838289E+00  0.852591E+00  0.862721E+00
  0.870716E+00  0.876170E+00  0.880418E+00  0.883394E+00  0.885980E+00  0.888377E+00
  0.890065E+00  0.891153E+00  0.892119E+00  0.892404E+00  0.890564E+00  0.887408E+00
  0.880371E+00  0.871415E+00  0.858058E+00  0.837542E+00  0.813042E+00  0.781811E+00
  0.742083E+00  0.695218E+00  0.639930E+00  0.579010E+00  0.514029E+00  0.443066E+00
  0.370680E+00  0.301255E+00  0.222548E+00  0.153701E+00  0.959518E-01  0.522315E-01
  0.302168E-01  0.330726E-01  0.610353E-01  0.110665E+00  0.174099E+00  0.244506E+00
  0.321034E+00  0.399860E+00  0.477485E+00  0.548318E+00  0.611152E+00  0.667141E+00
  0.714911E+00  0.755111E+00  0.788560E+00  0.815644E+00  0.836859E+00  0.854345E+00
  0.867602E+00  0.877413E+00  0.884795E+00  0.889878E+00  0.894177E+00  0.897414E+00
  0.899746E+00  0.901703E+00  0.902539E+00  0.903104E+00  0.901510E+00  0.898922E+00
  0.894010E+00  0.885484E+00  0.874155E+00  0.856528E+00  0.833579E+00  0.805444E+00
  0.768832E+00  0.723958E+00  0.670756E+00  0.609106E+00  0.540438E+00  0.465165E+00
  0.382939E+00  0.300216E+00  0.222548E+00  0.150465E+00  0.698278E-01 -0.236470E-02
 -0.574672E-01 -0.873665E-01 -0.849982E-01 -0.495364E-01  0.122000E-01  0.911123E-01
  0.176771E+00  0.262863E+00  0.349754E+00  0.436050E+00  0.515360E+00  0.584855E+00
  0.645901E+00  0.699937E+00  0.744116E+00  0.780657E+00  0.811193E+00  0.834786E+00
  0.853924E+00  0.868828E+00  0.880261E+00  0.889858E+00  0.896295E+00  0.901580E+00
  0.905458E+00  0.908333E+00  0.910481E+00  0.910633E+00  0.910704E+00  0.908229E+00
  0.905208E+00  0.898570E+00  0.887913E+00  0.874439E+00  0.854883E+00  0.830218E+00
  0.798395E+00  0.756568E+00  0.707539E+00  0.648639E+00  0.580251E+00  0.504267E+00
  0.419151E+00  0.327157E+00  0.235656E+00  0.150465E+00  0.863412E-01 -0.800879E-02
 -0.953991E-01 -0.162459E+00 -0.199014E+00 -0.197150E+00 -0.155786E+00 -0.822308E-01
  0.123889E-01  0.114599E+00  0.212923E+00  0.307397E+00  0.400041E+00  0.487042E+00
  0.562926E+00  0.628059E+00  0.686437E+00  0.733985E+00  0.773330E+00  0.806554E+00
  0.832637E+00  0.853755E+00  0.870802E+00  0.883321E+00  0.893363E+00  0.901197E+00
  0.907130E+00  0.911277E+00  0.914364E+00  0.916204E+00  0.916645E+00  0.916761E+00
  0.913521E+00  0.909067E+00  0.901095E+00  0.890051E+00  0.875325E+00  0.853469E+00
  0.825714E+00  0.790922E+00  0.746253E+00  0.693821E+00  0.629508E+00  0.555092E+00
  0.473038E+00  0.379377E+00  0.279588E+00  0.181067E+00  0.863412E-01  0.337313E-01
 -0.727812E-01 -0.172283E+00 -0.250225E+00 -0.291262E+00 -0.289334E+00 -0.244483E+00
 -0.161215E+00 -0.532650E-01  0.622440E-01  0.173071E+00  0.275484E+00  0.372505E+00
  0.464809E+00  0.546602E+00  0.615343E+00  0.675760E+00  0.726460E+00  0.767968E+00
  0.802761E+00  0.830611E+00  0.852518E+00  0.870890E+00  0.885043E+00  0.895828E+00
  0.904399E+00  0.910732E+00  0.915346E+00  0.918653E+00  0.920262E+00  0.920753E+00
  0.920364E+00  0.916955E+00  0.912050E+00  0.903177E+00  0.891298E+00  0.874860E+00
  0.851527E+00  0.822691E+00  0.785568E+00  0.738342E+00  0.682339E+00  0.614496E+00
  0.536881E+00  0.448855E+00  0.347889E+00  0.243159E+00  0.139315E+00  0.337313E-01
  0.611843E-04 -0.115688E+00 -0.223442E+00 -0.306874E+00 -0.351319E+00 -0.349922E+00
 -0.301683E+00 -0.213182E+00 -0.969426E-01  0.282265E-01  0.147624E+00  0.255450E+00
  0.355707E+00  0.450556E+00  0.535344E+00  0.606803E+00  0.668957E+00  0.721926E+00
  0.764579E+00  0.800590E+00  0.829404E+00  0.852001E+00  0.870622E+00  0.885307E+00
  0.897158E+00  0.905764E+00  0.912444E+00  0.917613E+00  0.921145E+00  0.923068E+00
  0.923301E+00  0.922273E+00  0.918594E+00  0.913696E+00  0.904396E+00  0.891451E+00
  0.874189E+00  0.850250E+00  0.821007E+00  0.782193E+00  0.733629E+00  0.675355E+00
  0.605202E+00  0.525087E+00  0.432779E+00  0.328628E+00  0.220337E+00  0.112523E+00
  0.611843E-04 -0.116758E-01 -0.131301E+00 -0.242212E+00 -0.326372E+00 -0.372183E+00
 -0.371393E+00 -0.321367E+00 -0.231596E+00 -0.112745E+00  0.162683E-01  0.138239E+00
  0.247709E+00  0.350009E+00  0.446262E+00  0.531711E+00  0.603887E+00  0.666631E+00
  0.720056E+00  0.762906E+00  0.799625E+00  0.829105E+00  0.852825E+00  0.871751E+00
  0.885968E+00  0.897914E+00  0.906384E+00  0.913241E+00  0.918304E+00  0.921426E+00
  0.923603E+00  0.924296E+00  0.923514E+00  0.919363E+00  0.913999E+00  0.904742E+00
  0.891934E+00  0.874865E+00  0.850169E+00  0.819786E+00  0.780110E+00  0.731655E+00
  0.673096E+00  0.602104E+00  0.520740E+00  0.427247E+00  0.322769E+00  0.212414E+00
  0.102661E+00 -0.116758E-01  0.611843E-04 -0.115688E+00 -0.223442E+00 -0.306874E+00
 -0.351319E+00 -0.349922E+00 -0.301683E+00 -0.213182E+00 -0.969426E-01  0.282265E-01
  0.147624E+00  0.255450E+00  0.355707E+00  0.450556E+00  0.535344E+00  0.606803E+00
  0.668957E+00  0.721926E+00  0.764579E+00  0.800590E+00  0.829404E+00  0.852001E+00
  0.870622E+00  0.885307E+00  0.897158E+00  0.905764E+00  0.912444E+00  0.917613E+00
  0.921145E+00  0.923068E+00  0.923301E+00  0.922273E+00  0.918594E+00  0.913696E+00
  0.904396E+00  0.891451E+00  0.874189E+00  0.850250E+00  0.821007E+00  0.782193E+00
  0.733629E+00  0.675355E+00  0.605202E+00  0.525087E+00  0.432779E+00  0.328628E+00
  0.220337E+00  0.112523E+00  0.611843E-04  0.337313E-01 -0.727812E-01 -0.172283E+00
 -0.250225E+00 -0.291262E+00 -0.289334E+00 -0.244483E+00 -0.161215E+00 -0.532650E-01
  0.622440E-01  0.173071E+00  0.275484E+00  0.372505E+00  0.464809E+00  0.546602E+00
  0.615343E+00  0.675760E+00  0.726460E+00  0.767968E+00  0.802761E+00  0.830611E+00
  0.852518E+00  0.870890E+00  0.885043E+00  0.895828E+00  0.904399E+00  0.910732E+00
  0.915346E+00  0.918653E+00  0.920262E+00  0.920753E+00  0.920364E+00  0.916955E+00
  0.912050E+00  0.903177E+00  0.891298E+00  0.874860E+00  0.851527E+00  0.822691E+00
  0.785568E+00  0.738342E+00  0.682339E+00  0.614496E+00  0.536881E+00  0.448855E+00
  0.347889E+00  0.243159E+00  0.139315E+00  0.337313E-01  0.863412E-01 -0.800879E-02
 -0.953991E-01 -0.162459E+00 -0.199014E+00 -0.197150E+00 -0.155786E+00 -0.822308E-01
  0.123889E-01  0.114599E+00  0.212923E+00  0.307397E+00  0.400041E+00  0.487042E+00
  0.562926E+00  0.628059E+00  0.686437E+00  0.733985E+00  0.773330E+00  0.806554E+00
  0.832637E+00  0.853755E+00  0.870802E+00  0.883321E+00  0.893363E+00  0.901197E+00
  0.907130E+00  0.911277E+00  0.914364E+00  0.916204E+00  0.916645E+00  0.916761E+00
  0.913521E+00  0.909067E+00  0.901095E+00  0.890051E+00  0.875325E+00  0.853469E+00
  0.825714E+00  0.790922E+00  0.746253E+00  0.693821E+00  0.629508E+00  0.555092E+00
  0.473038E+00  0.379377E+00  0.279588E+00  0.181067E+00  0.863412E-01  0.150465E+00
  0.698278E-01 -0.236470E-02 -0.574672E-01 -0.873665E-01 -0.849982E-01 -0.495364E-01
  0.122000E-01  0.911123E-01  0.176771E+00  0.262863E+00  0.349754E+00  0.436050E+00
  0.515360E+00  0.584855E+00  0.645901E+00  0.699937E+00  0.744116E+00  0.780657E+00
  0.811193E+00  0.834786E+00  0.853924E+00  0.868828E+00  0.880261E+00  0.889858E+00
  0.896295E+00  0.901580E+00  0.905458E+00  0.908333E+00  0.910481E+00  0.910633E+00
  0.910704E+00  0.908229E+00  0.905208E+00  0.898570E+00  0.887913E+00  0.874439E+00
  0.854883E+00  0.830218E+00  0.798395E+00  0.756568E+00  0.707539E+00  0.648639E+00
  0.580251E+00  0.504267E+00  0.419151E+00  0.327157E+00  0.235656E+00  0.150465E+00
  0.222548E+00  0.153701E+00  0.959518E-01  0.522315E-01  0.302168E-01  0.330726E-01
  0.610353E-01  0.110665E+00  0.174099E+00  0.244506E+00  0.321034E+00  0.399860E+00
  0.477485E+00  0.548318E+00  0.611152E+00  0.667141E+00  0.714911E+00  0.755111E+00
  0.788560E+00  0.815644E+00  0.836859E+00  0.854345E+00  0.867602E+00  0.877413E+00
  0.884795E+00  0.889878E+00  0.894177E+00  0.897414E+00  0.899746E+00  0.901703E+00
  0.902539E+00  0.903104E+00  0.901510E+00  0.898922E+00  0.894010E+00  0.885484E+00
  0.874155E+00  0.856528E+00  0.833579E+00  0.805444E+00  0.768832E+00  0.723958E+00
  0.670756E+00  0.609106E+00  0.540438E+00  0.465165E+00  0.382939E+00  0.300216E+00
  0.222548E+00  0.301255E+00  0.240786E+00  0.192736E+00  0.158653E+00  0.142059E+00
  0.144521E+00  0.167109E+00  0.205731E+00  0.256594E+00  0.317164E+00  0.385682E+00
  0.455396E+00  0.522326E+00  0.583828E+00  0.639452E+00  0.689610E+00  0.731901E+00
  0.767535E+00  0.797070E+00  0.820295E+00  0.838289E+00  0.852591E+00  0.862721E+00
  0.870716E+00  0.876170E+00  0.880418E+00  0.883394E+00  0.885980E+00  0.888377E+00
  0.890065E+00  0.891153E+00  0.892119E+00  0.892404E+00  0.890564E+00  0.887408E+00
  0.880371E+00  0.871415E+00  0.858058E+00  0.837542E+00  0.813042E+00  0.781811E+00
  0.742083E+00  0.695218E+00  0.639930E+00  0.579010E+00  0.514029E+00  0.443066E+00
  0.370680E+00  0.301255E+00  0.382336E+00  0.329385E+00  0.286929E+00  0.258699E+00
  0.244853E+00  0.246483E+00  0.264773E+00  0.295775E+00  0.339350E+00  0.393010E+00
  0.451535E+00  0.511336E+00  0.567946E+00  0.621095E+00  0.670155E+00  0.712920E+00
  0.749280E+00  0.779726E+00  0.804328E+00  0.823559E+00  0.838313E+00  0.849171E+00
  0.856100E+00  0.862336E+00  0.865689E+00  0.868401E+00  0.870272E+00  0.872013E+00
  0.873576E+00  0.875115E+00  0.877155E+00  0.878630E+00  0.880371E+00  0.879647E+00
  0.879100E+00  0.874470E+00  0.866885E+00  0.857580E+00  0.841553E+00  0.820469E+00
  0.793400E+00  0.759413E+00  0.719804E+00  0.672690E+00  0.619102E+00  0.562019E+00
  0.503116E+00  0.441980E+00  0.382336E+00  0.461455E+00  0.417145E+00  0.380483E+00
  0.355427E+00  0.342982E+00  0.344233E+00  0.358675E+00  0.385592E+00  0.423424E+00
  0.468971E+00  0.516667E+00  0.565614E+00  0.612674E+00  0.657979E+00  0.699828E+00
  0.735232E+00  0.765532E+00  0.790887E+00  0.810505E+00  0.825272E+00  0.835813E+00
  0.843329E+00  0.847982E+00  0.851062E+00  0.851431E+00  0.851849E+00  0.852088E+00
  0.853265E+00  0.854580E+00  0.856231E+00  0.859272E+00  0.861388E+00  0.864551E+00
  0.865895E+00  0.867295E+00  0.866776E+00  0.861850E+00  0.854309E+00  0.843008E+00
  0.826544E+00  0.804994E+00  0.777091E+00  0.743118E+00  0.704193E+00  0.659174E+00
  0.609489E+00  0.560315E+00  0.509927E+00  0.461455E+00  0.532732E+00  0.497081E+00
  0.468340E+00  0.447275E+00  0.436346E+00  0.437686E+00  0.449349E+00  0.472447E+00
  0.502355E+00  0.537750E+00  0.576133E+00  0.615960E+00  0.656132E+00  0.694425E+00
  0.727641E+00  0.756419E+00  0.780761E+00  0.800501E+00  0.814908E+00  0.825043E+00
  0.830776E+00  0.833911E+00  0.834893E+00  0.833697E+00  0.832112E+00  0.830623E+00
  0.828909E+00  0.829160E+00  0.830379E+00  0.832351E+00  0.836178E+00  0.839793E+00
  0.845105E+00  0.849867E+00  0.852354E+00  0.854646E+00  0.854489E+00  0.850055E+00
  0.843098E+00  0.830834E+00  0.814331E+00  0.792528E+00  0.764931E+00  0.733116E+00
  0.697162E+00  0.656314E+00  0.613333E+00  0.571267E+00  0.532732E+00  0.596962E+00
  0.568244E+00  0.545709E+00  0.529283E+00  0.521290E+00  0.522497E+00  0.531481E+00
  0.548887E+00  0.571957E+00  0.599825E+00  0.631276E+00  0.664121E+00  0.697035E+00
  0.727190E+00  0.752320E+00  0.775436E+00  0.793751E+00  0.807097E+00  0.815654E+00
  0.820867E+00  0.822266E+00  0.821034E+00  0.817721E+00  0.812951E+00  0.808882E+00
  0.804540E+00  0.801895E+00  0.801082E+00  0.801274E+00  0.803779E+00  0.808819E+00
  0.814576E+00  0.820915E+00  0.828639E+00  0.834893E+00  0.839803E+00  0.843477E+00
  0.843394E+00  0.841097E+00  0.833399E+00  0.821495E+00  0.805356E+00  0.784829E+00
  0.758904E+00  0.730168E+00  0.698948E+00  0.663744E+00  0.629059E+00  0.596962E+00
  0.655024E+00  0.632061E+00  0.612923E+00  0.599996E+00  0.593967E+00  0.594166E+00
  0.601838E+00  0.614310E+00  0.632854E+00  0.656283E+00  0.682063E+00  0.708296E+00
  0.732784E+00  0.755159E+00  0.774806E+00  0.792220E+00  0.803647E+00  0.810588E+00
  0.813771E+00  0.813227E+00  0.809117E+00  0.802655E+00  0.794603E+00  0.786091E+00
  0.778040E+00  0.770351E+00  0.765729E+00  0.763470E+00  0.764148E+00  0.768017E+00
  0.774216E+00  0.782670E+00  0.791766E+00  0.802643E+00  0.813613E+00  0.822341E+00
  0.829397E+00  0.833514E+00  0.835592E+00  0.833374E+00  0.826911E+00  0.816005E+00
  0.801493E+00  0.781929E+00  0.759260E+00  0.735111E+00  0.708554E+00  0.681640E+00
  0.655024E+00  0.705672E+00  0.688032E+00  0.672831E+00  0.662919E+00  0.657353E+00
  0.656712E+00  0.663357E+00  0.673466E+00  0.688599E+00  0.706766E+00  0.725699E+00
  0.745013E+00  0.763203E+00  0.780262E+00  0.794490E+00  0.804135E+00  0.808952E+00
  0.810661E+00  0.808410E+00  0.801349E+00  0.791460E+00  0.779223E+00  0.765646E+00
  0.751914E+00  0.739153E+00  0.729181E+00  0.722177E+00  0.718622E+00  0.719854E+00
  0.724786E+00  0.733048E+00  0.744595E+00  0.757936E+00  0.772204E+00  0.786719E+00
  0.800622E+00  0.812785E+00  0.821923E+00  0.827770E+00  0.830392E+00  0.829267E+00
  0.823439E+00  0.814205E+00  0.801498E+00  0.784874E+00  0.765470E+00  0.745224E+00
  0.725503E+00  0.705672E+00  0.670100E+00  0.646215E+00  0.626879E+00  0.612920E+00
  0.604613E+00  0.603302E+00  0.608968E+00  0.620876E+00  0.638057E+00  0.658899E+00
  0.683493E+00  0.708028E+00  0.731658E+00  0.752495E+00  0.770415E+00  0.784995E+00
  0.793840E+00  0.797752E+00  0.797637E+00  0.792654E+00  0.782494E+00  0.772258E+00
  0.760484E+00  0.748625E+00  0.739352E+00  0.731261E+00  0.727526E+00  0.726957E+00
  0.730821E+00  0.738924E+00  0.748921E+00  0.762610E+00  0.777516E+00  0.792554E+00
  0.806505E+00  0.817683E+00  0.828246E+00  0.834779E+00  0.838496E+00  0.838389E+00
  0.832902E+00  0.823577E+00  0.810443E+00  0.793145E+00  0.770863E+00  0.747726E+00
  0.722298E+00  0.695903E+00  0.670100E+00  0.720622E+00  0.702450E+00  0.687097E+00
  0.676175E+00  0.669897E+00  0.669352E+00  0.673434E+00  0.682258E+00  0.695570E+00
  0.711895E+00  0.730064E+00  0.747520E+00  0.764320E+00  0.778378E+00  0.789906E+00
  0.796650E+00  0.797299E+00  0.794664E+00  0.786593E+00  0.772680E+00  0.757151E+00
  0.739914E+00  0.721187E+00  0.703705E+00  0.688586E+00  0.676530E+00  0.671184E+00
  0.671382E+00  0.676866E+00  0.687889E+00  0.702326E+00  0.719793E+00  0.738550E+00
  0.759037E+00  0.779074E+00  0.796606E+00  0.811445E+00  0.822754E+00  0.830705E+00
  0.835400E+00  0.836107E+00  0.830958E+00  0.822305E+00  0.811810E+00  0.796104E+00
  0.778662E+00  0.759615E+00  0.739545E+00  0.720622E+00  0.760528E+00  0.748203E+00
  0.736959E+00  0.729008E+00  0.724649E+00  0.724114E+00  0.727390E+00  0.733698E+00
  0.743439E+00  0.755455E+00  0.767621E+00  0.780140E+00  0.791269E+00  0.799108E+00
  0.803808E+00  0.803136E+00  0.797556E+00  0.786696E+00  0.769685E+00  0.748566E+00
  0.725469E+00  0.698356E+00  0.671729E+00  0.646980E+00  0.626628E+00  0.612443E+00
  0.605003E+00  0.605382E+00  0.612906E+00  0.627567E+00  0.647436E+00  0.670965E+00
  0.696083E+00  0.721842E+00  0.746875E+00  0.771319E+00  0.791515E+00  0.808460E+00
  0.821340E+00  0.830127E+00  0.835968E+00  0.836879E+00  0.832763E+00  0.826078E+00
  0.816488E+00  0.803927E+00  0.789987E+00  0.774643E+00  0.760528E+00  0.794744E+00
  0.785303E+00  0.776807E+00  0.771322E+00  0.768281E+00  0.767434E+00  0.770684E+00
  0.775573E+00  0.782871E+00  0.791843E+00  0.799886E+00  0.807742E+00  0.812879E+00
  0.814627E+00  0.812387E+00  0.804962E+00  0.792611E+00  0.772923E+00  0.748348E+00
  0.718569E+00  0.684538E+00  0.648564E+00  0.614316E+00  0.581820E+00  0.556165E+00
  0.539051E+00  0.529882E+00  0.530846E+00  0.540765E+00  0.559233E+00  0.584609E+00
  0.615102E+00  0.647928E+00  0.681029E+00  0.711533E+00  0.741757E+00  0.768719E+00
  0.791504E+00  0.809857E+00  0.823771E+00  0.832755E+00  0.838983E+00  0.840776E+00
  0.837366E+00  0.832374E+00  0.824423E+00  0.815604E+00  0.805573E+00  0.794744E+00
  0.822602E+00  0.816203E+00  0.810612E+00  0.806384E+00  0.804802E+00  0.804926E+00
  0.807257E+00  0.810472E+00  0.815580E+00  0.820958E+00  0.825358E+00  0.828584E+00
  0.828731E+00  0.825790E+00  0.818077E+00  0.803721E+00  0.782882E+00  0.754890E+00
  0.721785E+00  0.681727E+00  0.637510E+00  0.592305E+00  0.547843E+00  0.507884E+00
  0.475333E+00  0.452165E+00  0.441433E+00  0.443622E+00  0.457375E+00  0.481749E+00
  0.513954E+00  0.552093E+00  0.592828E+00  0.635215E+00  0.674695E+00  0.710760E+00
  0.744143E+00  0.772972E+00  0.796226E+00  0.815590E+00  0.828668E+00  0.838086E+00
  0.844667E+00  0.846180E+00  0.845397E+00  0.841555E+00  0.835559E+00  0.829485E+00
  0.822602E+00  0.844972E+00  0.841079E+00  0.838266E+00  0.835382E+00  0.834436E+00
  0.834501E+00  0.835912E+00  0.838276E+00  0.841321E+00  0.843722E+00  0.845588E+00
  0.845032E+00  0.841284E+00  0.833138E+00  0.818839E+00  0.797650E+00  0.770022E+00
  0.734187E+00  0.690515E+00  0.640537E+00  0.586137E+00  0.529893E+00  0.474051E+00
  0.424475E+00  0.383418E+00  0.355062E+00  0.342943E+00  0.346168E+00  0.365016E+00
  0.397401E+00  0.438131E+00  0.485254E+00  0.534906E+00  0.585634E+00  0.635264E+00
  0.679082E+00  0.717919E+00  0.752869E+00  0.781646E+00  0.805506E+00  0.823964E+00
  0.836979E+00  0.846242E+00  0.851654E+00  0.854192E+00  0.854634E+00  0.851669E+00
  0.848540E+00  0.844972E+00  0.862702E+00  0.860122E+00  0.858565E+00  0.857222E+00
  0.856970E+00  0.857159E+00  0.858436E+00  0.860181E+00  0.861575E+00  0.862469E+00
  0.861922E+00  0.857211E+00  0.849743E+00  0.836965E+00  0.817013E+00  0.790070E+00
  0.755078E+00  0.710059E+00  0.656719E+00  0.597194E+00  0.530217E+00  0.461345E+00
  0.394600E+00  0.334340E+00  0.285271E+00  0.252735E+00  0.238874E+00  0.244532E+00
  0.268075E+00  0.307378E+00  0.358361E+00  0.415894E+00  0.475760E+00  0.534917E+00
  0.593269E+00  0.646432E+00  0.691849E+00  0.732083E+00  0.766766E+00  0.794554E+00
  0.816841E+00  0.834295E+00  0.847303E+00  0.856134E+00  0.860967E+00  0.864286E+00
  0.864720E+00  0.864016E+00  0.862702E+00  0.876122E+00  0.875806E+00  0.875673E+00
  0.875428E+00  0.875716E+00  0.876700E+00  0.877277E+00  0.878050E+00  0.877920E+00
  0.876791E+00  0.873513E+00  0.865828E+00  0.855058E+00  0.837914E+00  0.813252E+00
  0.781057E+00  0.737932E+00  0.684929E+00  0.623469E+00  0.552677E+00  0.473804E+00
  0.392594E+00  0.313911E+00  0.243804E+00  0.187605E+00  0.150332E+00  0.134782E+00
  0.143594E+00  0.172270E+00  0.218156E+00  0.279072E+00  0.347159E+00  0.417680E+00
  0.486627E+00  0.552355E+00  0.613826E+00  0.667163E+00  0.712485E+00  0.751945E+00
  0.784514E+00  0.810524E+00  0.830606E+00  0.846315E+00  0.858491E+00  0.866017E+00
  0.871109E+00  0.874069E+00  0.874967E+00  0.876122E+00  0.886469E+00  0.887119E+00
  0.888014E+00  0.888806E+00  0.889159E+00  0.890238E+00  0.890204E+00  0.890685E+00
  0.889301E+00  0.886758E+00  0.881770E+00  0.872637E+00  0.859062E+00  0.837476E+00
  0.808080E+00  0.770815E+00  0.721318E+00  0.661844E+00  0.591613E+00  0.508696E+00
  0.419307E+00  0.327281E+00  0.237569E+00  0.157514E+00  0.928912E-01  0.513316E-01
  0.353925E-01  0.459497E-01  0.808725E-01  0.134956E+00  0.203792E+00  0.282235E+00
  0.363579E+00  0.441958E+00  0.514979E+00  0.583495E+00  0.644040E+00  0.694922E+00
  0.738040E+00  0.774366E+00  0.804728E+00  0.827430E+00  0.844640E+00  0.858962E+00
  0.869174E+00  0.876468E+00  0.881990E+00  0.884043E+00  0.886469E+00  0.893788E+00
  0.895700E+00  0.897286E+00  0.898674E+00  0.899248E+00  0.900311E+00  0.900630E+00
  0.900890E+00  0.898392E+00  0.895091E+00  0.887734E+00  0.876321E+00  0.860009E+00
  0.835857E+00  0.804205E+00  0.762090E+00  0.706702E+00  0.640482E+00  0.562249E+00
  0.470963E+00  0.371940E+00  0.269882E+00  0.170354E+00  0.803896E-01  0.835124E-02
 -0.376438E-01 -0.544161E-01 -0.418588E-01 -0.109178E-02  0.615283E-01  0.138438E+00
  0.225732E+00  0.316503E+00  0.403620E+00  0.483550E+00  0.557899E+00  0.624260E+00
  0.680062E+00  0.726746E+00  0.765207E+00  0.797852E+00  0.824054E+00  0.843954E+00
  0.859972E+00  0.871690E+00  0.879768E+00  0.886708E+00  0.890091E+00  0.893788E+00
  0.898862E+00  0.901713E+00  0.903850E+00  0.905669E+00  0.906721E+00  0.907491E+00
  0.907529E+00  0.907209E+00  0.904292E+00  0.900150E+00  0.891310E+00  0.879104E+00
  0.861170E+00  0.834489E+00  0.800237E+00  0.753823E+00  0.694878E+00  0.624653E+00
  0.539522E+00  0.441090E+00  0.334646E+00  0.225349E+00  0.117087E+00  0.186554E-01
 -0.584661E-01 -0.108809E+00 -0.126988E+00 -0.111409E+00 -0.663565E-01  0.285694E-02
  0.880294E-01  0.181490E+00  0.279065E+00  0.374194E+00  0.459961E+00  0.538220E+00
  0.609004E+00  0.668084E+00  0.718028E+00  0.759567E+00  0.793457E+00  0.821229E+00
  0.842264E+00  0.859671E+00  0.873055E+00  0.881916E+00  0.889964E+00  0.894716E+00
  0.898862E+00  0.901823E+00  0.904640E+00  0.906859E+00  0.909071E+00  0.910387E+00
  0.911178E+00  0.911050E+00  0.910340E+00  0.907199E+00  0.902567E+00  0.893897E+00
  0.880737E+00  0.861897E+00  0.833783E+00  0.797259E+00  0.748870E+00  0.687579E+00
  0.614566E+00  0.525041E+00  0.421794E+00  0.310750E+00  0.196081E+00  0.821623E-01
 -0.209529E-01 -0.102572E+00 -0.155352E+00 -0.174015E+00 -0.157141E+00 -0.108625E+00
 -0.352424E-01  0.549156E-01  0.153188E+00  0.255490E+00  0.354927E+00  0.445010E+00
  0.525822E+00  0.599094E+00  0.660715E+00  0.712421E+00  0.755643E+00  0.790798E+00
  0.819742E+00  0.841156E+00  0.859332E+00  0.873722E+00  0.883547E+00  0.892084E+00
  0.897525E+00  0.901823E+00  0.902884E+00  0.906182E+00  0.908510E+00  0.910714E+00
  0.911895E+00  0.912966E+00  0.913176E+00  0.912380E+00  0.908939E+00  0.904119E+00
  0.895418E+00  0.880684E+00  0.861155E+00  0.833231E+00  0.796507E+00  0.747913E+00
  0.684889E+00  0.609982E+00  0.519679E+00  0.415958E+00  0.303439E+00  0.185896E+00
  0.700650E-01 -0.340791E-01 -0.117866E+00 -0.171205E+00 -0.189819E+00 -0.173064E+00
 -0.122778E+00 -0.478016E-01  0.435593E-01  0.144025E+00  0.248114E+00  0.348155E+00
  0.439813E+00  0.521674E+00  0.595677E+00  0.658662E+00  0.710794E+00  0.753733E+00
  0.789254E+00  0.819231E+00  0.841312E+00  0.859723E+00  0.873969E+00  0.883812E+00
  0.892044E+00  0.897740E+00  0.902884E+00  0.901823E+00  0.904640E+00  0.906859E+00
  0.909071E+00  0.910387E+00  0.911178E+00  0.911050E+00  0.910340E+00  0.907199E+00
  0.902567E+00  0.893897E+00  0.880737E+00  0.861897E+00  0.833783E+00  0.797259E+00
  0.748870E+00  0.687579E+00  0.614566E+00  0.525041E+00  0.421794E+00  0.310750E+00
  0.196081E+00  0.821623E-01 -0.209529E-01 -0.102572E+00 -0.155352E+00 -0.174015E+00
 -0.157141E+00 -0.108625E+00 -0.352424E-01  0.549156E-01  0.153188E+00  0.255490E+00
  0.354927E+00  0.445010E+00  0.525822E+00  0.599094E+00  0.660715E+00  0.712421E+00
  0.755643E+00  0.790798E+00  0.819742E+00  0.841156E+00  0.859332E+00  0.873722E+00
  0.883547E+00  0.892084E+00  0.897525E+00  0.901823E+00  0.898862E+00  0.901713E+00
  0.903850E+00  0.905669E+00  0.906721E+00  0.907491E+00  0.907529E+00  0.907209E+00
  0.904292E+00  0.900150E+00  0.891310E+00  0.879104E+00  0.861170E+00  0.834489E+00
  0.800237E+00  0.753823E+00  0.694878E+00  0.624653E+00  0.539522E+00  0.441090E+00
[...]
  0.792066E+00  0.811457E+00  0.824418E+00  0.835151E+00  0.841651E+00  0.845651E+00
  0.847229E+00  0.846247E+00  0.845043E+00  0.824588E+00  0.820471E+00  0.817469E+00
  0.815488E+00  0.815276E+00  0.817151E+00  0.819330E+00  0.823958E+00  0.828749E+00
  0.833660E+00  0.838354E+00  0.841513E+00  0.843669E+00  0.841906E+00  0.837181E+00
  0.827019E+00  0.812506E+00  0.793644E+00  0.769914E+00  0.739909E+00  0.707670E+00
  0.673858E+00  0.638140E+00  0.602147E+00  0.569726E+00  0.541865E+00  0.522091E+00
  0.509977E+00  0.506225E+00  0.512172E+00  0.525149E+00  0.546580E+00  0.573023E+00
  0.604459E+00  0.638142E+00  0.672556E+00  0.705466E+00  0.735427E+00  0.761160E+00
  0.784742E+00  0.803245E+00  0.816391E+00  0.825723E+00  0.832871E+00  0.835122E+00
  0.834525E+00  0.832219E+00  0.827849E+00  0.824588E+00  0.798988E+00  0.791559E+00
  0.786691E+00  0.782857E+00  0.781461E+00  0.783647E+00  0.786736E+00  0.793519E+00
  0.800872E+00  0.808842E+00  0.817075E+00  0.824034E+00  0.829778E+00  0.832244E+00
  0.832258E+00  0.827723E+00  0.819002E+00  0.804603E+00  0.788272E+00  0.766231E+00
  0.739328E+00  0.711973E+00  0.684389E+00  0.656569E+00  0.630473E+00  0.607567E+00
  0.590463E+00  0.580206E+00  0.576784E+00  0.580903E+00  0.591258E+00  0.608702E+00
  0.631264E+00  0.656837E+00  0.684005E+00  0.711203E+00  0.736670E+00  0.760596E+00
  0.780834E+00  0.799196E+00  0.811189E+00  0.819949E+00  0.825937E+00  0.826946E+00
  0.824247E+00  0.819707E+00  0.813348E+00  0.805707E+00  0.798988E+00  0.767261E+00
  0.757083E+00  0.749618E+00  0.744606E+00  0.743177E+00  0.745150E+00  0.749390E+00
  0.757016E+00  0.767351E+00  0.779142E+00  0.791136E+00  0.802502E+00  0.812062E+00
  0.819290E+00  0.823658E+00  0.824532E+00  0.822550E+00  0.813821E+00  0.802119E+00
  0.787401E+00  0.768602E+00  0.746695E+00  0.724998E+00  0.703481E+00  0.682565E+00
  0.666004E+00  0.651780E+00  0.643380E+00  0.640759E+00  0.643151E+00  0.652771E+00
  0.666273E+00  0.683833E+00  0.703532E+00  0.724274E+00  0.745875E+00  0.765228E+00
  0.783486E+00  0.798533E+00  0.810616E+00  0.817530E+00  0.821993E+00  0.822086E+00
  0.816325E+00  0.809436E+00  0.800601E+00  0.789796E+00  0.778560E+00  0.767261E+00
  0.728060E+00  0.715980E+00  0.705216E+00  0.698845E+00  0.697343E+00  0.699046E+00
  0.706176E+00  0.715746E+00  0.728829E+00  0.743773E+00  0.759163E+00  0.775850E+00
  0.790825E+00  0.803968E+00  0.813286E+00  0.818751E+00  0.821142E+00  0.819223E+00
  0.812889E+00  0.803349E+00  0.792338E+00  0.777097E+00  0.760494E+00  0.744132E+00
  0.728060E+00  0.715980E+00  0.705216E+00  0.698845E+00  0.697343E+00  0.699046E+00
  0.706176E+00  0.715746E+00  0.728829E+00  0.743773E+00  0.759163E+00  0.775850E+00
  0.790825E+00  0.803968E+00  0.813286E+00  0.818751E+00  0.821142E+00  0.819223E+00
  0.812889E+00  0.803349E+00  0.792338E+00  0.777097E+00  0.760494E+00  0.744132E+00
  0.728060E+00  0.682565E+00  0.666004E+00  0.651780E+00  0.643380E+00  0.640759E+00
  0.643151E+00  0.652771E+00  0.666273E+00  0.683833E+00  0.703532E+00  0.724274E+00
  0.745875E+00  0.765228E+00  0.783486E+00  0.798533E+00  0.810616E+00  0.817530E+00
  0.821993E+00  0.822086E+00  0.816325E+00  0.809436E+00  0.800601E+00  0.789796E+00
  0.778560E+00  0.767261E+00  0.757083E+00  0.749618E+00  0.744606E+00  0.743177E+00
  0.745150E+00  0.749390E+00  0.757016E+00  0.767351E+00  0.779142E+00  0.791136E+00
  0.802502E+00  0.812062E+00  0.819290E+00  0.823658E+00  0.824532E+00  0.822550E+00
  0.813821E+00  0.802119E+00  0.787401E+00  0.768602E+00  0.746695E+00  0.724998E+00
  0.703481E+00  0.682565E+00  0.630473E+00  0.607567E+00  0.590463E+00  0.580206E+00
  0.576784E+00  0.580903E+00  0.591258E+00  0.608702E+00  0.631264E+00  0.656837E+00
  0.684005E+00  0.711203E+00  0.736670E+00  0.760596E+00  0.780834E+00  0.799196E+00
  0.811189E+00  0.819949E+00  0.825937E+00  0.826946E+00  0.824247E+00  0.819707E+00
  0.813348E+00  0.805707E+00  0.798988E+00  0.791559E+00  0.786691E+00  0.782857E+00
  0.781461E+00  0.783647E+00  0.786736E+00  0.793519E+00  0.800872E+00  0.808842E+00
  0.817075E+00  0.824034E+00  0.829778E+00  0.832244E+00  0.832258E+00  0.827723E+00
  0.819002E+00  0.804603E+00  0.788272E+00  0.766231E+00  0.739328E+00  0.711973E+00
  0.684389E+00  0.656569E+00  0.630473E+00  0.569726E+00  0.541865E+00  0.522091E+00
  0.509977E+00  0.506225E+00  0.512172E+00  0.525149E+00  0.546580E+00  0.573023E+00
  0.604459E+00  0.638142E+00  0.672556E+00  0.705466E+00  0.735427E+00  0.761160E+00
  0.784742E+00  0.803245E+00  0.816391E+00  0.825723E+00  0.832871E+00  0.835122E+00
  0.834525E+00  0.832219E+00  0.827849E+00  0.824588E+00  0.820471E+00  0.817469E+00
  0.815488E+00  0.815276E+00  0.817151E+00  0.819330E+00  0.823958E+00  0.828749E+00
  0.833660E+00  0.838354E+00  0.841513E+00  0.843669E+00  0.841906E+00  0.837181E+00
  0.827019E+00  0.812506E+00  0.793644E+00  0.769914E+00  0.739909E+00  0.707670E+00
  0.673858E+00  0.638140E+00  0.602147E+00  0.569726E+00  0.502415E+00  0.470053E+00
  0.445620E+00  0.430773E+00  0.426841E+00  0.434205E+00  0.452140E+00  0.478835E+00
  0.511261E+00  0.549600E+00  0.589538E+00  0.630691E+00  0.670131E+00  0.707328E+00
  0.740119E+00  0.767623E+00  0.792066E+00  0.811457E+00  0.824418E+00  0.835151E+00
  0.841651E+00  0.845651E+00  0.847229E+00  0.846247E+00  0.845043E+00  0.843576E+00
  0.842215E+00  0.841157E+00  0.841137E+00  0.842615E+00  0.844663E+00  0.847357E+00
  0.850729E+00  0.853519E+00  0.856232E+00  0.856370E+00  0.854315E+00  0.848456E+00
  0.838735E+00  0.823893E+00  0.804679E+00  0.780009E+00  0.747851E+00  0.711373E+00
  0.673089E+00  0.629544E+00  0.584875E+00  0.541510E+00  0.502415E+00  0.431086E+00
  0.392331E+00  0.361767E+00  0.343632E+00  0.339397E+00  0.348413E+00  0.371055E+00
  0.403831E+00  0.444837E+00  0.490905E+00  0.538662E+00  0.587398E+00  0.633719E+00
  0.678084E+00  0.717991E+00  0.750394E+00  0.778637E+00  0.803221E+00  0.821500E+00
  0.836131E+00  0.846118E+00  0.853138E+00  0.857471E+00  0.860077E+00  0.861179E+00
  0.861880E+00  0.861772E+00  0.861837E+00  0.862557E+00  0.863818E+00  0.865860E+00
  0.867384E+00  0.869769E+00  0.870438E+00  0.870255E+00  0.866992E+00  0.861608E+00
  0.852666E+00  0.838514E+00  0.819015E+00  0.793892E+00  0.762014E+00  0.724021E+00
  0.681918E+00  0.634482E+00  0.581506E+00  0.528347E+00  0.477474E+00  0.431086E+00
  0.357574E+00  0.310691E+00  0.275138E+00  0.254719E+00  0.250241E+00  0.261367E+00
  0.287626E+00  0.326357E+00  0.375962E+00  0.430400E+00  0.487721E+00  0.544732E+00
  0.598124E+00  0.647340E+00  0.693339E+00  0.733602E+00  0.766205E+00  0.794504E+00
  0.816703E+00  0.834567E+00  0.848607E+00  0.858372E+00  0.865039E+00  0.870265E+00
  0.873123E+00  0.875720E+00  0.877030E+00  0.878605E+00  0.880280E+00  0.881257E+00
  0.883018E+00  0.883203E+00  0.883754E+00  0.882846E+00  0.880412E+00  0.875166E+00
  0.866976E+00  0.854151E+00  0.836259E+00  0.812723E+00  0.782391E+00  0.744326E+00
  0.700523E+00  0.650546E+00  0.592354E+00  0.531697E+00  0.470919E+00  0.412161E+00
  0.357574E+00  0.283395E+00  0.229389E+00  0.190507E+00  0.168528E+00  0.164208E+00
  0.177846E+00  0.207738E+00  0.251823E+00  0.307996E+00  0.370452E+00  0.436427E+00
  0.501561E+00  0.563671E+00  0.619335E+00  0.670907E+00  0.716740E+00  0.753255E+00
  0.785529E+00  0.811520E+00  0.831563E+00  0.848934E+00  0.861638E+00  0.870516E+00
  0.877937E+00  0.882420E+00  0.886574E+00  0.889229E+00  0.891144E+00  0.892512E+00
  0.893353E+00  0.895205E+00  0.895174E+00  0.894545E+00  0.892344E+00  0.888258E+00
  0.881591E+00  0.870597E+00  0.854296E+00  0.832990E+00  0.805054E+00  0.769455E+00
  0.726283E+00  0.676381E+00  0.618870E+00  0.552288E+00  0.483648E+00  0.414495E+00
  0.346777E+00  0.283395E+00  0.213245E+00  0.154306E+00  0.112094E+00  0.881034E-01
  0.839587E-01  0.999890E-01  0.134317E+00  0.184134E+00  0.246004E+00  0.315765E+00
  0.389366E+00  0.462480E+00  0.532109E+00  0.593782E+00  0.650025E+00  0.700149E+00
  0.741302E+00  0.776636E+00  0.807005E+00  0.829640E+00  0.848344E+00  0.863142E+00
  0.873775E+00  0.883340E+00  0.889423E+00  0.894368E+00  0.897858E+00  0.900687E+00
  0.903049E+00  0.904205E+00  0.905360E+00  0.904914E+00  0.903871E+00  0.900514E+00
  0.894438E+00  0.885134E+00  0.871530E+00  0.853583E+00  0.829185E+00  0.797896E+00
  0.757769E+00  0.709818E+00  0.653788E+00  0.588381E+00  0.515044E+00  0.439442E+00
  0.362266E+00  0.284718E+00  0.213245E+00  0.153067E+00  0.896193E-01  0.435107E-01
  0.172661E-01  0.126394E-01  0.304706E-01  0.694429E-01  0.125433E+00  0.193543E+00
  0.269482E+00  0.349162E+00  0.429064E+00  0.504808E+00  0.571877E+00  0.632161E+00
  0.686607E+00  0.732390E+00  0.768693E+00  0.801416E+00  0.826773E+00  0.847478E+00
  0.864808E+00  0.876571E+00  0.886963E+00  0.893881E+00  0.900088E+00  0.904455E+00
  0.907634E+00  0.910299E+00  0.911465E+00  0.912493E+00  0.911271E+00  0.909243E+00
  0.904804E+00  0.898178E+00  0.888069E+00  0.872791E+00  0.852977E+00  0.825021E+00
  0.790815E+00  0.747268E+00  0.695396E+00  0.634412E+00  0.562229E+00  0.483133E+00
  0.401371E+00  0.316420E+00  0.230605E+00  0.153067E+00  0.106399E+00  0.388188E-01
 -0.107416E-01 -0.397135E-01 -0.456043E-01 -0.260665E-01  0.173373E-01  0.786955E-01
  0.152875E+00  0.234020E+00  0.318254E+00  0.402563E+00  0.483771E+00  0.556243E+00
  0.619166E+00  0.675459E+00  0.724415E+00  0.763386E+00  0.797815E+00  0.824603E+00
  0.846406E+00  0.865115E+00  0.877876E+00  0.889384E+00  0.897169E+00  0.903959E+00
  0.908780E+00  0.912166E+00  0.914937E+00  0.916214E+00  0.917268E+00  0.915811E+00
  0.913753E+00  0.908683E+00  0.901080E+00  0.889848E+00  0.872983E+00  0.851603E+00
  0.822147E+00  0.785482E+00  0.739073E+00  0.683965E+00  0.618552E+00  0.542177E+00
  0.459315E+00  0.372096E+00  0.279859E+00  0.188376E+00  0.106399E+00  0.767576E-01
  0.671576E-02 -0.457223E-01 -0.774067E-01 -0.839323E-01 -0.632795E-01 -0.170135E-01
  0.482200E-01  0.126989E+00  0.211832E+00  0.299586E+00  0.386358E+00  0.470477E+00
  0.545757E+00  0.610660E+00  0.668801E+00  0.719382E+00  0.760141E+00  0.795503E+00
  0.823646E+00  0.845635E+00  0.864808E+00  0.878431E+00  0.890565E+00  0.899161E+00
  0.905806E+00  0.911027E+00  0.914997E+00  0.917978E+00  0.919493E+00  0.920136E+00
  0.918591E+00  0.916455E+00  0.911002E+00  0.902717E+00  0.890417E+00  0.872995E+00
  0.850451E+00  0.820459E+00  0.782294E+00  0.734235E+00  0.677330E+00  0.608728E+00
  0.529517E+00  0.443719E+00  0.353136E+00  0.256512E+00  0.161682E+00  0.767576E-01
  0.666267E-01 -0.418130E-02 -0.579878E-01 -0.907489E-01 -0.971259E-01 -0.762580E-01
 -0.292916E-01  0.373933E-01  0.117817E+00  0.203746E+00  0.292839E+00  0.380664E+00
  0.465796E+00  0.541997E+00  0.608265E+00  0.667890E+00  0.718497E+00  0.758503E+00
  0.793527E+00  0.822715E+00  0.845263E+00  0.865026E+00  0.878973E+00  0.890794E+00
  0.899726E+00  0.906642E+00  0.912268E+00  0.916106E+00  0.918462E+00  0.919900E+00
  0.920607E+00  0.919163E+00  0.916503E+00  0.910764E+00  0.902895E+00  0.890988E+00
  0.873961E+00  0.850516E+00  0.819498E+00  0.780371E+00  0.731728E+00  0.674659E+00
  0.605612E+00  0.525665E+00  0.438527E+00  0.346768E+00  0.248724E+00  0.152625E+00
  0.666267E-01  0.767576E-01  0.671576E-02 -0.457223E-01 -0.774067E-01 -0.839323E-01
 -0.632795E-01 -0.170135E-01  0.482200E-01  0.126989E+00  0.211832E+00  0.299586E+00
  0.386358E+00  0.470477E+00  0.545757E+00  0.610660E+00  0.668801E+00  0.719382E+00
  0.760141E+00  0.795503E+00  0.823646E+00  0.845635E+00  0.864808E+00  0.878431E+00
  0.890565E+00  0.899161E+00  0.905806E+00  0.911027E+00  0.914997E+00  0.917978E+00
  0.919493E+00  0.920136E+00  0.918591E+00  0.916455E+00  0.911002E+00  0.902717E+00
  0.890417E+00  0.872995E+00  0.850451E+00  0.820459E+00  0.782294E+00  0.734235E+00
  0.677330E+00  0.608728E+00  0.529517E+00  0.443719E+00  0.353136E+00  0.256512E+00
  0.161682E+00  0.767576E-01  0.106399E+00  0.388188E-01 -0.107416E-01 -0.397135E-01
 -0.456043E-01 -0.260665E-01  0.173373E-01  0.786955E-01  0.152875E+00  0.234020E+00
  0.318254E+00  0.402563E+00  0.483771E+00  0.556243E+00  0.619166E+00  0.675459E+00
  0.724415E+00  0.763386E+00  0.797815E+00  0.824603E+00  0.846406E+00  0.865115E+00
  0.877876E+00  0.889384E+00  0.897169E+00  0.903959E+00  0.908780E+00  0.912166E+00
  0.914937E+00  0.916214E+00  0.917268E+00  0.915811E+00  0.913753E+00  0.908683E+00
  0.901080E+00  0.889848E+00  0.872983E+00  0.851603E+00  0.822147E+00  0.785482E+00
  0.739073E+00  0.683965E+00  0.618552E+00  0.542177E+00  0.459315E+00  0.372096E+00
  0.279859E+00  0.188376E+00  0.106399E+00  0.153067E+00  0.896193E-01  0.435107E-01
  0.172661E-01  0.126394E-01  0.304706E-01  0.694429E-01  0.125433E+00  0.193543E+00
  0.269482E+00  0.349162E+00  0.429064E+00  0.504808E+00  0.571877E+00  0.632161E+00
  0.686607E+00  0.732390E+00  0.768693E+00  0.801416E+00  0.826773E+00  0.847478E+00
  0.864808E+00  0.876571E+00  0.886963E+00  0.893881E+00  0.900088E+00  0.904455E+00
  0.907634E+00  0.910299E+00  0.911465E+00  0.912493E+00  0.911271E+00  0.909243E+00
  0.904804E+00  0.898178E+00  0.888069E+00  0.872791E+00  0.852977E+00  0.825021E+00
  0.790815E+00  0.747268E+00  0.695396E+00  0.634412E+00  0.562229E+00  0.483133E+00
  0.401371E+00  0.316420E+00  0.230605E+00  0.153067E+00  0.213245E+00  0.154306E+00
  0.112094E+00  0.881034E-01  0.839587E-01  0.999890E-01  0.134317E+00  0.184134E+00
  0.246004E+00  0.315765E+00  0.389366E+00  0.462480E+00  0.532109E+00  0.593782E+00
  0.650025E+00  0.700149E+00  0.741302E+00  0.776636E+00  0.807005E+00  0.829640E+00
  0.848344E+00  0.863142E+00  0.873775E+00  0.883340E+00  0.889423E+00  0.894368E+00
  0.897858E+00  0.900687E+00  0.903049E+00  0.904205E+00  0.905360E+00  0.904914E+00
  0.903871E+00  0.900514E+00  0.894438E+00  0.885134E+00  0.871530E+00  0.853583E+00
  0.829185E+00  0.797896E+00  0.757769E+00  0.709818E+00  0.653788E+00  0.588381E+00
  0.515044E+00  0.439442E+00  0.362266E+00  0.284718E+00  0.213245E+00  0.283395E+00
  0.229389E+00  0.190507E+00  0.168528E+00  0.164208E+00  0.177846E+00  0.207738E+00
  0.251823E+00  0.307996E+00  0.370452E+00  0.436427E+00  0.501561E+00  0.563671E+00
  0.619335E+00  0.670907E+00  0.716740E+00  0.753255E+00  0.785529E+00  0.811520E+00
  0.831563E+00  0.848934E+00  0.861638E+00  0.870516E+00  0.877937E+00  0.882420E+00
  0.886574E+00  0.889229E+00  0.891144E+00  0.892512E+00  0.893353E+00  0.895205E+00
  0.895174E+00  0.894545E+00  0.892344E+00  0.888258E+00  0.881591E+00  0.870597E+00
  0.854296E+00  0.832990E+00  0.805054E+00  0.769455E+00  0.726283E+00  0.676381E+00
  0.618870E+00  0.552288E+00  0.483648E+00  0.414495E+00  0.346777E+00  0.283395E+00
  0.357574E+00  0.310691E+00  0.275138E+00  0.254719E+00  0.250241E+00  0.261367E+00
  0.287626E+00  0.326357E+00  0.375962E+00  0.430400E+00  0.487721E+00  0.544732E+00
  0.598124E+00  0.647340E+00  0.693339E+00  0.733602E+00  0.766205E+00  0.794504E+00
  0.816703E+00  0.834567E+00  0.848607E+00  0.858372E+00  0.865039E+00  0.870265E+00
  0.873123E+00  0.875720E+00  0.877030E+00  0.878605E+00  0.880280E+00  0.881257E+00
  0.883018E+00  0.883203E+00  0.883754E+00  0.882846E+00  0.880412E+00  0.875166E+00
  0.866976E+00  0.854151E+00  0.836259E+00  0.812723E+00  0.782391E+00  0.744326E+00
  0.700523E+00  0.650546E+00  0.592354E+00  0.531697E+00  0.470919E+00  0.412161E+00
  0.357574E+00  0.431086E+00  0.392331E+00  0.361767E+00  0.343632E+00  0.339397E+00
  0.348413E+00  0.371055E+00  0.403831E+00  0.444837E+00  0.490905E+00  0.538662E+00
  0.587398E+00  0.633719E+00  0.678084E+00  0.717991E+00  0.750394E+00  0.778637E+00
  0.803221E+00  0.821500E+00  0.836131E+00  0.846118E+00  0.853138E+00  0.857471E+00
  0.860077E+00  0.861179E+00  0.861880E+00  0.861772E+00  0.861837E+00  0.862557E+00
  0.863818E+00  0.865860E+00  0.867384E+00  0.869769E+00  0.870438E+00  0.870255E+00
  0.866992E+00  0.861608E+00  0.852666E+00  0.838514E+00  0.819015E+00  0.793892E+00
  0.762014E+00  0.724021E+00  0.681918E+00  0.634482E+00  0.581506E+00  0.528347E+00
  0.477474E+00  0.431086E+00  0.502415E+00  0.470053E+00  0.445620E+00  0.430773E+00
  0.426841E+00  0.434205E+00  0.452140E+00  0.478835E+00  0.511261E+00  0.549600E+00
  0.589538E+00  0.630691E+00  0.670131E+00  0.707328E+00  0.740119E+00  0.767623E+00
  0.792066E+00  0.811457E+00  0.824418E+00  0.835151E+00  0.841651E+00  0.845651E+00
  0.847229E+00  0.846247E+00  0.845043E+00  0.843576E+00  0.842215E+00  0.841157E+00
  0.841137E+00  0.842615E+00  0.844663E+00  0.847357E+00  0.850729E+00  0.853519E+00
  0.856232E+00  0.856370E+00  0.854315E+00  0.848456E+00  0.838735E+00  0.823893E+00
  0.804679E+00  0.780009E+00  0.747851E+00  0.711373E+00  0.673089E+00  0.629544E+00
  0.584875E+00  0.541510E+00  0.502415E+00  0.569726E+00  0.541865E+00  0.522091E+00
  0.509977E+00  0.506225E+00  0.512172E+00  0.525149E+00  0.546580E+00  0.573023E+00
  0.604459E+00  0.638142E+00  0.672556E+00  0.705466E+00  0.735427E+00  0.761160E+00
  0.784742E+00  0.803245E+00  0.816391E+00  0.825723E+00  0.832871E+00  0.835122E+00
  0.834525E+00  0.832219E+00  0.827849E+00  0.824588E+00  0.820471E+00  0.817469E+00
  0.815488E+00  0.815276E+00  0.817151E+00  0.819330E+00  0.823958E+00  0.828749E+00
  0.833660E+00  0.838354E+00  0.841513E+00  0.843669E+00  0.841906E+00  0.837181E+00
  0.827019E+00  0.812506E+00  0.793644E+00  0.769914E+00  0.739909E+00  0.707670E+00
  0.673858E+00  0.638140E+00  0.602147E+00  0.569726E+00  0.630473E+00  0.607567E+00
  0.590463E+00  0.580206E+00  0.576784E+00  0.580903E+00  0.591258E+00  0.608702E+00
  0.631264E+00  0.656837E+00  0.684005E+00  0.711203E+00  0.736670E+00  0.760596E+00
  0.780834E+00  0.799196E+00  0.811189E+00  0.819949E+00  0.825937E+00  0.826946E+00
  0.824247E+00  0.819707E+00  0.813348E+00  0.805707E+00  0.798988E+00  0.791559E+00
  0.786691E+00  0.782857E+00  0.781461E+00  0.783647E+00  0.786736E+00  0.793519E+00
  0.800872E+00  0.808842E+00  0.817075E+00  0.824034E+00  0.829778E+00  0.832244E+00
  0.832258E+00  0.827723E+00  0.819002E+00  0.804603E+00  0.788272E+00  0.766231E+00
  0.739328E+00  0.711973E+00  0.684389E+00  0.656569E+00  0.630473E+00  0.682565E+00
  0.666004E+00  0.651780E+00  0.643380E+00  0.640759E+00  0.643151E+00  0.652771E+00
  0.666273E+00  0.683833E+00  0.703532E+00  0.724274E+00  0.745875E+00  0.765228E+00
  0.783486E+00  0.798533E+00  0.810616E+00  0.817530E+00  0.821993E+00  0.822086E+00
  0.816325E+00  0.809436E+00  0.800601E+00  0.789796E+00  0.778560E+00  0.767261E+00
  0.757083E+00  0.749618E+00  0.744606E+00  0.743177E+00  0.745150E+00  0.749390E+00
  0.757016E+00  0.767351E+00  0.779142E+00  0.791136E+00  0.802502E+00  0.812062E+00
  0.819290E+00  0.823658E+00  0.824532E+00  0.822550E+00  0.813821E+00  0.802119E+00
  0.787401E+00  0.768602E+00  0.746695E+00  0.724998E+00  0.703481E+00  0.682565E+00
  0.728060E+00  0.715980E+00  0.705216E+00  0.698845E+00  0.697343E+00  0.699046E+00
  0.706176E+00  0.715746E+00  0.728829E+00  0.743773E+00  0.759163E+00  0.775850E+00
  0.790825E+00  0.803968E+00  0.813286E+00  0.818751E+00  0.821142E+00  0.819223E+00
  0.812889E+00  0.803349E+00  0.792338E+00  0.777097E+00  0.760494E+00  0.744132E+00
  0.728060E+00  0.715980E+00  0.705216E+00  0.698845E+00  0.697343E+00  0.699046E+00
  0.706176E+00  0.715746E+00  0.728829E+00  0.743773E+00  0.759163E+00  0.775850E+00
  0.790825E+00  0.803968E+00  0.813286E+00  0.818751E+00  0.821142E+00  0.819223E+00
  0.812889E+00  0.803349E+00  0.792338E+00  0.777097E+00  0.760494E+00  0.744132E+00
  0.728060E+00
END_DATAGRID_3D
END_BLOCK_DATAGRID_3D
     Plot Type: 3D                     Output format: XCrySDen     

     POST-PROC    :      1.63s CPU      1.38s WALL


   This run was terminated on:  22:55:58  26May2026            

=------------------------------------------------------------------------------=
   JOB DONE.
=------------------------------------------------------------------------------=
