
     Program POST-PROC v.6.7MaX starts on 26May2026 at 22:58:36 

     This program is part of the open-source Quantum ESPRESSO suite
     for quantum simulation of materials; please cite
         "P. Giannozzi et al., J. Phys.:Condens. Matter 21 395502 (2009);
         "P. Giannozzi et al., J. Phys.:Condens. Matter 29 465901 (2017);
          URL http://www.quantum-espresso.org", 
     in publications or presentations arising from this work. More details at
     http://www.quantum-espresso.org/quote

     Parallel version (MPI), running on     1 processors

     MPI processes distributed on     1 nodes

     Reading xml data from directory:

     ./tmp/SnSe_monolayer.save/

     IMPORTANT: XC functional enforced from input :
     Exchange-correlation= PBE
                           (   1   4   3   4   0   0   0)
     Any further DFT definition will be discarded
     Please, verify this is what you really want


     G-vector sticks info
     --------------------
     sticks:   dense  smooth     PW     G-vecs:    dense   smooth      PW
     Sum        1629     641    199               112585    28425    4715


     Calling punch_plot, plot_num =  11
     Writing data to file  potential_files/snse_mono_potential_C10.pp
     Reading data from file  potential_files/snse_mono_potential_C10.pp
 CRYSTAL
 PRIMVEC
    4.555500000    0.000000000    0.000000000
    0.000000000    4.171400000    0.000000000
    0.000000000    0.000000000   10.000000000
 PRIMCOORD
           4           1
Sn        0.453298954    3.128550000    3.609543411
Se        2.412287972    1.042850000    3.674241008
Se        0.134537972    3.128550000    6.325758993
Sn        2.731048954    1.042850000    6.390456589
BEGIN_BLOCK_DATAGRID_3D
3D_PWSCF
BEGIN_DATAGRID_3D_UNKNOWN
          49          49         109
  0.000000  0.000000  0.000000
    4.555500    0.000000    0.000000
    0.000000    4.171400    0.000000
    0.000000    0.000000   10.000000
  0.511147E+00  0.511000E+00  0.510890E+00  0.511065E+00  0.511059E+00  0.510971E+00
  0.511104E+00  0.510875E+00  0.511259E+00  0.511078E+00  0.511235E+00  0.510962E+00
  0.511142E+00  0.511035E+00  0.510955E+00  0.511049E+00  0.510838E+00  0.510934E+00
  0.510997E+00  0.511316E+00  0.510969E+00  0.511247E+00  0.510995E+00  0.511059E+00
  0.511147E+00  0.511000E+00  0.510890E+00  0.511065E+00  0.511059E+00  0.510971E+00
  0.511104E+00  0.510875E+00  0.511259E+00  0.511078E+00  0.511235E+00  0.510962E+00
  0.511142E+00  0.511035E+00  0.510955E+00  0.511049E+00  0.510838E+00  0.510934E+00
  0.510997E+00  0.511316E+00  0.510969E+00  0.511247E+00  0.510995E+00  0.511059E+00
  0.511147E+00  0.511083E+00  0.510960E+00  0.510861E+00  0.510945E+00  0.511038E+00
  0.510911E+00  0.510946E+00  0.510852E+00  0.511110E+00  0.511032E+00  0.511346E+00
  0.511013E+00  0.511167E+00  0.511042E+00  0.510926E+00  0.511163E+00  0.510946E+00
  0.511055E+00  0.511079E+00  0.511146E+00  0.511159E+00  0.511390E+00  0.510983E+00
  0.510995E+00  0.511151E+00  0.511248E+00  0.511176E+00  0.511138E+00  0.510953E+00
  0.510905E+00  0.511128E+00  0.510822E+00  0.511107E+00  0.510917E+00  0.510914E+00
  0.510950E+00  0.511147E+00  0.511157E+00  0.511057E+00  0.510967E+00  0.511024E+00
  0.511088E+00  0.510831E+00  0.510993E+00  0.510775E+00  0.511070E+00  0.510964E+00
  0.511108E+00  0.511083E+00  0.510958E+00  0.510913E+00  0.511073E+00  0.511065E+00
  0.511030E+00  0.510985E+00  0.511129E+00  0.511198E+00  0.511129E+00  0.510845E+00
  0.511088E+00  0.510866E+00  0.511061E+00  0.511365E+00  0.511064E+00  0.511069E+00
  0.511155E+00  0.511388E+00  0.511258E+00  0.510947E+00  0.510988E+00  0.511065E+00
  0.511154E+00  0.511208E+00  0.511113E+00  0.511173E+00  0.511060E+00  0.511021E+00
  0.511105E+00  0.511147E+00  0.511121E+00  0.510723E+00  0.510786E+00  0.510956E+00
  0.510945E+00  0.511016E+00  0.510866E+00  0.510731E+00  0.510806E+00  0.510772E+00
  0.510934E+00  0.510984E+00  0.510773E+00  0.510796E+00  0.511124E+00  0.511297E+00
  0.510824E+00  0.511016E+00  0.510958E+00  0.510971E+00  0.510837E+00  0.511127E+00
  0.511145E+00  0.510955E+00  0.510876E+00  0.511053E+00  0.511292E+00  0.511230E+00
  0.511019E+00  0.511115E+00  0.510888E+00  0.510838E+00  0.511263E+00  0.510934E+00
  0.510887E+00  0.511151E+00  0.511235E+00  0.511292E+00  0.511397E+00  0.511379E+00
  0.511230E+00  0.511454E+00  0.511259E+00  0.511252E+00  0.511312E+00  0.511276E+00
  0.511183E+00  0.511141E+00  0.511202E+00  0.511162E+00  0.511184E+00  0.510990E+00
  0.511043E+00  0.510998E+00  0.511056E+00  0.510932E+00  0.510834E+00  0.511039E+00
  0.510910E+00  0.510761E+00  0.510755E+00  0.510893E+00  0.510678E+00  0.510909E+00
  0.510888E+00  0.510535E+00  0.511019E+00  0.510971E+00  0.510733E+00  0.510701E+00
  0.510931E+00  0.511032E+00  0.510859E+00  0.510689E+00  0.510959E+00  0.511182E+00
  0.510907E+00  0.510838E+00  0.510942E+00  0.511116E+00  0.511055E+00  0.511116E+00
  0.511086E+00  0.511230E+00  0.511377E+00  0.511222E+00  0.511188E+00  0.511455E+00
  0.511307E+00  0.511309E+00  0.511539E+00  0.511255E+00  0.511430E+00  0.511385E+00
  0.511435E+00  0.511392E+00  0.511211E+00  0.511239E+00  0.511050E+00  0.511219E+00
  0.511099E+00  0.510932E+00  0.510887E+00  0.510889E+00  0.510965E+00  0.510867E+00
  0.510904E+00  0.510801E+00  0.510692E+00  0.510692E+00  0.510812E+00  0.510605E+00
  0.510717E+00  0.510632E+00  0.510637E+00  0.510924E+00  0.510733E+00  0.510600E+00
  0.510667E+00  0.510682E+00  0.510874E+00  0.510800E+00  0.510524E+00  0.510836E+00
  0.511040E+00  0.510695E+00  0.510810E+00  0.510816E+00  0.511152E+00  0.511174E+00
  0.511064E+00  0.511280E+00  0.511166E+00  0.511254E+00  0.511474E+00  0.511241E+00
  0.511309E+00  0.511301E+00  0.511494E+00  0.511588E+00  0.511389E+00  0.511277E+00
  0.511234E+00  0.511273E+00  0.511332E+00  0.511349E+00  0.511411E+00  0.511324E+00
  0.511056E+00  0.510995E+00  0.510763E+00  0.510810E+00  0.510817E+00  0.510892E+00
  0.510802E+00  0.510756E+00  0.510786E+00  0.510844E+00  0.510793E+00  0.510581E+00
  0.510600E+00  0.510751E+00  0.510392E+00  0.510569E+00  0.510738E+00  0.510600E+00
  0.510529E+00  0.510688E+00  0.510684E+00  0.510810E+00  0.510752E+00  0.510606E+00
  0.510880E+00  0.511032E+00  0.510754E+00  0.510864E+00  0.510856E+00  0.511168E+00
  0.511191E+00  0.511293E+00  0.511525E+00  0.511271E+00  0.511426E+00  0.511626E+00
  0.511310E+00  0.511398E+00  0.511572E+00  0.511502E+00  0.511290E+00  0.511479E+00
  0.511369E+00  0.511606E+00  0.511327E+00  0.511274E+00  0.511355E+00  0.511068E+00
  0.511393E+00  0.511060E+00  0.511213E+00  0.511105E+00  0.511091E+00  0.510951E+00
  0.510835E+00  0.510925E+00  0.510852E+00  0.510726E+00  0.510662E+00  0.510647E+00
  0.510578E+00  0.510697E+00  0.510845E+00  0.510507E+00  0.510713E+00  0.510700E+00
  0.510529E+00  0.510430E+00  0.510682E+00  0.510707E+00  0.510674E+00  0.510707E+00
  0.510811E+00  0.510917E+00  0.511000E+00  0.510991E+00  0.511046E+00  0.511092E+00
  0.511309E+00  0.511144E+00  0.511306E+00  0.511209E+00  0.511158E+00  0.511470E+00
  0.511469E+00  0.511526E+00  0.511575E+00  0.511538E+00  0.511452E+00  0.511371E+00
  0.511677E+00  0.511538E+00  0.511725E+00  0.511346E+00  0.511448E+00  0.511726E+00
  0.511232E+00  0.511400E+00  0.511044E+00  0.511211E+00  0.511226E+00  0.511052E+00
  0.510680E+00  0.510465E+00  0.510789E+00  0.510764E+00  0.510689E+00  0.510680E+00
  0.510632E+00  0.510771E+00  0.510544E+00  0.510565E+00  0.510647E+00  0.510837E+00
  0.510638E+00  0.510430E+00  0.510639E+00  0.510798E+00  0.510754E+00  0.510631E+00
  0.510632E+00  0.510718E+00  0.510732E+00  0.510876E+00  0.511212E+00  0.511272E+00
  0.511203E+00  0.511249E+00  0.511056E+00  0.511370E+00  0.511242E+00  0.511223E+00
  0.511363E+00  0.511389E+00  0.511671E+00  0.511598E+00  0.511495E+00  0.511511E+00
  0.511625E+00  0.511611E+00  0.511556E+00  0.511701E+00  0.511634E+00  0.511511E+00
  0.511448E+00  0.511271E+00  0.511308E+00  0.511305E+00  0.511291E+00  0.511211E+00
  0.510941E+00  0.510762E+00  0.510665E+00  0.510742E+00  0.510658E+00  0.510672E+00
  0.510758E+00  0.510597E+00  0.510805E+00  0.510551E+00  0.510512E+00  0.510502E+00
  0.510451E+00  0.510581E+00  0.510639E+00  0.510423E+00  0.510420E+00  0.510574E+00
  0.510648E+00  0.510735E+00  0.510874E+00  0.510984E+00  0.510882E+00  0.510851E+00
  0.510758E+00  0.510905E+00  0.511182E+00  0.511157E+00  0.511323E+00  0.511486E+00
  0.511629E+00  0.511611E+00  0.511621E+00  0.511525E+00  0.511493E+00  0.511651E+00
  0.511517E+00  0.511760E+00  0.511480E+00  0.511558E+00  0.511576E+00  0.511600E+00
  0.511395E+00  0.511197E+00  0.511343E+00  0.511194E+00  0.511376E+00  0.511146E+00
  0.511150E+00  0.510882E+00  0.511007E+00  0.511013E+00  0.510681E+00  0.510644E+00
  0.510614E+00  0.510677E+00  0.510594E+00  0.510676E+00  0.510612E+00  0.510680E+00
  0.510665E+00  0.510475E+00  0.510563E+00  0.510423E+00  0.510456E+00  0.510528E+00
  0.510641E+00  0.510637E+00  0.510801E+00  0.510837E+00  0.510878E+00  0.510824E+00
  0.510888E+00  0.510845E+00  0.511017E+00  0.511091E+00  0.511193E+00  0.511146E+00
  0.511356E+00  0.511501E+00  0.511536E+00  0.511687E+00  0.511479E+00  0.511420E+00
  0.511623E+00  0.511473E+00  0.511874E+00  0.511512E+00  0.511534E+00  0.511606E+00
  0.511529E+00  0.511395E+00  0.511317E+00  0.511476E+00  0.511277E+00  0.511305E+00
  0.510938E+00  0.511167E+00  0.510936E+00  0.510938E+00  0.510788E+00  0.510538E+00
  0.510680E+00  0.510582E+00  0.510542E+00  0.510655E+00  0.510613E+00  0.510556E+00
  0.510375E+00  0.510439E+00  0.510457E+00  0.510568E+00  0.510456E+00  0.510584E+00
  0.510723E+00  0.510761E+00  0.510598E+00  0.510747E+00  0.510702E+00  0.510761E+00
  0.510858E+00  0.511042E+00  0.511022E+00  0.511288E+00  0.511072E+00  0.511216E+00
  0.511211E+00  0.511386E+00  0.511385E+00  0.511458E+00  0.511593E+00  0.511542E+00
  0.511444E+00  0.511670E+00  0.511474E+00  0.511651E+00  0.511664E+00  0.511636E+00
  0.511699E+00  0.511548E+00  0.511450E+00  0.511470E+00  0.511449E+00  0.511274E+00
  0.511275E+00  0.511093E+00  0.511254E+00  0.511096E+00  0.510975E+00  0.510611E+00
  0.510649E+00  0.510623E+00  0.510494E+00  0.510467E+00  0.510562E+00  0.510388E+00
  0.510556E+00  0.510373E+00  0.510364E+00  0.510379E+00  0.510591E+00  0.510584E+00
  0.510359E+00  0.510436E+00  0.510601E+00  0.510518E+00  0.510726E+00  0.510802E+00
  0.510988E+00  0.510965E+00  0.510846E+00  0.510731E+00  0.511315E+00  0.511198E+00
  0.511274E+00  0.511183E+00  0.511333E+00  0.511351E+00  0.511494E+00  0.511533E+00
  0.511558E+00  0.511549E+00  0.511914E+00  0.511617E+00  0.511522E+00  0.511846E+00
  0.511722E+00  0.511529E+00  0.511345E+00  0.511474E+00  0.511765E+00  0.511664E+00
  0.511306E+00  0.511198E+00  0.511124E+00  0.511125E+00  0.511028E+00  0.510984E+00
  0.510604E+00  0.510804E+00  0.510619E+00  0.510554E+00  0.510623E+00  0.510568E+00
  0.510162E+00  0.510472E+00  0.510536E+00  0.510583E+00  0.510490E+00  0.510568E+00
  0.510359E+00  0.510584E+00  0.510723E+00  0.510761E+00  0.510598E+00  0.510747E+00
  0.510702E+00  0.510761E+00  0.510858E+00  0.511042E+00  0.511022E+00  0.511288E+00
  0.511072E+00  0.511216E+00  0.511211E+00  0.511386E+00  0.511385E+00  0.511458E+00
  0.511593E+00  0.511542E+00  0.511444E+00  0.511670E+00  0.511474E+00  0.511651E+00
  0.511664E+00  0.511636E+00  0.511699E+00  0.511548E+00  0.511450E+00  0.511470E+00
  0.511449E+00  0.511274E+00  0.511275E+00  0.511093E+00  0.511254E+00  0.511096E+00
  0.510975E+00  0.510611E+00  0.510649E+00  0.510623E+00  0.510494E+00  0.510467E+00
  0.510562E+00  0.510388E+00  0.510556E+00  0.510373E+00  0.510364E+00  0.510379E+00
  0.510591E+00  0.510584E+00  0.510456E+00  0.510528E+00  0.510641E+00  0.510637E+00
  0.510801E+00  0.510837E+00  0.510878E+00  0.510824E+00  0.510888E+00  0.510845E+00
  0.511017E+00  0.511091E+00  0.511193E+00  0.511146E+00  0.511356E+00  0.511501E+00
  0.511536E+00  0.511687E+00  0.511479E+00  0.511420E+00  0.511623E+00  0.511473E+00
  0.511874E+00  0.511512E+00  0.511534E+00  0.511606E+00  0.511529E+00  0.511395E+00
  0.511317E+00  0.511476E+00  0.511277E+00  0.511305E+00  0.510938E+00  0.511167E+00
  0.510936E+00  0.510938E+00  0.510788E+00  0.510538E+00  0.510680E+00  0.510582E+00
  0.510542E+00  0.510655E+00  0.510613E+00  0.510556E+00  0.510375E+00  0.510439E+00
  0.510457E+00  0.510568E+00  0.510456E+00  0.510423E+00  0.510420E+00  0.510574E+00
  0.510648E+00  0.510735E+00  0.510874E+00  0.510984E+00  0.510882E+00  0.510851E+00
  0.510758E+00  0.510905E+00  0.511182E+00  0.511157E+00  0.511323E+00  0.511486E+00
  0.511629E+00  0.511611E+00  0.511621E+00  0.511525E+00  0.511493E+00  0.511651E+00
  0.511517E+00  0.511760E+00  0.511480E+00  0.511558E+00  0.511576E+00  0.511600E+00
  0.511395E+00  0.511197E+00  0.511343E+00  0.511194E+00  0.511376E+00  0.511146E+00
  0.511150E+00  0.510882E+00  0.511007E+00  0.511013E+00  0.510681E+00  0.510644E+00
  0.510614E+00  0.510677E+00  0.510594E+00  0.510676E+00  0.510612E+00  0.510680E+00
  0.510665E+00  0.510475E+00  0.510563E+00  0.510423E+00  0.510639E+00  0.510798E+00
  0.510754E+00  0.510631E+00  0.510632E+00  0.510718E+00  0.510732E+00  0.510876E+00
  0.511212E+00  0.511272E+00  0.511203E+00  0.511249E+00  0.511056E+00  0.511370E+00
  0.511242E+00  0.511223E+00  0.511363E+00  0.511389E+00  0.511671E+00  0.511598E+00
  0.511495E+00  0.511511E+00  0.511625E+00  0.511611E+00  0.511556E+00  0.511701E+00
  0.511634E+00  0.511511E+00  0.511448E+00  0.511271E+00  0.511308E+00  0.511305E+00
  0.511291E+00  0.511211E+00  0.510941E+00  0.510762E+00  0.510665E+00  0.510742E+00
  0.510658E+00  0.510672E+00  0.510758E+00  0.510597E+00  0.510805E+00  0.510551E+00
  0.510512E+00  0.510502E+00  0.510451E+00  0.510581E+00  0.510639E+00  0.510430E+00
  0.510682E+00  0.510707E+00  0.510674E+00  0.510707E+00  0.510811E+00  0.510917E+00
  0.511000E+00  0.510991E+00  0.511046E+00  0.511092E+00  0.511309E+00  0.511144E+00
  0.511306E+00  0.511209E+00  0.511158E+00  0.511470E+00  0.511469E+00  0.511526E+00
  0.511575E+00  0.511538E+00  0.511452E+00  0.511371E+00  0.511677E+00  0.511538E+00
  0.511725E+00  0.511346E+00  0.511448E+00  0.511726E+00  0.511232E+00  0.511400E+00
  0.511044E+00  0.511211E+00  0.511226E+00  0.511052E+00  0.510680E+00  0.510465E+00
  0.510789E+00  0.510764E+00  0.510689E+00  0.510680E+00  0.510632E+00  0.510771E+00
  0.510544E+00  0.510565E+00  0.510647E+00  0.510837E+00  0.510638E+00  0.510430E+00
  0.510529E+00  0.510688E+00  0.510684E+00  0.510810E+00  0.510752E+00  0.510606E+00
  0.510880E+00  0.511032E+00  0.510754E+00  0.510864E+00  0.510856E+00  0.511168E+00
  0.511191E+00  0.511293E+00  0.511525E+00  0.511271E+00  0.511426E+00  0.511626E+00
  0.511310E+00  0.511398E+00  0.511572E+00  0.511502E+00  0.511290E+00  0.511479E+00
  0.511369E+00  0.511606E+00  0.511327E+00  0.511274E+00  0.511355E+00  0.511068E+00
  0.511393E+00  0.511060E+00  0.511213E+00  0.511105E+00  0.511091E+00  0.510951E+00
  0.510835E+00  0.510925E+00  0.510852E+00  0.510726E+00  0.510662E+00  0.510647E+00
  0.510578E+00  0.510697E+00  0.510845E+00  0.510507E+00  0.510713E+00  0.510700E+00
  0.510529E+00  0.510600E+00  0.510667E+00  0.510682E+00  0.510874E+00  0.510800E+00
  0.510524E+00  0.510836E+00  0.511040E+00  0.510695E+00  0.510810E+00  0.510816E+00
  0.511152E+00  0.511174E+00  0.511064E+00  0.511280E+00  0.511166E+00  0.511254E+00
  0.511474E+00  0.511241E+00  0.511309E+00  0.511301E+00  0.511494E+00  0.511588E+00
  0.511389E+00  0.511277E+00  0.511234E+00  0.511273E+00  0.511332E+00  0.511349E+00
  0.511411E+00  0.511324E+00  0.511056E+00  0.510995E+00  0.510763E+00  0.510810E+00
  0.510817E+00  0.510892E+00  0.510802E+00  0.510756E+00  0.510786E+00  0.510844E+00
  0.510793E+00  0.510581E+00  0.510600E+00  0.510751E+00  0.510392E+00  0.510569E+00
  0.510738E+00  0.510600E+00  0.510733E+00  0.510701E+00  0.510931E+00  0.511032E+00
  0.510859E+00  0.510689E+00  0.510959E+00  0.511182E+00  0.510907E+00  0.510838E+00
  0.510942E+00  0.511116E+00  0.511055E+00  0.511116E+00  0.511086E+00  0.511230E+00
  0.511377E+00  0.511222E+00  0.511188E+00  0.511455E+00  0.511307E+00  0.511309E+00
  0.511539E+00  0.511255E+00  0.511430E+00  0.511385E+00  0.511435E+00  0.511392E+00
  0.511211E+00  0.511239E+00  0.511050E+00  0.511219E+00  0.511099E+00  0.510932E+00
  0.510887E+00  0.510889E+00  0.510965E+00  0.510867E+00  0.510904E+00  0.510801E+00
  0.510692E+00  0.510692E+00  0.510812E+00  0.510605E+00  0.510717E+00  0.510632E+00
  0.510637E+00  0.510924E+00  0.510733E+00  0.510971E+00  0.510837E+00  0.511127E+00
  0.511145E+00  0.510955E+00  0.510876E+00  0.511053E+00  0.511292E+00  0.511230E+00
  0.511019E+00  0.511115E+00  0.510888E+00  0.510838E+00  0.511263E+00  0.510934E+00
  0.510887E+00  0.511151E+00  0.511235E+00  0.511292E+00  0.511397E+00  0.511379E+00
  0.511230E+00  0.511454E+00  0.511259E+00  0.511252E+00  0.511312E+00  0.511276E+00
  0.511183E+00  0.511141E+00  0.511202E+00  0.511162E+00  0.511184E+00  0.510990E+00
  0.511043E+00  0.510998E+00  0.511056E+00  0.510932E+00  0.510834E+00  0.511039E+00
  0.510910E+00  0.510761E+00  0.510755E+00  0.510893E+00  0.510678E+00  0.510909E+00
  0.510888E+00  0.510535E+00  0.511019E+00  0.510971E+00  0.510958E+00  0.510913E+00
  0.511073E+00  0.511065E+00  0.511030E+00  0.510985E+00  0.511129E+00  0.511198E+00
  0.511129E+00  0.510845E+00  0.511088E+00  0.510866E+00  0.511061E+00  0.511365E+00
  0.511064E+00  0.511069E+00  0.511155E+00  0.511388E+00  0.511258E+00  0.510947E+00
  0.510988E+00  0.511065E+00  0.511154E+00  0.511208E+00  0.511113E+00  0.511173E+00
  0.511060E+00  0.511021E+00  0.511105E+00  0.511147E+00  0.511121E+00  0.510723E+00
  0.510786E+00  0.510956E+00  0.510945E+00  0.511016E+00  0.510866E+00  0.510731E+00
  0.510806E+00  0.510772E+00  0.510934E+00  0.510984E+00  0.510773E+00  0.510796E+00
  0.511124E+00  0.511297E+00  0.510824E+00  0.511016E+00  0.510958E+00  0.511083E+00
  0.510960E+00  0.510861E+00  0.510945E+00  0.511038E+00  0.510911E+00  0.510946E+00
  0.510852E+00  0.511110E+00  0.511032E+00  0.511346E+00  0.511013E+00  0.511167E+00
  0.511042E+00  0.510926E+00  0.511163E+00  0.510946E+00  0.511055E+00  0.511079E+00
  0.511146E+00  0.511159E+00  0.511390E+00  0.510983E+00  0.510995E+00  0.511151E+00
  0.511248E+00  0.511176E+00  0.511138E+00  0.510953E+00  0.510905E+00  0.511128E+00
  0.510822E+00  0.511107E+00  0.510917E+00  0.510914E+00  0.510950E+00  0.511147E+00
  0.511157E+00  0.511057E+00  0.510967E+00  0.511024E+00  0.511088E+00  0.510831E+00
  0.510993E+00  0.510775E+00  0.511070E+00  0.510964E+00  0.511108E+00  0.511083E+00
  0.511147E+00  0.511000E+00  0.510890E+00  0.511065E+00  0.511059E+00  0.510971E+00
  0.511104E+00  0.510875E+00  0.511259E+00  0.511078E+00  0.511235E+00  0.510962E+00
  0.511142E+00  0.511035E+00  0.510955E+00  0.511049E+00  0.510838E+00  0.510934E+00
  0.510997E+00  0.511316E+00  0.510969E+00  0.511247E+00  0.510995E+00  0.511059E+00
  0.511147E+00  0.511000E+00  0.510890E+00  0.511065E+00  0.511059E+00  0.510971E+00
  0.511104E+00  0.510875E+00  0.511259E+00  0.511078E+00  0.511235E+00  0.510962E+00
  0.511142E+00  0.511035E+00  0.510955E+00  0.511049E+00  0.510838E+00  0.510934E+00
  0.510997E+00  0.511316E+00  0.510969E+00  0.511247E+00  0.510995E+00  0.511059E+00
  0.511147E+00  0.511151E+00  0.511248E+00  0.511176E+00  0.511138E+00  0.510953E+00
  0.510905E+00  0.511128E+00  0.510822E+00  0.511107E+00  0.510917E+00  0.510914E+00
  0.510950E+00  0.511147E+00  0.511157E+00  0.511057E+00  0.510967E+00  0.511024E+00
  0.511088E+00  0.510831E+00  0.510993E+00  0.510775E+00  0.511070E+00  0.510964E+00
  0.511108E+00  0.511083E+00  0.510960E+00  0.510861E+00  0.510945E+00  0.511038E+00
  0.510911E+00  0.510946E+00  0.510852E+00  0.511110E+00  0.511032E+00  0.511346E+00
  0.511013E+00  0.511167E+00  0.511042E+00  0.510926E+00  0.511163E+00  0.510946E+00
  0.511055E+00  0.511079E+00  0.511146E+00  0.511159E+00  0.511390E+00  0.510983E+00
  0.510995E+00  0.511151E+00  0.511113E+00  0.511173E+00  0.511060E+00  0.511021E+00
  0.511105E+00  0.511147E+00  0.511121E+00  0.510723E+00  0.510786E+00  0.510956E+00
  0.510945E+00  0.511016E+00  0.510866E+00  0.510731E+00  0.510806E+00  0.510772E+00
  0.510934E+00  0.510984E+00  0.510773E+00  0.510796E+00  0.511124E+00  0.511297E+00
  0.510824E+00  0.511016E+00  0.510958E+00  0.510913E+00  0.511073E+00  0.511065E+00
  0.511030E+00  0.510985E+00  0.511129E+00  0.511198E+00  0.511129E+00  0.510845E+00
  0.511088E+00  0.510866E+00  0.511061E+00  0.511365E+00  0.511064E+00  0.511069E+00
  0.511155E+00  0.511388E+00  0.511258E+00  0.510947E+00  0.510988E+00  0.511065E+00
  0.511154E+00  0.511208E+00  0.511113E+00  0.511252E+00  0.511312E+00  0.511276E+00
  0.511183E+00  0.511141E+00  0.511202E+00  0.511162E+00  0.511184E+00  0.510990E+00
  0.511043E+00  0.510998E+00  0.511056E+00  0.510932E+00  0.510834E+00  0.511039E+00
  0.510910E+00  0.510761E+00  0.510755E+00  0.510893E+00  0.510678E+00  0.510909E+00
  0.510888E+00  0.510535E+00  0.511019E+00  0.510971E+00  0.510837E+00  0.511127E+00
  0.511145E+00  0.510955E+00  0.510876E+00  0.511053E+00  0.511292E+00  0.511230E+00
  0.511019E+00  0.511115E+00  0.510888E+00  0.510838E+00  0.511263E+00  0.510934E+00
  0.510887E+00  0.511151E+00  0.511235E+00  0.511292E+00  0.511397E+00  0.511379E+00
  0.511230E+00  0.511454E+00  0.511259E+00  0.511252E+00  0.511430E+00  0.511385E+00
  0.511435E+00  0.511392E+00  0.511211E+00  0.511239E+00  0.511050E+00  0.511219E+00
  0.511099E+00  0.510932E+00  0.510887E+00  0.510889E+00  0.510965E+00  0.510867E+00
  0.510904E+00  0.510801E+00  0.510692E+00  0.510692E+00  0.510812E+00  0.510605E+00
  0.510717E+00  0.510632E+00  0.510637E+00  0.510924E+00  0.510733E+00  0.510701E+00
  0.510931E+00  0.511032E+00  0.510859E+00  0.510689E+00  0.510959E+00  0.511182E+00
  0.510907E+00  0.510838E+00  0.510942E+00  0.511116E+00  0.511055E+00  0.511116E+00
  0.511086E+00  0.511230E+00  0.511377E+00  0.511222E+00  0.511188E+00  0.511455E+00
  0.511307E+00  0.511309E+00  0.511539E+00  0.511255E+00  0.511430E+00  0.511277E+00
  0.511234E+00  0.511273E+00  0.511332E+00  0.511349E+00  0.511411E+00  0.511324E+00
  0.511056E+00  0.510995E+00  0.510763E+00  0.510810E+00  0.510817E+00  0.510892E+00
  0.510802E+00  0.510756E+00  0.510786E+00  0.510844E+00  0.510793E+00  0.510581E+00
  0.510600E+00  0.510751E+00  0.510392E+00  0.510569E+00  0.510738E+00  0.510600E+00
  0.510667E+00  0.510682E+00  0.510874E+00  0.510800E+00  0.510524E+00  0.510836E+00
  0.511040E+00  0.510695E+00  0.510810E+00  0.510816E+00  0.511152E+00  0.511174E+00
  0.511064E+00  0.511280E+00  0.511166E+00  0.511254E+00  0.511474E+00  0.511241E+00
  0.511309E+00  0.511301E+00  0.511494E+00  0.511588E+00  0.511389E+00  0.511277E+00
  0.511369E+00  0.511606E+00  0.511327E+00  0.511274E+00  0.511355E+00  0.511068E+00
  0.511393E+00  0.511060E+00  0.511213E+00  0.511105E+00  0.511091E+00  0.510951E+00
  0.510835E+00  0.510925E+00  0.510852E+00  0.510726E+00  0.510662E+00  0.510647E+00
  0.510578E+00  0.510697E+00  0.510845E+00  0.510507E+00  0.510713E+00  0.510700E+00
  0.510529E+00  0.510688E+00  0.510684E+00  0.510810E+00  0.510752E+00  0.510606E+00
  0.510880E+00  0.511032E+00  0.510754E+00  0.510864E+00  0.510856E+00  0.511168E+00
  0.511191E+00  0.511293E+00  0.511525E+00  0.511271E+00  0.511426E+00  0.511626E+00
  0.511310E+00  0.511398E+00  0.511572E+00  0.511502E+00  0.511290E+00  0.511479E+00
  0.511369E+00  0.511538E+00  0.511725E+00  0.511346E+00  0.511448E+00  0.511726E+00
  0.511232E+00  0.511400E+00  0.511044E+00  0.511211E+00  0.511226E+00  0.511052E+00
  0.510680E+00  0.510465E+00  0.510789E+00  0.510764E+00  0.510689E+00  0.510680E+00
  0.510632E+00  0.510771E+00  0.510544E+00  0.510565E+00  0.510647E+00  0.510837E+00
  0.510638E+00  0.510430E+00  0.510682E+00  0.510707E+00  0.510674E+00  0.510707E+00
  0.510811E+00  0.510917E+00  0.511000E+00  0.510991E+00  0.511046E+00  0.511092E+00
  0.511309E+00  0.511144E+00  0.511306E+00  0.511209E+00  0.511158E+00  0.511470E+00
  0.511469E+00  0.511526E+00  0.511575E+00  0.511538E+00  0.511452E+00  0.511371E+00
  0.511677E+00  0.511538E+00  0.511556E+00  0.511701E+00  0.511634E+00  0.511511E+00
  0.511448E+00  0.511271E+00  0.511308E+00  0.511305E+00  0.511291E+00  0.511211E+00
  0.510941E+00  0.510762E+00  0.510665E+00  0.510742E+00  0.510658E+00  0.510672E+00
  0.510758E+00  0.510597E+00  0.510805E+00  0.510551E+00  0.510512E+00  0.510502E+00
  0.510451E+00  0.510581E+00  0.510639E+00  0.510798E+00  0.510754E+00  0.510631E+00
  0.510632E+00  0.510718E+00  0.510732E+00  0.510876E+00  0.511212E+00  0.511272E+00
  0.511203E+00  0.511249E+00  0.511056E+00  0.511370E+00  0.511242E+00  0.511223E+00
  0.511363E+00  0.511389E+00  0.511671E+00  0.511598E+00  0.511495E+00  0.511511E+00
  0.511625E+00  0.511611E+00  0.511556E+00  0.511558E+00  0.511576E+00  0.511600E+00
  0.511395E+00  0.511197E+00  0.511343E+00  0.511194E+00  0.511376E+00  0.511146E+00
  0.511150E+00  0.510882E+00  0.511007E+00  0.511013E+00  0.510681E+00  0.510644E+00
  0.510614E+00  0.510677E+00  0.510594E+00  0.510676E+00  0.510612E+00  0.510680E+00
  0.510665E+00  0.510475E+00  0.510563E+00  0.510423E+00  0.510420E+00  0.510574E+00
  0.510648E+00  0.510735E+00  0.510874E+00  0.510984E+00  0.510882E+00  0.510851E+00
  0.510758E+00  0.510905E+00  0.511182E+00  0.511157E+00  0.511323E+00  0.511486E+00
  0.511629E+00  0.511611E+00  0.511621E+00  0.511525E+00  0.511493E+00  0.511651E+00
  0.511517E+00  0.511760E+00  0.511480E+00  0.511558E+00  0.511534E+00  0.511606E+00
  0.511529E+00  0.511395E+00  0.511317E+00  0.511476E+00  0.511277E+00  0.511305E+00
  0.510938E+00  0.511167E+00  0.510936E+00  0.510938E+00  0.510788E+00  0.510538E+00
  0.510680E+00  0.510582E+00  0.510542E+00  0.510655E+00  0.510613E+00  0.510556E+00
  0.510375E+00  0.510439E+00  0.510457E+00  0.510568E+00  0.510456E+00  0.510528E+00
  0.510641E+00  0.510637E+00  0.510801E+00  0.510837E+00  0.510878E+00  0.510824E+00
  0.510888E+00  0.510845E+00  0.511017E+00  0.511091E+00  0.511193E+00  0.511146E+00
  0.511356E+00  0.511501E+00  0.511536E+00  0.511687E+00  0.511479E+00  0.511420E+00
  0.511623E+00  0.511473E+00  0.511874E+00  0.511512E+00  0.511534E+00  0.511636E+00
  0.511699E+00  0.511548E+00  0.511450E+00  0.511470E+00  0.511449E+00  0.511274E+00
  0.511275E+00  0.511093E+00  0.511254E+00  0.511096E+00  0.510975E+00  0.510611E+00
  0.510649E+00  0.510623E+00  0.510494E+00  0.510467E+00  0.510562E+00  0.510388E+00
  0.510556E+00  0.510373E+00  0.510364E+00  0.510379E+00  0.510591E+00  0.510584E+00
  0.510723E+00  0.510761E+00  0.510598E+00  0.510747E+00  0.510702E+00  0.510761E+00
  0.510858E+00  0.511042E+00  0.511022E+00  0.511288E+00  0.511072E+00  0.511216E+00
  0.511211E+00  0.511386E+00  0.511385E+00  0.511458E+00  0.511593E+00  0.511542E+00
  0.511444E+00  0.511670E+00  0.511474E+00  0.511651E+00  0.511664E+00  0.511636E+00
  0.511722E+00  0.511529E+00  0.511345E+00  0.511474E+00  0.511765E+00  0.511664E+00
  0.511306E+00  0.511198E+00  0.511124E+00  0.511125E+00  0.511028E+00  0.510984E+00
  0.510604E+00  0.510804E+00  0.510619E+00  0.510554E+00  0.510623E+00  0.510568E+00
  0.510162E+00  0.510472E+00  0.510536E+00  0.510583E+00  0.510490E+00  0.510568E+00
  0.510359E+00  0.510436E+00  0.510601E+00  0.510518E+00  0.510726E+00  0.510802E+00
  0.510988E+00  0.510965E+00  0.510846E+00  0.510731E+00  0.511315E+00  0.511198E+00
  0.511274E+00  0.511183E+00  0.511333E+00  0.511351E+00  0.511494E+00  0.511533E+00
  0.511558E+00  0.511549E+00  0.511914E+00  0.511617E+00  0.511522E+00  0.511846E+00
  0.511722E+00  0.511636E+00  0.511699E+00  0.511548E+00  0.511450E+00  0.511470E+00
  0.511449E+00  0.511274E+00  0.511275E+00  0.511093E+00  0.511254E+00  0.511096E+00
  0.510975E+00  0.510611E+00  0.510649E+00  0.510623E+00  0.510494E+00  0.510467E+00
  0.510562E+00  0.510388E+00  0.510556E+00  0.510373E+00  0.510364E+00  0.510379E+00
  0.510591E+00  0.510584E+00  0.510723E+00  0.510761E+00  0.510598E+00  0.510747E+00
  0.510702E+00  0.510761E+00  0.510858E+00  0.511042E+00  0.511022E+00  0.511288E+00
  0.511072E+00  0.511216E+00  0.511211E+00  0.511386E+00  0.511385E+00  0.511458E+00
  0.511593E+00  0.511542E+00  0.511444E+00  0.511670E+00  0.511474E+00  0.511651E+00
  0.511664E+00  0.511636E+00  0.511534E+00  0.511606E+00  0.511529E+00  0.511395E+00
  0.511317E+00  0.511476E+00  0.511277E+00  0.511305E+00  0.510938E+00  0.511167E+00
  0.510936E+00  0.510938E+00  0.510788E+00  0.510538E+00  0.510680E+00  0.510582E+00
  0.510542E+00  0.510655E+00  0.510613E+00  0.510556E+00  0.510375E+00  0.510439E+00
  0.510457E+00  0.510568E+00  0.510456E+00  0.510528E+00  0.510641E+00  0.510637E+00
  0.510801E+00  0.510837E+00  0.510878E+00  0.510824E+00  0.510888E+00  0.510845E+00
  0.511017E+00  0.511091E+00  0.511193E+00  0.511146E+00  0.511356E+00  0.511501E+00
  0.511536E+00  0.511687E+00  0.511479E+00  0.511420E+00  0.511623E+00  0.511473E+00
  0.511874E+00  0.511512E+00  0.511534E+00  0.511558E+00  0.511576E+00  0.511600E+00
  0.511395E+00  0.511197E+00  0.511343E+00  0.511194E+00  0.511376E+00  0.511146E+00
  0.511150E+00  0.510882E+00  0.511007E+00  0.511013E+00  0.510681E+00  0.510644E+00
  0.510614E+00  0.510677E+00  0.510594E+00  0.510676E+00  0.510612E+00  0.510680E+00
  0.510665E+00  0.510475E+00  0.510563E+00  0.510423E+00  0.510420E+00  0.510574E+00
  0.510648E+00  0.510735E+00  0.510874E+00  0.510984E+00  0.510882E+00  0.510851E+00
  0.510758E+00  0.510905E+00  0.511182E+00  0.511157E+00  0.511323E+00  0.511486E+00
  0.511629E+00  0.511611E+00  0.511621E+00  0.511525E+00  0.511493E+00  0.511651E+00
  0.511517E+00  0.511760E+00  0.511480E+00  0.511558E+00  0.511556E+00  0.511701E+00
  0.511634E+00  0.511511E+00  0.511448E+00  0.511271E+00  0.511308E+00  0.511305E+00
  0.511291E+00  0.511211E+00  0.510941E+00  0.510762E+00  0.510665E+00  0.510742E+00
  0.510658E+00  0.510672E+00  0.510758E+00  0.510597E+00  0.510805E+00  0.510551E+00
  0.510512E+00  0.510502E+00  0.510451E+00  0.510581E+00  0.510639E+00  0.510798E+00
  0.510754E+00  0.510631E+00  0.510632E+00  0.510718E+00  0.510732E+00  0.510876E+00
  0.511212E+00  0.511272E+00  0.511203E+00  0.511249E+00  0.511056E+00  0.511370E+00
  0.511242E+00  0.511223E+00  0.511363E+00  0.511389E+00  0.511671E+00  0.511598E+00
  0.511495E+00  0.511511E+00  0.511625E+00  0.511611E+00  0.511556E+00  0.511538E+00
  0.511725E+00  0.511346E+00  0.511448E+00  0.511726E+00  0.511232E+00  0.511400E+00
  0.511044E+00  0.511211E+00  0.511226E+00  0.511052E+00  0.510680E+00  0.510465E+00
  0.510789E+00  0.510764E+00  0.510689E+00  0.510680E+00  0.510632E+00  0.510771E+00
  0.510544E+00  0.510565E+00  0.510647E+00  0.510837E+00  0.510638E+00  0.510430E+00
  0.510682E+00  0.510707E+00  0.510674E+00  0.510707E+00  0.510811E+00  0.510917E+00
  0.511000E+00  0.510991E+00  0.511046E+00  0.511092E+00  0.511309E+00  0.511144E+00
  0.511306E+00  0.511209E+00  0.511158E+00  0.511470E+00  0.511469E+00  0.511526E+00
  0.511575E+00  0.511538E+00  0.511452E+00  0.511371E+00  0.511677E+00  0.511538E+00
  0.511369E+00  0.511606E+00  0.511327E+00  0.511274E+00  0.511355E+00  0.511068E+00
  0.511393E+00  0.511060E+00  0.511213E+00  0.511105E+00  0.511091E+00  0.510951E+00
  0.510835E+00  0.510925E+00  0.510852E+00  0.510726E+00  0.510662E+00  0.510647E+00
  0.510578E+00  0.510697E+00  0.510845E+00  0.510507E+00  0.510713E+00  0.510700E+00
  0.510529E+00  0.510688E+00  0.510684E+00  0.510810E+00  0.510752E+00  0.510606E+00
  0.510880E+00  0.511032E+00  0.510754E+00  0.510864E+00  0.510856E+00  0.511168E+00
  0.511191E+00  0.511293E+00  0.511525E+00  0.511271E+00  0.511426E+00  0.511626E+00
  0.511310E+00  0.511398E+00  0.511572E+00  0.511502E+00  0.511290E+00  0.511479E+00
  0.511369E+00  0.511277E+00  0.511234E+00  0.511273E+00  0.511332E+00  0.511349E+00
  0.511411E+00  0.511324E+00  0.511056E+00  0.510995E+00  0.510763E+00  0.510810E+00
  0.510817E+00  0.510892E+00  0.510802E+00  0.510756E+00  0.510786E+00  0.510844E+00
  0.510793E+00  0.510581E+00  0.510600E+00  0.510751E+00  0.510392E+00  0.510569E+00
  0.510738E+00  0.510600E+00  0.510667E+00  0.510682E+00  0.510874E+00  0.510800E+00
  0.510524E+00  0.510836E+00  0.511040E+00  0.510695E+00  0.510810E+00  0.510816E+00
  0.511152E+00  0.511174E+00  0.511064E+00  0.511280E+00  0.511166E+00  0.511254E+00
  0.511474E+00  0.511241E+00  0.511309E+00  0.511301E+00  0.511494E+00  0.511588E+00
  0.511389E+00  0.511277E+00  0.511430E+00  0.511385E+00  0.511435E+00  0.511392E+00
  0.511211E+00  0.511239E+00  0.511050E+00  0.511219E+00  0.511099E+00  0.510932E+00
  0.510887E+00  0.510889E+00  0.510965E+00  0.510867E+00  0.510904E+00  0.510801E+00
  0.510692E+00  0.510692E+00  0.510812E+00  0.510605E+00  0.510717E+00  0.510632E+00
  0.510637E+00  0.510924E+00  0.510733E+00  0.510701E+00  0.510931E+00  0.511032E+00
  0.510859E+00  0.510689E+00  0.510959E+00  0.511182E+00  0.510907E+00  0.510838E+00
  0.510942E+00  0.511116E+00  0.511055E+00  0.511116E+00  0.511086E+00  0.511230E+00
  0.511377E+00  0.511222E+00  0.511188E+00  0.511455E+00  0.511307E+00  0.511309E+00
  0.511539E+00  0.511255E+00  0.511430E+00  0.511252E+00  0.511312E+00  0.511276E+00
  0.511183E+00  0.511141E+00  0.511202E+00  0.511162E+00  0.511184E+00  0.510990E+00
  0.511043E+00  0.510998E+00  0.511056E+00  0.510932E+00  0.510834E+00  0.511039E+00
  0.510910E+00  0.510761E+00  0.510755E+00  0.510893E+00  0.510678E+00  0.510909E+00
  0.510888E+00  0.510535E+00  0.511019E+00  0.510971E+00  0.510837E+00  0.511127E+00
  0.511145E+00  0.510955E+00  0.510876E+00  0.511053E+00  0.511292E+00  0.511230E+00
  0.511019E+00  0.511115E+00  0.510888E+00  0.510838E+00  0.511263E+00  0.510934E+00
  0.510887E+00  0.511151E+00  0.511235E+00  0.511292E+00  0.511397E+00  0.511379E+00
  0.511230E+00  0.511454E+00  0.511259E+00  0.511252E+00  0.511113E+00  0.511173E+00
  0.511060E+00  0.511021E+00  0.511105E+00  0.511147E+00  0.511121E+00  0.510723E+00
  0.510786E+00  0.510956E+00  0.510945E+00  0.511016E+00  0.510866E+00  0.510731E+00
  0.510806E+00  0.510772E+00  0.510934E+00  0.510984E+00  0.510773E+00  0.510796E+00
  0.511124E+00  0.511297E+00  0.510824E+00  0.511016E+00  0.510958E+00  0.510913E+00
  0.511073E+00  0.511065E+00  0.511030E+00  0.510985E+00  0.511129E+00  0.511198E+00
  0.511129E+00  0.510845E+00  0.511088E+00  0.510866E+00  0.511061E+00  0.511365E+00
  0.511064E+00  0.511069E+00  0.511155E+00  0.511388E+00  0.511258E+00  0.510947E+00
  0.510988E+00  0.511065E+00  0.511154E+00  0.511208E+00  0.511113E+00  0.511151E+00
  0.511248E+00  0.511176E+00  0.511138E+00  0.510953E+00  0.510905E+00  0.511128E+00
  0.510822E+00  0.511107E+00  0.510917E+00  0.510914E+00  0.510950E+00  0.511147E+00
  0.511157E+00  0.511057E+00  0.510967E+00  0.511024E+00  0.511088E+00  0.510831E+00
  0.510993E+00  0.510775E+00  0.511070E+00  0.510964E+00  0.511108E+00  0.511083E+00
  0.510960E+00  0.510861E+00  0.510945E+00  0.511038E+00  0.510911E+00  0.510946E+00
  0.510852E+00  0.511110E+00  0.511032E+00  0.511346E+00  0.511013E+00  0.511167E+00
  0.511042E+00  0.510926E+00  0.511163E+00  0.510946E+00  0.511055E+00  0.511079E+00
  0.511146E+00  0.511159E+00  0.511390E+00  0.510983E+00  0.510995E+00  0.511151E+00
  0.511147E+00  0.511000E+00  0.510890E+00  0.511065E+00  0.511059E+00  0.510971E+00
  0.511104E+00  0.510875E+00  0.511259E+00  0.511078E+00  0.511235E+00  0.510962E+00
  0.511142E+00  0.511035E+00  0.510955E+00  0.511049E+00  0.510838E+00  0.510934E+00
  0.510997E+00  0.511316E+00  0.510969E+00  0.511247E+00  0.510995E+00  0.511059E+00
  0.511147E+00  0.511000E+00  0.510890E+00  0.511065E+00  0.511059E+00  0.510971E+00
  0.511104E+00  0.510875E+00  0.511259E+00  0.511078E+00  0.511235E+00  0.510962E+00
  0.511142E+00  0.511035E+00  0.510955E+00  0.511049E+00  0.510838E+00  0.510934E+00
  0.510997E+00  0.511316E+00  0.510969E+00  0.511247E+00  0.510995E+00  0.511059E+00
  0.511147E+00  0.510693E+00  0.510589E+00  0.510518E+00  0.510676E+00  0.510580E+00
  0.510393E+00  0.510709E+00  0.510477E+00  0.510430E+00  0.510292E+00  0.510445E+00
  0.510302E+00  0.510282E+00  0.510460E+00  0.510740E+00  0.510729E+00  0.510940E+00
  0.511034E+00  0.510957E+00  0.511085E+00  0.510810E+00  0.511317E+00  0.511323E+00
  0.511361E+00  0.511229E+00  0.511448E+00  0.511653E+00  0.511438E+00  0.511659E+00
  0.511770E+00  0.511591E+00  0.511466E+00  0.511522E+00  0.511193E+00  0.511458E+00
  0.511369E+00  0.511484E+00  0.511260E+00  0.511169E+00  0.511261E+00  0.511070E+00
  0.511265E+00  0.510874E+00  0.511012E+00  0.510925E+00  0.510726E+00  0.510713E+00
  0.510851E+00  0.510693E+00  0.510455E+00  0.510726E+00  0.510579E+00  0.510385E+00
  0.510615E+00  0.510500E+00  0.510456E+00  0.510355E+00  0.510512E+00  0.510440E+00
  0.510429E+00  0.510466E+00  0.510627E+00  0.510506E+00  0.510769E+00  0.510941E+00
  0.510893E+00  0.510826E+00  0.511092E+00  0.511292E+00  0.511099E+00  0.511438E+00
  0.511376E+00  0.511576E+00  0.511512E+00  0.511524E+00  0.511608E+00  0.511598E+00
  0.511788E+00  0.511725E+00  0.511679E+00  0.511680E+00  0.511760E+00  0.511491E+00
  0.511485E+00  0.511333E+00  0.511393E+00  0.511223E+00  0.511140E+00  0.511351E+00
  0.511075E+00  0.511108E+00  0.511030E+00  0.511197E+00  0.510853E+00  0.510589E+00
  0.510682E+00  0.510637E+00  0.510455E+00  0.510362E+00  0.510609E+00  0.510519E+00
  0.510243E+00  0.510542E+00  0.510525E+00  0.510394E+00  0.510378E+00  0.510429E+00
  0.510432E+00  0.510469E+00  0.510664E+00  0.510881E+00  0.510732E+00  0.510879E+00
  0.511141E+00  0.511027E+00  0.510946E+00  0.511297E+00  0.511378E+00  0.511522E+00
  0.511621E+00  0.511494E+00  0.511755E+00  0.511831E+00  0.511792E+00  0.511739E+00
  0.511792E+00  0.511887E+00  0.511771E+00  0.511831E+00  0.511834E+00  0.511814E+00
  0.511881E+00  0.511618E+00  0.511410E+00  0.511472E+00  0.511468E+00  0.511301E+00
  0.511274E+00  0.511068E+00  0.510986E+00  0.511025E+00  0.510965E+00  0.510738E+00
  0.510744E+00  0.510774E+00  0.510571E+00  0.510362E+00  0.510732E+00  0.510625E+00
  0.510440E+00  0.510371E+00  0.510402E+00  0.510394E+00  0.510403E+00  0.510323E+00
  0.510414E+00  0.510653E+00  0.510746E+00  0.510774E+00  0.510808E+00  0.510966E+00
  0.510973E+00  0.511043E+00  0.511050E+00  0.510980E+00  0.511200E+00  0.511302E+00
  0.511604E+00  0.511624E+00  0.511592E+00  0.511611E+00  0.511673E+00  0.511834E+00
  0.511885E+00  0.511770E+00  0.511840E+00  0.511829E+00  0.511716E+00  0.511869E+00
  0.511676E+00  0.511688E+00  0.511492E+00  0.511414E+00  0.511415E+00  0.511415E+00
  0.511317E+00  0.511155E+00  0.511057E+00  0.510862E+00  0.510903E+00  0.510857E+00
  0.510805E+00  0.510829E+00  0.510652E+00  0.510608E+00  0.510732E+00  0.510591E+00
  0.510630E+00  0.510356E+00  0.510289E+00  0.510408E+00  0.510647E+00  0.510562E+00
  0.510231E+00  0.510479E+00  0.510745E+00  0.510766E+00  0.510899E+00  0.510925E+00
  0.511040E+00  0.511099E+00  0.511339E+00  0.511432E+00  0.511312E+00  0.511473E+00
  0.511612E+00  0.511518E+00  0.511473E+00  0.511636E+00  0.511793E+00  0.511864E+00
  0.511690E+00  0.511743E+00  0.511875E+00  0.511922E+00  0.511831E+00  0.511607E+00
  0.511837E+00  0.511702E+00  0.511683E+00  0.511734E+00  0.511596E+00  0.511441E+00
  0.511236E+00  0.511243E+00  0.511290E+00  0.511261E+00  0.511044E+00  0.511087E+00
  0.511012E+00  0.510847E+00  0.510970E+00  0.510783E+00  0.510407E+00  0.510591E+00
  0.510528E+00  0.510571E+00  0.510440E+00  0.510387E+00  0.510542E+00  0.510740E+00
  0.510567E+00  0.510420E+00  0.510843E+00  0.510978E+00  0.510734E+00  0.510773E+00
  0.510955E+00  0.510797E+00  0.510749E+00  0.511059E+00  0.511203E+00  0.511498E+00
  0.511745E+00  0.511868E+00  0.511746E+00  0.511810E+00  0.511808E+00  0.512085E+00
  0.512154E+00  0.511936E+00  0.511978E+00  0.512170E+00  0.512016E+00  0.511882E+00
  0.511973E+00  0.511947E+00  0.511911E+00  0.511838E+00  0.511865E+00  0.511557E+00
  0.511456E+00  0.511235E+00  0.511179E+00  0.511257E+00  0.511143E+00  0.511015E+00
  0.510989E+00  0.510683E+00  0.510471E+00  0.510833E+00  0.510818E+00  0.510471E+00
  0.510528E+00  0.510704E+00  0.510592E+00  0.510624E+00  0.510536E+00  0.510546E+00
  0.510658E+00  0.510583E+00  0.510615E+00  0.510800E+00  0.510879E+00  0.510936E+00
  0.510837E+00  0.510971E+00  0.511123E+00  0.511291E+00  0.511340E+00  0.511134E+00
  0.511478E+00  0.511555E+00  0.511601E+00  0.511712E+00  0.511921E+00  0.511796E+00
  0.512048E+00  0.511975E+00  0.512180E+00  0.512244E+00  0.512127E+00  0.511924E+00
  0.511754E+00  0.512052E+00  0.511871E+00  0.511949E+00  0.511718E+00  0.511677E+00
  0.511507E+00  0.511539E+00  0.511373E+00  0.511126E+00  0.511129E+00  0.511133E+00
  0.510946E+00  0.510842E+00  0.510827E+00  0.510836E+00  0.510845E+00  0.510490E+00
  0.510533E+00  0.510704E+00  0.510477E+00  0.510426E+00  0.510422E+00  0.510326E+00
  0.510480E+00  0.510718E+00  0.510571E+00  0.510430E+00  0.510492E+00  0.510486E+00
  0.510811E+00  0.510873E+00  0.510746E+00  0.510995E+00  0.511309E+00  0.511573E+00
  0.511475E+00  0.511586E+00  0.511605E+00  0.511727E+00  0.511837E+00  0.512135E+00
  0.512115E+00  0.512149E+00  0.511888E+00  0.511992E+00  0.512067E+00  0.512040E+00
  0.512100E+00  0.512015E+00  0.512160E+00  0.511830E+00  0.511685E+00  0.511515E+00
  0.511689E+00  0.511779E+00  0.511738E+00  0.511471E+00  0.511216E+00  0.511094E+00
  0.511173E+00  0.510908E+00  0.510763E+00  0.510846E+00  0.510706E+00  0.510634E+00
  0.510455E+00  0.510432E+00  0.510477E+00  0.510591E+00  0.510544E+00  0.510399E+00
  0.510563E+00  0.510486E+00  0.510435E+00  0.510498E+00  0.510404E+00  0.510768E+00
  0.510807E+00  0.510688E+00  0.510875E+00  0.511062E+00  0.511194E+00  0.511090E+00
  0.511423E+00  0.511558E+00  0.511646E+00  0.511677E+00  0.511794E+00  0.511912E+00
  0.512153E+00  0.512146E+00  0.512019E+00  0.512172E+00  0.512094E+00  0.512180E+00
  0.512186E+00  0.512018E+00  0.512018E+00  0.512083E+00  0.511974E+00  0.511684E+00
  0.511704E+00  0.511735E+00  0.511741E+00  0.511645E+00  0.511292E+00  0.511316E+00
  0.511028E+00  0.510882E+00  0.510831E+00  0.510856E+00  0.510826E+00  0.510516E+00
  0.510573E+00  0.510716E+00  0.510555E+00  0.510591E+00  0.510562E+00  0.510456E+00
  0.510284E+00  0.510742E+00  0.510448E+00  0.510280E+00  0.510795E+00  0.510542E+00
  0.510635E+00  0.510932E+00  0.510818E+00  0.510991E+00  0.511363E+00  0.511350E+00
  0.511241E+00  0.511464E+00  0.511397E+00  0.511680E+00  0.511756E+00  0.511788E+00
  0.512008E+00  0.511903E+00  0.512074E+00  0.512148E+00  0.512502E+00  0.512161E+00
  0.512110E+00  0.512349E+00  0.512370E+00  0.512336E+00  0.511966E+00  0.511968E+00
  0.511738E+00  0.511935E+00  0.511684E+00  0.511514E+00  0.511541E+00  0.511242E+00
  0.511394E+00  0.511267E+00  0.511044E+00  0.510901E+00  0.510687E+00  0.510639E+00
  0.510640E+00  0.510702E+00  0.510621E+00  0.510390E+00  0.510562E+00  0.510500E+00
  0.510482E+00  0.510324E+00  0.510534E+00  0.510434E+00  0.510363E+00  0.510733E+00
  0.510562E+00  0.510635E+00  0.510949E+00  0.511005E+00  0.511021E+00  0.511161E+00
  0.511035E+00  0.511231E+00  0.511410E+00  0.511324E+00  0.511713E+00  0.511992E+00
  0.512087E+00  0.512331E+00  0.512004E+00  0.512264E+00  0.512338E+00  0.512377E+00
  0.512217E+00  0.512160E+00  0.512403E+00  0.512451E+00  0.512311E+00  0.512079E+00
  0.512156E+00  0.511876E+00  0.511927E+00  0.511675E+00  0.511553E+00  0.511594E+00
  0.511475E+00  0.511318E+00  0.511268E+00  0.511066E+00  0.510915E+00  0.510688E+00
  0.510528E+00  0.510490E+00  0.510598E+00  0.510615E+00  0.510474E+00  0.510500E+00
  0.510472E+00  0.510455E+00  0.510483E+00  0.510431E+00  0.510483E+00  0.510419E+00
  0.510497E+00  0.510625E+00  0.510815E+00  0.510816E+00  0.510979E+00  0.510967E+00
  0.511106E+00  0.511283E+00  0.511474E+00  0.511474E+00  0.511742E+00  0.511690E+00
  0.511931E+00  0.512043E+00  0.512174E+00  0.512133E+00  0.512255E+00  0.512207E+00
  0.512165E+00  0.512428E+00  0.512399E+00  0.512407E+00  0.512069E+00  0.511860E+00
  0.512159E+00  0.512131E+00  0.511974E+00  0.511810E+00  0.511614E+00  0.511718E+00
  0.511548E+00  0.511580E+00  0.511224E+00  0.511181E+00  0.510895E+00  0.510993E+00
  0.511017E+00  0.510783E+00  0.510718E+00  0.510660E+00  0.510559E+00  0.510658E+00
  0.510472E+00  0.510262E+00  0.510161E+00  0.510376E+00  0.510371E+00  0.510476E+00
  0.510469E+00  0.510539E+00  0.510672E+00  0.510674E+00  0.510501E+00  0.510862E+00
  0.510905E+00  0.511041E+00  0.511403E+00  0.511494E+00  0.511407E+00  0.511956E+00
  0.511584E+00  0.511755E+00  0.511884E+00  0.511966E+00  0.512211E+00  0.512271E+00
  0.512218E+00  0.512177E+00  0.512435E+00  0.512344E+00  0.512443E+00  0.512146E+00
  0.511970E+00  0.512290E+00  0.511918E+00  0.511860E+00  0.511661E+00  0.511481E+00
  0.511745E+00  0.511455E+00  0.511547E+00  0.511261E+00  0.511336E+00  0.510991E+00
  0.511090E+00  0.511018E+00  0.510729E+00  0.510866E+00  0.510683E+00  0.510296E+00
  0.510514E+00  0.510262E+00  0.510472E+00  0.510455E+00  0.510483E+00  0.510431E+00
  0.510483E+00  0.510419E+00  0.510497E+00  0.510625E+00  0.510815E+00  0.510816E+00
  0.510979E+00  0.510967E+00  0.511106E+00  0.511283E+00  0.511474E+00  0.511474E+00
  0.511742E+00  0.511690E+00  0.511931E+00  0.512043E+00  0.512174E+00  0.512133E+00
  0.512255E+00  0.512207E+00  0.512165E+00  0.512428E+00  0.512399E+00  0.512407E+00
  0.512069E+00  0.511860E+00  0.512159E+00  0.512131E+00  0.511974E+00  0.511810E+00
  0.511614E+00  0.511718E+00  0.511548E+00  0.511580E+00  0.511224E+00  0.511181E+00
  0.510895E+00  0.510993E+00  0.511017E+00  0.510783E+00  0.510718E+00  0.510660E+00
  0.510559E+00  0.510658E+00  0.510472E+00  0.510500E+00  0.510482E+00  0.510324E+00
  0.510534E+00  0.510434E+00  0.510363E+00  0.510733E+00  0.510562E+00  0.510635E+00
  0.510949E+00  0.511005E+00  0.511021E+00  0.511161E+00  0.511035E+00  0.511231E+00
  0.511410E+00  0.511324E+00  0.511713E+00  0.511992E+00  0.512087E+00  0.512331E+00
  0.512004E+00  0.512264E+00  0.512338E+00  0.512377E+00  0.512217E+00  0.512160E+00
  0.512403E+00  0.512451E+00  0.512311E+00  0.512079E+00  0.512156E+00  0.511876E+00
  0.511927E+00  0.511675E+00  0.511553E+00  0.511594E+00  0.511475E+00  0.511318E+00
  0.511268E+00  0.511066E+00  0.510915E+00  0.510688E+00  0.510528E+00  0.510490E+00
  0.510598E+00  0.510615E+00  0.510474E+00  0.510500E+00  0.510562E+00  0.510456E+00
  0.510284E+00  0.510742E+00  0.510448E+00  0.510280E+00  0.510795E+00  0.510542E+00
  0.510635E+00  0.510932E+00  0.510818E+00  0.510991E+00  0.511363E+00  0.511350E+00
  0.511241E+00  0.511464E+00  0.511397E+00  0.511680E+00  0.511756E+00  0.511788E+00
  0.512008E+00  0.511903E+00  0.512074E+00  0.512148E+00  0.512502E+00  0.512161E+00
  0.512110E+00  0.512349E+00  0.512370E+00  0.512336E+00  0.511966E+00  0.511968E+00
  0.511738E+00  0.511935E+00  0.511684E+00  0.511514E+00  0.511541E+00  0.511242E+00
  0.511394E+00  0.511267E+00  0.511044E+00  0.510901E+00  0.510687E+00  0.510639E+00
  0.510640E+00  0.510702E+00  0.510621E+00  0.510390E+00  0.510562E+00  0.510591E+00
  0.510544E+00  0.510399E+00  0.510563E+00  0.510486E+00  0.510435E+00  0.510498E+00
  0.510404E+00  0.510768E+00  0.510807E+00  0.510688E+00  0.510875E+00  0.511062E+00
  0.511194E+00  0.511090E+00  0.511423E+00  0.511558E+00  0.511646E+00  0.511677E+00
  0.511794E+00  0.511912E+00  0.512153E+00  0.512146E+00  0.512019E+00  0.512172E+00
  0.512094E+00  0.512180E+00  0.512186E+00  0.512018E+00  0.512018E+00  0.512083E+00
  0.511974E+00  0.511684E+00  0.511704E+00  0.511735E+00  0.511741E+00  0.511645E+00
  0.511292E+00  0.511316E+00  0.511028E+00  0.510882E+00  0.510831E+00  0.510856E+00
  0.510826E+00  0.510516E+00  0.510573E+00  0.510716E+00  0.510555E+00  0.510591E+00
  0.510477E+00  0.510426E+00  0.510422E+00  0.510326E+00  0.510480E+00  0.510718E+00
  0.510571E+00  0.510430E+00  0.510492E+00  0.510486E+00  0.510811E+00  0.510873E+00
  0.510746E+00  0.510995E+00  0.511309E+00  0.511573E+00  0.511475E+00  0.511586E+00
  0.511605E+00  0.511727E+00  0.511837E+00  0.512135E+00  0.512115E+00  0.512149E+00
  0.511888E+00  0.511992E+00  0.512067E+00  0.512040E+00  0.512100E+00  0.512015E+00
  0.512160E+00  0.511830E+00  0.511685E+00  0.511515E+00  0.511689E+00  0.511779E+00
  0.511738E+00  0.511471E+00  0.511216E+00  0.511094E+00  0.511173E+00  0.510908E+00
  0.510763E+00  0.510846E+00  0.510706E+00  0.510634E+00  0.510455E+00  0.510432E+00
  0.510477E+00  0.510704E+00  0.510592E+00  0.510624E+00  0.510536E+00  0.510546E+00
  0.510658E+00  0.510583E+00  0.510615E+00  0.510800E+00  0.510879E+00  0.510936E+00
  0.510837E+00  0.510971E+00  0.511123E+00  0.511291E+00  0.511340E+00  0.511134E+00
  0.511478E+00  0.511555E+00  0.511601E+00  0.511712E+00  0.511921E+00  0.511796E+00
  0.512048E+00  0.511975E+00  0.512180E+00  0.512244E+00  0.512127E+00  0.511924E+00
  0.511754E+00  0.512052E+00  0.511871E+00  0.511949E+00  0.511718E+00  0.511677E+00
  0.511507E+00  0.511539E+00  0.511373E+00  0.511126E+00  0.511129E+00  0.511133E+00
  0.510946E+00  0.510842E+00  0.510827E+00  0.510836E+00  0.510845E+00  0.510490E+00
  0.510533E+00  0.510704E+00  0.510528E+00  0.510571E+00  0.510440E+00  0.510387E+00
  0.510542E+00  0.510740E+00  0.510567E+00  0.510420E+00  0.510843E+00  0.510978E+00
  0.510734E+00  0.510773E+00  0.510955E+00  0.510797E+00  0.510749E+00  0.511059E+00
  0.511203E+00  0.511498E+00  0.511745E+00  0.511868E+00  0.511746E+00  0.511810E+00
  0.511808E+00  0.512085E+00  0.512154E+00  0.511936E+00  0.511978E+00  0.512170E+00
  0.512016E+00  0.511882E+00  0.511973E+00  0.511947E+00  0.511911E+00  0.511838E+00
  0.511865E+00  0.511557E+00  0.511456E+00  0.511235E+00  0.511179E+00  0.511257E+00
  0.511143E+00  0.511015E+00  0.510989E+00  0.510683E+00  0.510471E+00  0.510833E+00
  0.510818E+00  0.510471E+00  0.510528E+00  0.510591E+00  0.510630E+00  0.510356E+00
  0.510289E+00  0.510408E+00  0.510647E+00  0.510562E+00  0.510231E+00  0.510479E+00
  0.510745E+00  0.510766E+00  0.510899E+00  0.510925E+00  0.511040E+00  0.511099E+00
  0.511339E+00  0.511432E+00  0.511312E+00  0.511473E+00  0.511612E+00  0.511518E+00
  0.511473E+00  0.511636E+00  0.511793E+00  0.511864E+00  0.511690E+00  0.511743E+00
  0.511875E+00  0.511922E+00  0.511831E+00  0.511607E+00  0.511837E+00  0.511702E+00
  0.511683E+00  0.511734E+00  0.511596E+00  0.511441E+00  0.511236E+00  0.511243E+00
  0.511290E+00  0.511261E+00  0.511044E+00  0.511087E+00  0.511012E+00  0.510847E+00
  0.510970E+00  0.510783E+00  0.510407E+00  0.510591E+00  0.510732E+00  0.510625E+00
  0.510440E+00  0.510371E+00  0.510402E+00  0.510394E+00  0.510403E+00  0.510323E+00
  0.510414E+00  0.510653E+00  0.510746E+00  0.510774E+00  0.510808E+00  0.510966E+00
  0.510973E+00  0.511043E+00  0.511050E+00  0.510980E+00  0.511200E+00  0.511302E+00
  0.511604E+00  0.511624E+00  0.511592E+00  0.511611E+00  0.511673E+00  0.511834E+00
  0.511885E+00  0.511770E+00  0.511840E+00  0.511829E+00  0.511716E+00  0.511869E+00
  0.511676E+00  0.511688E+00  0.511492E+00  0.511414E+00  0.511415E+00  0.511415E+00
  0.511317E+00  0.511155E+00  0.511057E+00  0.510862E+00  0.510903E+00  0.510857E+00
  0.510805E+00  0.510829E+00  0.510652E+00  0.510608E+00  0.510732E+00  0.510362E+00
  0.510609E+00  0.510519E+00  0.510243E+00  0.510542E+00  0.510525E+00  0.510394E+00
  0.510378E+00  0.510429E+00  0.510432E+00  0.510469E+00  0.510664E+00  0.510881E+00
  0.510732E+00  0.510879E+00  0.511141E+00  0.511027E+00  0.510946E+00  0.511297E+00
  0.511378E+00  0.511522E+00  0.511621E+00  0.511494E+00  0.511755E+00  0.511831E+00
  0.511792E+00  0.511739E+00  0.511792E+00  0.511887E+00  0.511771E+00  0.511831E+00
  0.511834E+00  0.511814E+00  0.511881E+00  0.511618E+00  0.511410E+00  0.511472E+00
  0.511468E+00  0.511301E+00  0.511274E+00  0.511068E+00  0.510986E+00  0.511025E+00
  0.510965E+00  0.510738E+00  0.510744E+00  0.510774E+00  0.510571E+00  0.510362E+00
  0.510455E+00  0.510726E+00  0.510579E+00  0.510385E+00  0.510615E+00  0.510500E+00
  0.510456E+00  0.510355E+00  0.510512E+00  0.510440E+00  0.510429E+00  0.510466E+00
  0.510627E+00  0.510506E+00  0.510769E+00  0.510941E+00  0.510893E+00  0.510826E+00
  0.511092E+00  0.511292E+00  0.511099E+00  0.511438E+00  0.511376E+00  0.511576E+00
  0.511512E+00  0.511524E+00  0.511608E+00  0.511598E+00  0.511788E+00  0.511725E+00
  0.511679E+00  0.511680E+00  0.511760E+00  0.511491E+00  0.511485E+00  0.511333E+00
  0.511393E+00  0.511223E+00  0.511140E+00  0.511351E+00  0.511075E+00  0.511108E+00
  0.511030E+00  0.511197E+00  0.510853E+00  0.510589E+00  0.510682E+00  0.510637E+00
  0.510455E+00  0.510693E+00  0.510589E+00  0.510518E+00  0.510676E+00  0.510580E+00
  0.510393E+00  0.510709E+00  0.510477E+00  0.510430E+00  0.510292E+00  0.510445E+00
  0.510302E+00  0.510282E+00  0.510460E+00  0.510740E+00  0.510729E+00  0.510940E+00
  0.511034E+00  0.510957E+00  0.511085E+00  0.510810E+00  0.511317E+00  0.511323E+00
  0.511361E+00  0.511229E+00  0.511448E+00  0.511653E+00  0.511438E+00  0.511659E+00
  0.511770E+00  0.511591E+00  0.511466E+00  0.511522E+00  0.511193E+00  0.511458E+00
  0.511369E+00  0.511484E+00  0.511260E+00  0.511169E+00  0.511261E+00  0.511070E+00
  0.511265E+00  0.510874E+00  0.511012E+00  0.510925E+00  0.510726E+00  0.510713E+00
  0.510851E+00  0.510693E+00  0.510684E+00  0.510744E+00  0.510718E+00  0.510673E+00
  0.510506E+00  0.510338E+00  0.510611E+00  0.510579E+00  0.510568E+00  0.510373E+00
  0.510581E+00  0.510546E+00  0.510386E+00  0.510592E+00  0.510760E+00  0.510583E+00
  0.510686E+00  0.510817E+00  0.510752E+00  0.510911E+00  0.510803E+00  0.511103E+00
  0.511088E+00  0.511230E+00  0.511307E+00  0.511452E+00  0.511611E+00  0.511557E+00
  0.511360E+00  0.511355E+00  0.511581E+00  0.511507E+00  0.511492E+00  0.511286E+00
  0.511413E+00  0.511294E+00  0.511372E+00  0.511304E+00  0.511297E+00  0.511253E+00
  0.511215E+00  0.511377E+00  0.510924E+00  0.510997E+00  0.511063E+00  0.510863E+00
  0.510830E+00  0.510872E+00  0.510684E+00  0.510578E+00  0.510592E+00  0.510602E+00
  0.510631E+00  0.510663E+00  0.510456E+00  0.510380E+00  0.510495E+00  0.510535E+00
  0.510382E+00  0.510368E+00  0.510473E+00  0.510318E+00  0.510363E+00  0.510443E+00
  0.510429E+00  0.510603E+00  0.510647E+00  0.510775E+00  0.510932E+00  0.510825E+00
  0.510850E+00  0.510988E+00  0.511110E+00  0.511156E+00  0.511172E+00  0.511150E+00
  0.511338E+00  0.511253E+00  0.511339E+00  0.511458E+00  0.511213E+00  0.511323E+00
  0.511352E+00  0.511435E+00  0.511515E+00  0.511239E+00  0.511161E+00  0.511348E+00
  0.511309E+00  0.511193E+00  0.511188E+00  0.510973E+00  0.510983E+00  0.510996E+00
  0.510705E+00  0.510937E+00  0.510906E+00  0.510578E+00  0.510841E+00  0.510579E+00
  0.510570E+00  0.510718E+00  0.510548E+00  0.510464E+00  0.510463E+00  0.510512E+00
  0.510344E+00  0.510367E+00  0.510252E+00  0.510352E+00  0.510397E+00  0.510428E+00
  0.510444E+00  0.510538E+00  0.510813E+00  0.510710E+00  0.510865E+00  0.510786E+00
  0.510540E+00  0.510578E+00  0.510985E+00  0.510982E+00  0.510855E+00  0.511010E+00
  0.510889E+00  0.510907E+00  0.511228E+00  0.511483E+00  0.511073E+00  0.510870E+00
  0.511254E+00  0.511429E+00  0.511390E+00  0.511610E+00  0.511335E+00  0.511189E+00
  0.511342E+00  0.511429E+00  0.511231E+00  0.511220E+00  0.511192E+00  0.511060E+00
  0.511170E+00  0.510942E+00  0.510979E+00  0.510837E+00  0.510841E+00  0.511061E+00
  0.510843E+00  0.510728E+00  0.510549E+00  0.510324E+00  0.510483E+00  0.510350E+00
  0.510342E+00  0.510387E+00  0.510593E+00  0.510449E+00  0.510223E+00  0.510303E+00
  0.510345E+00  0.510215E+00  0.510074E+00  0.510321E+00  0.510359E+00  0.510546E+00
  0.510631E+00  0.510780E+00  0.510908E+00  0.511093E+00  0.510967E+00  0.510866E+00
  0.511107E+00  0.511120E+00  0.511032E+00  0.511277E+00  0.511466E+00  0.511195E+00
  0.511329E+00  0.511371E+00  0.511448E+00  0.511286E+00  0.511331E+00  0.511380E+00
  0.511402E+00  0.511418E+00  0.511419E+00  0.511150E+00  0.511192E+00  0.511137E+00
  0.510925E+00  0.511041E+00  0.510994E+00  0.510820E+00  0.510658E+00  0.511061E+00
  0.510796E+00  0.510739E+00  0.510745E+00  0.510440E+00  0.510497E+00  0.510636E+00
  0.510316E+00  0.510189E+00  0.510320E+00  0.510286E+00  0.510308E+00  0.510188E+00
  0.510231E+00  0.510240E+00  0.510340E+00  0.510217E+00  0.510308E+00  0.510430E+00
  0.510459E+00  0.510666E+00  0.510896E+00  0.510755E+00  0.510791E+00  0.510858E+00
  0.511053E+00  0.511138E+00  0.511015E+00  0.511015E+00  0.511245E+00  0.511452E+00
  0.511232E+00  0.511329E+00  0.511298E+00  0.511667E+00  0.511601E+00  0.511354E+00
  0.511261E+00  0.511398E+00  0.511511E+00  0.511340E+00  0.511072E+00  0.511118E+00
  0.511110E+00  0.511105E+00  0.511005E+00  0.511023E+00  0.510990E+00  0.510820E+00
  0.510796E+00  0.510815E+00  0.510825E+00  0.510786E+00  0.510598E+00  0.510574E+00
  0.510334E+00  0.510376E+00  0.510292E+00  0.510396E+00  0.510092E+00  0.510188E+00
  0.510366E+00  0.510312E+00  0.510085E+00  0.510252E+00  0.510207E+00  0.510055E+00
  0.510316E+00  0.510438E+00  0.510379E+00  0.510384E+00  0.510341E+00  0.510663E+00
  0.510722E+00  0.510930E+00  0.510981E+00  0.510845E+00  0.510970E+00  0.511071E+00
  0.511243E+00  0.511033E+00  0.511111E+00  0.511294E+00  0.511612E+00  0.511327E+00
  0.511246E+00  0.511191E+00  0.511122E+00  0.511155E+00  0.511304E+00  0.511348E+00
  0.511107E+00  0.511166E+00  0.511374E+00  0.511138E+00  0.511089E+00  0.511039E+00
  0.511059E+00  0.510815E+00  0.510795E+00  0.510707E+00  0.510565E+00  0.510554E+00
  0.510613E+00  0.510366E+00  0.510402E+00  0.510178E+00  0.510289E+00  0.510006E+00
  0.510046E+00  0.510230E+00  0.510224E+00  0.510103E+00  0.510065E+00  0.510184E+00
  0.510106E+00  0.510190E+00  0.510324E+00  0.510105E+00  0.510385E+00  0.510495E+00
  0.510629E+00  0.510643E+00  0.510745E+00  0.510724E+00  0.510775E+00  0.511124E+00
  0.511089E+00  0.511076E+00  0.511103E+00  0.511231E+00  0.511103E+00  0.511267E+00
  0.511052E+00  0.511280E+00  0.511483E+00  0.511356E+00  0.511112E+00  0.511311E+00
  0.511391E+00  0.511025E+00  0.511190E+00  0.511183E+00  0.511053E+00  0.511143E+00
  0.510989E+00  0.511046E+00  0.510795E+00  0.510787E+00  0.510661E+00  0.510698E+00
  0.510523E+00  0.510502E+00  0.510561E+00  0.510326E+00  0.510197E+00  0.510208E+00
  0.509983E+00  0.510143E+00  0.510233E+00  0.510155E+00  0.510324E+00  0.510097E+00
  0.510160E+00  0.510261E+00  0.509972E+00  0.510059E+00  0.510087E+00  0.510534E+00
  0.510340E+00  0.510204E+00  0.510559E+00  0.510675E+00  0.510660E+00  0.510748E+00
  0.510871E+00  0.511075E+00  0.511108E+00  0.511006E+00  0.511186E+00  0.510901E+00
  0.511099E+00  0.511176E+00  0.511214E+00  0.511170E+00  0.511398E+00  0.511484E+00
  0.511407E+00  0.511264E+00  0.511119E+00  0.511313E+00  0.511112E+00  0.511169E+00
  0.511166E+00  0.510999E+00  0.511014E+00  0.510787E+00  0.510982E+00  0.510701E+00
  0.510797E+00  0.510709E+00  0.510498E+00  0.510569E+00  0.510230E+00  0.510321E+00
  0.510188E+00  0.510058E+00  0.510105E+00  0.510121E+00  0.509943E+00  0.510185E+00
  0.510048E+00  0.509840E+00  0.510024E+00  0.509930E+00  0.510047E+00  0.510118E+00
  0.510276E+00  0.510256E+00  0.510411E+00  0.510733E+00  0.510609E+00  0.510758E+00
  0.510972E+00  0.510643E+00  0.510902E+00  0.511055E+00  0.510791E+00  0.511209E+00
  0.511220E+00  0.511201E+00  0.511393E+00  0.511363E+00  0.511060E+00  0.511137E+00
  0.511229E+00  0.511149E+00  0.511260E+00  0.511167E+00  0.511253E+00  0.511317E+00
  0.511408E+00  0.511173E+00  0.511038E+00  0.510972E+00  0.510982E+00  0.511043E+00
  0.510795E+00  0.510765E+00  0.510795E+00  0.510540E+00  0.510533E+00  0.510272E+00
  0.510292E+00  0.510078E+00  0.510122E+00  0.509928E+00  0.509983E+00  0.509961E+00
  0.510077E+00  0.510161E+00  0.510051E+00  0.510065E+00  0.510070E+00  0.510073E+00
  0.510307E+00  0.510331E+00  0.510453E+00  0.510402E+00  0.510458E+00  0.510560E+00
  0.510665E+00  0.510794E+00  0.510649E+00  0.510836E+00  0.510921E+00  0.510806E+00
  0.511130E+00  0.511377E+00  0.511263E+00  0.511321E+00  0.511273E+00  0.511440E+00
  0.511489E+00  0.511295E+00  0.511113E+00  0.511291E+00  0.511106E+00  0.511239E+00
  0.511327E+00  0.511175E+00  0.511204E+00  0.511159E+00  0.510838E+00  0.511043E+00
  0.510968E+00  0.510823E+00  0.510865E+00  0.510663E+00  0.510431E+00  0.510445E+00
  0.510224E+00  0.510333E+00  0.510194E+00  0.510138E+00  0.509950E+00  0.510024E+00
  0.510123E+00  0.510097E+00  0.510010E+00  0.510164E+00  0.510043E+00  0.510022E+00
  0.509982E+00  0.510346E+00  0.510201E+00  0.510428E+00  0.510313E+00  0.510233E+00
  0.510584E+00  0.510614E+00  0.510573E+00  0.510774E+00  0.510885E+00  0.510892E+00
  0.511017E+00  0.510910E+00  0.511242E+00  0.511199E+00  0.511082E+00  0.511012E+00
  0.511492E+00  0.511420E+00  0.511477E+00  0.511367E+00  0.511263E+00  0.511187E+00
  0.511430E+00  0.511252E+00  0.511048E+00  0.511217E+00  0.511092E+00  0.510927E+00
  0.510968E+00  0.510870E+00  0.510624E+00  0.510802E+00  0.510552E+00  0.510453E+00
  0.510488E+00  0.510168E+00  0.510373E+00  0.510268E+00  0.510013E+00  0.509887E+00
  0.509953E+00  0.510115E+00  0.510128E+00  0.509872E+00  0.510150E+00  0.510085E+00
  0.510148E+00  0.510073E+00  0.510239E+00  0.509853E+00  0.510346E+00  0.510581E+00
  0.510427E+00  0.510643E+00  0.510696E+00  0.510665E+00  0.510904E+00  0.510898E+00
  0.510882E+00  0.511127E+00  0.510832E+00  0.511221E+00  0.511231E+00  0.511151E+00
  0.511201E+00  0.511542E+00  0.511036E+00  0.511270E+00  0.511366E+00  0.511195E+00
  0.511275E+00  0.511565E+00  0.511327E+00  0.511267E+00  0.511309E+00  0.511026E+00
  0.511096E+00  0.510870E+00  0.510968E+00  0.510823E+00  0.510865E+00  0.510663E+00
  0.510431E+00  0.510445E+00  0.510224E+00  0.510333E+00  0.510194E+00  0.510138E+00
  0.509950E+00  0.510024E+00  0.510123E+00  0.510097E+00  0.510010E+00  0.510164E+00
  0.510043E+00  0.510022E+00  0.509982E+00  0.510346E+00  0.510201E+00  0.510428E+00
  0.510313E+00  0.510233E+00  0.510584E+00  0.510614E+00  0.510573E+00  0.510774E+00
  0.510885E+00  0.510892E+00  0.511017E+00  0.510910E+00  0.511242E+00  0.511199E+00
  0.511082E+00  0.511012E+00  0.511492E+00  0.511420E+00  0.511477E+00  0.511367E+00
  0.511263E+00  0.511187E+00  0.511430E+00  0.511252E+00  0.511048E+00  0.511217E+00
  0.511092E+00  0.510927E+00  0.510968E+00  0.511043E+00  0.510795E+00  0.510765E+00
  0.510795E+00  0.510540E+00  0.510533E+00  0.510272E+00  0.510292E+00  0.510078E+00
  0.510122E+00  0.509928E+00  0.509983E+00  0.509961E+00  0.510077E+00  0.510161E+00
  0.510051E+00  0.510065E+00  0.510070E+00  0.510073E+00  0.510307E+00  0.510331E+00
  0.510453E+00  0.510402E+00  0.510458E+00  0.510560E+00  0.510665E+00  0.510794E+00
  0.510649E+00  0.510836E+00  0.510921E+00  0.510806E+00  0.511130E+00  0.511377E+00
  0.511263E+00  0.511321E+00  0.511273E+00  0.511440E+00  0.511489E+00  0.511295E+00
  0.511113E+00  0.511291E+00  0.511106E+00  0.511239E+00  0.511327E+00  0.511175E+00
  0.511204E+00  0.511159E+00  0.510838E+00  0.511043E+00  0.510982E+00  0.510701E+00
  0.510797E+00  0.510709E+00  0.510498E+00  0.510569E+00  0.510230E+00  0.510321E+00
  0.510188E+00  0.510058E+00  0.510105E+00  0.510121E+00  0.509943E+00  0.510185E+00
  0.510048E+00  0.509840E+00  0.510024E+00  0.509930E+00  0.510047E+00  0.510118E+00
  0.510276E+00  0.510256E+00  0.510411E+00  0.510733E+00  0.510609E+00  0.510758E+00
  0.510972E+00  0.510643E+00  0.510902E+00  0.511055E+00  0.510791E+00  0.511209E+00
  0.511220E+00  0.511201E+00  0.511393E+00  0.511363E+00  0.511060E+00  0.511137E+00
  0.511229E+00  0.511149E+00  0.511260E+00  0.511167E+00  0.511253E+00  0.511317E+00
  0.511408E+00  0.511173E+00  0.511038E+00  0.510972E+00  0.510982E+00  0.510787E+00
  0.510661E+00  0.510698E+00  0.510523E+00  0.510502E+00  0.510561E+00  0.510326E+00
  0.510197E+00  0.510208E+00  0.509983E+00  0.510143E+00  0.510233E+00  0.510155E+00
  0.510324E+00  0.510097E+00  0.510160E+00  0.510261E+00  0.509972E+00  0.510059E+00
  0.510087E+00  0.510534E+00  0.510340E+00  0.510204E+00  0.510559E+00  0.510675E+00
  0.510660E+00  0.510748E+00  0.510871E+00  0.511075E+00  0.511108E+00  0.511006E+00
  0.511186E+00  0.510901E+00  0.511099E+00  0.511176E+00  0.511214E+00  0.511170E+00
  0.511398E+00  0.511484E+00  0.511407E+00  0.511264E+00  0.511119E+00  0.511313E+00
  0.511112E+00  0.511169E+00  0.511166E+00  0.510999E+00  0.511014E+00  0.510787E+00
  0.510795E+00  0.510707E+00  0.510565E+00  0.510554E+00  0.510613E+00  0.510366E+00
  0.510402E+00  0.510178E+00  0.510289E+00  0.510006E+00  0.510046E+00  0.510230E+00
  0.510224E+00  0.510103E+00  0.510065E+00  0.510184E+00  0.510106E+00  0.510190E+00
  0.510324E+00  0.510105E+00  0.510385E+00  0.510495E+00  0.510629E+00  0.510643E+00
  0.510745E+00  0.510724E+00  0.510775E+00  0.511124E+00  0.511089E+00  0.511076E+00
  0.511103E+00  0.511231E+00  0.511103E+00  0.511267E+00  0.511052E+00  0.511280E+00
  0.511483E+00  0.511356E+00  0.511112E+00  0.511311E+00  0.511391E+00  0.511025E+00
  0.511190E+00  0.511183E+00  0.511053E+00  0.511143E+00  0.510989E+00  0.511046E+00
  0.510795E+00  0.510815E+00  0.510825E+00  0.510786E+00  0.510598E+00  0.510574E+00
  0.510334E+00  0.510376E+00  0.510292E+00  0.510396E+00  0.510092E+00  0.510188E+00
  0.510366E+00  0.510312E+00  0.510085E+00  0.510252E+00  0.510207E+00  0.510055E+00
  0.510316E+00  0.510438E+00  0.510379E+00  0.510384E+00  0.510341E+00  0.510663E+00
  0.510722E+00  0.510930E+00  0.510981E+00  0.510845E+00  0.510970E+00  0.511071E+00
  0.511243E+00  0.511033E+00  0.511111E+00  0.511294E+00  0.511612E+00  0.511327E+00
  0.511246E+00  0.511191E+00  0.511122E+00  0.511155E+00  0.511304E+00  0.511348E+00
  0.511107E+00  0.511166E+00  0.511374E+00  0.511138E+00  0.511089E+00  0.511039E+00
  0.511059E+00  0.510815E+00  0.510796E+00  0.510739E+00  0.510745E+00  0.510440E+00
  0.510497E+00  0.510636E+00  0.510316E+00  0.510189E+00  0.510320E+00  0.510286E+00
  0.510308E+00  0.510188E+00  0.510231E+00  0.510240E+00  0.510340E+00  0.510217E+00
  0.510308E+00  0.510430E+00  0.510459E+00  0.510666E+00  0.510896E+00  0.510755E+00
  0.510791E+00  0.510858E+00  0.511053E+00  0.511138E+00  0.511015E+00  0.511015E+00
  0.511245E+00  0.511452E+00  0.511232E+00  0.511329E+00  0.511298E+00  0.511667E+00
  0.511601E+00  0.511354E+00  0.511261E+00  0.511398E+00  0.511511E+00  0.511340E+00
  0.511072E+00  0.511118E+00  0.511110E+00  0.511105E+00  0.511005E+00  0.511023E+00
  0.510990E+00  0.510820E+00  0.510796E+00  0.511061E+00  0.510843E+00  0.510728E+00
  0.510549E+00  0.510324E+00  0.510483E+00  0.510350E+00  0.510342E+00  0.510387E+00
  0.510593E+00  0.510449E+00  0.510223E+00  0.510303E+00  0.510345E+00  0.510215E+00
  0.510074E+00  0.510321E+00  0.510359E+00  0.510546E+00  0.510631E+00  0.510780E+00
  0.510908E+00  0.511093E+00  0.510967E+00  0.510866E+00  0.511107E+00  0.511120E+00
  0.511032E+00  0.511277E+00  0.511466E+00  0.511195E+00  0.511329E+00  0.511371E+00
  0.511448E+00  0.511286E+00  0.511331E+00  0.511380E+00  0.511402E+00  0.511418E+00
  0.511419E+00  0.511150E+00  0.511192E+00  0.511137E+00  0.510925E+00  0.511041E+00
  0.510994E+00  0.510820E+00  0.510658E+00  0.511061E+00  0.510841E+00  0.510579E+00
  0.510570E+00  0.510718E+00  0.510548E+00  0.510464E+00  0.510463E+00  0.510512E+00
  0.510344E+00  0.510367E+00  0.510252E+00  0.510352E+00  0.510397E+00  0.510428E+00
  0.510444E+00  0.510538E+00  0.510813E+00  0.510710E+00  0.510865E+00  0.510786E+00
  0.510540E+00  0.510578E+00  0.510985E+00  0.510982E+00  0.510855E+00  0.511010E+00
  0.510889E+00  0.510907E+00  0.511228E+00  0.511483E+00  0.511073E+00  0.510870E+00
  0.511254E+00  0.511429E+00  0.511390E+00  0.511610E+00  0.511335E+00  0.511189E+00
  0.511342E+00  0.511429E+00  0.511231E+00  0.511220E+00  0.511192E+00  0.511060E+00
  0.511170E+00  0.510942E+00  0.510979E+00  0.510837E+00  0.510841E+00  0.510578E+00
  0.510592E+00  0.510602E+00  0.510631E+00  0.510663E+00  0.510456E+00  0.510380E+00
  0.510495E+00  0.510535E+00  0.510382E+00  0.510368E+00  0.510473E+00  0.510318E+00
  0.510363E+00  0.510443E+00  0.510429E+00  0.510603E+00  0.510647E+00  0.510775E+00
  0.510932E+00  0.510825E+00  0.510850E+00  0.510988E+00  0.511110E+00  0.511156E+00
  0.511172E+00  0.511150E+00  0.511338E+00  0.511253E+00  0.511339E+00  0.511458E+00
  0.511213E+00  0.511323E+00  0.511352E+00  0.511435E+00  0.511515E+00  0.511239E+00
  0.511161E+00  0.511348E+00  0.511309E+00  0.511193E+00  0.511188E+00  0.510973E+00
  0.510983E+00  0.510996E+00  0.510705E+00  0.510937E+00  0.510906E+00  0.510578E+00
  0.510684E+00  0.510744E+00  0.510718E+00  0.510673E+00  0.510506E+00  0.510338E+00
  0.510611E+00  0.510579E+00  0.510568E+00  0.510373E+00  0.510581E+00  0.510546E+00
  0.510386E+00  0.510592E+00  0.510760E+00  0.510583E+00  0.510686E+00  0.510817E+00
  0.510752E+00  0.510911E+00  0.510803E+00  0.511103E+00  0.511088E+00  0.511230E+00
  0.511307E+00  0.511452E+00  0.511611E+00  0.511557E+00  0.511360E+00  0.511355E+00
  0.511581E+00  0.511507E+00  0.511492E+00  0.511286E+00  0.511413E+00  0.511294E+00
  0.511372E+00  0.511304E+00  0.511297E+00  0.511253E+00  0.511215E+00  0.511377E+00
  0.510924E+00  0.510997E+00  0.511063E+00  0.510863E+00  0.510830E+00  0.510872E+00
  0.510684E+00  0.510693E+00  0.510589E+00  0.510518E+00  0.510676E+00  0.510580E+00
  0.510393E+00  0.510709E+00  0.510477E+00  0.510430E+00  0.510292E+00  0.510445E+00
  0.510302E+00  0.510282E+00  0.510460E+00  0.510740E+00  0.510729E+00  0.510940E+00
  0.511034E+00  0.510957E+00  0.511085E+00  0.510810E+00  0.511317E+00  0.511323E+00
  0.511361E+00  0.511229E+00  0.511448E+00  0.511653E+00  0.511438E+00  0.511659E+00
  0.511770E+00  0.511591E+00  0.511466E+00  0.511522E+00  0.511193E+00  0.511458E+00
  0.511369E+00  0.511484E+00  0.511260E+00  0.511169E+00  0.511261E+00  0.511070E+00
  0.511265E+00  0.510874E+00  0.511012E+00  0.510925E+00  0.510726E+00  0.510713E+00
  0.510851E+00  0.510693E+00  0.510170E+00  0.510006E+00  0.509999E+00  0.509940E+00
  0.509880E+00  0.509838E+00  0.509764E+00  0.509666E+00  0.509673E+00  0.509813E+00
  0.509900E+00  0.510158E+00  0.510334E+00  0.510284E+00  0.510268E+00  0.510253E+00
  0.510714E+00  0.510927E+00  0.510810E+00  0.511098E+00  0.511475E+00  0.511375E+00
  0.511445E+00  0.511806E+00  0.511746E+00  0.511922E+00  0.512004E+00  0.511776E+00
  0.512058E+00  0.512109E+00  0.511973E+00  0.512089E+00  0.512020E+00  0.512106E+00
  0.512154E+00  0.511942E+00  0.511725E+00  0.511727E+00  0.511733E+00  0.511482E+00
  0.511257E+00  0.511288E+00  0.510957E+00  0.510562E+00  0.510607E+00  0.510726E+00
  0.510572E+00  0.510346E+00  0.510170E+00  0.510385E+00  0.510374E+00  0.510328E+00
  0.510082E+00  0.509870E+00  0.509825E+00  0.509944E+00  0.510064E+00  0.510092E+00
  0.510180E+00  0.510072E+00  0.510281E+00  0.510353E+00  0.510496E+00  0.510657E+00
  0.510216E+00  0.510757E+00  0.510974E+00  0.510899E+00  0.511198E+00  0.511305E+00
  0.511301E+00  0.511593E+00  0.511851E+00  0.511825E+00  0.511926E+00  0.512082E+00
  0.512145E+00  0.512104E+00  0.511971E+00  0.512094E+00  0.512275E+00  0.512039E+00
  0.512015E+00  0.512174E+00  0.511985E+00  0.511633E+00  0.511639E+00  0.511531E+00
  0.511513E+00  0.511188E+00  0.511126E+00  0.510940E+00  0.510808E+00  0.510988E+00
  0.510788E+00  0.510598E+00  0.510417E+00  0.510385E+00  0.510305E+00  0.510106E+00
  0.510100E+00  0.510079E+00  0.510027E+00  0.509997E+00  0.510010E+00  0.510041E+00
  0.509956E+00  0.510243E+00  0.510135E+00  0.510325E+00  0.510291E+00  0.510120E+00
  0.510627E+00  0.510756E+00  0.511109E+00  0.511201E+00  0.511328E+00  0.511411E+00
  0.511561E+00  0.511584E+00  0.511758E+00  0.511893E+00  0.511995E+00  0.512017E+00
  0.512143E+00  0.512401E+00  0.512225E+00  0.512107E+00  0.512232E+00  0.512276E+00
  0.512050E+00  0.512089E+00  0.512117E+00  0.512184E+00  0.511949E+00  0.511951E+00
  0.511638E+00  0.511590E+00  0.511422E+00  0.511311E+00  0.511216E+00  0.510886E+00
  0.510613E+00  0.510472E+00  0.510699E+00  0.510467E+00  0.510305E+00  0.510311E+00
  0.509993E+00  0.510023E+00  0.510287E+00  0.510140E+00  0.509970E+00  0.510043E+00
  0.510145E+00  0.510108E+00  0.510230E+00  0.510071E+00  0.510285E+00  0.510350E+00
  0.510280E+00  0.510642E+00  0.510702E+00  0.510994E+00  0.511416E+00  0.511542E+00
  0.511264E+00  0.511673E+00  0.511878E+00  0.512073E+00  0.512172E+00  0.512144E+00
  0.512326E+00  0.512492E+00  0.512450E+00  0.512403E+00  0.512559E+00  0.512433E+00
  0.512378E+00  0.512226E+00  0.512193E+00  0.511987E+00  0.512100E+00  0.511843E+00
  0.511775E+00  0.511487E+00  0.511335E+00  0.511540E+00  0.511401E+00  0.511024E+00
  0.510887E+00  0.510625E+00  0.510359E+00  0.510612E+00  0.510401E+00  0.510311E+00
  0.510300E+00  0.510273E+00  0.510251E+00  0.510259E+00  0.510119E+00  0.510096E+00
  0.510153E+00  0.510241E+00  0.510300E+00  0.510074E+00  0.510196E+00  0.510394E+00
  0.510410E+00  0.510831E+00  0.511142E+00  0.511007E+00  0.511057E+00  0.511372E+00
  0.511524E+00  0.511441E+00  0.511853E+00  0.512095E+00  0.512169E+00  0.512305E+00
  0.512406E+00  0.512586E+00  0.512587E+00  0.512473E+00  0.512519E+00  0.512729E+00
  0.512610E+00  0.512492E+00  0.512375E+00  0.512424E+00  0.512208E+00  0.512137E+00
  0.512039E+00  0.511967E+00  0.511721E+00  0.511372E+00  0.511445E+00  0.511243E+00
  0.510885E+00  0.511151E+00  0.510959E+00  0.510477E+00  0.510533E+00  0.510319E+00
  0.510300E+00  0.510311E+00  0.510157E+00  0.510244E+00  0.510132E+00  0.510048E+00
  0.510078E+00  0.510047E+00  0.510100E+00  0.510244E+00  0.510029E+00  0.510378E+00
  0.510394E+00  0.510591E+00  0.510924E+00  0.510936E+00  0.511308E+00  0.511355E+00
  0.511278E+00  0.511431E+00  0.511762E+00  0.512035E+00  0.512362E+00  0.512246E+00
  0.512265E+00  0.512497E+00  0.512689E+00  0.512620E+00  0.512609E+00  0.512660E+00
  0.512779E+00  0.512721E+00  0.512495E+00  0.512403E+00  0.512383E+00  0.512304E+00
  0.512105E+00  0.512162E+00  0.512106E+00  0.512011E+00  0.511505E+00  0.511068E+00
  0.511088E+00  0.511123E+00  0.511019E+00  0.510642E+00  0.510586E+00  0.510590E+00
  0.510511E+00  0.510311E+00  0.510514E+00  0.510040E+00  0.510212E+00  0.510181E+00
  0.510022E+00  0.509885E+00  0.509981E+00  0.510188E+00  0.510287E+00  0.510278E+00
  0.510629E+00  0.510466E+00  0.510927E+00  0.511074E+00  0.510903E+00  0.511407E+00
  0.511457E+00  0.511612E+00  0.511737E+00  0.512031E+00  0.511956E+00  0.512283E+00
  0.512401E+00  0.512525E+00  0.512534E+00  0.512684E+00  0.512770E+00  0.512710E+00
  0.512900E+00  0.512957E+00  0.512611E+00  0.512530E+00  0.512699E+00  0.512359E+00
  0.512282E+00  0.512047E+00  0.512015E+00  0.511829E+00  0.511877E+00  0.511630E+00
  0.511307E+00  0.511342E+00  0.511310E+00  0.511039E+00  0.510740E+00  0.510752E+00
  0.510358E+00  0.510580E+00  0.510514E+00  0.510366E+00  0.510106E+00  0.510249E+00
  0.510157E+00  0.510155E+00  0.510062E+00  0.510161E+00  0.510400E+00  0.510381E+00
  0.510338E+00  0.510658E+00  0.510725E+00  0.510974E+00  0.510964E+00  0.511027E+00
  0.511335E+00  0.511371E+00  0.511785E+00  0.511907E+00  0.512333E+00  0.512175E+00
  0.512297E+00  0.512490E+00  0.512814E+00  0.512889E+00  0.512792E+00  0.512914E+00
  0.512846E+00  0.513055E+00  0.513134E+00  0.512718E+00  0.512797E+00  0.512980E+00
  0.512583E+00  0.512483E+00  0.512234E+00  0.512143E+00  0.511856E+00  0.511904E+00
  0.511744E+00  0.511629E+00  0.511382E+00  0.510952E+00  0.510903E+00  0.510733E+00
  0.510642E+00  0.510408E+00  0.510489E+00  0.510366E+00  0.510208E+00  0.510182E+00
  0.510236E+00  0.510177E+00  0.510311E+00  0.510301E+00  0.510306E+00  0.510474E+00
  0.510432E+00  0.510366E+00  0.510569E+00  0.510800E+00  0.510959E+00  0.511124E+00
  0.511276E+00  0.511469E+00  0.511615E+00  0.511859E+00  0.511907E+00  0.512349E+00
  0.512345E+00  0.512504E+00  0.512548E+00  0.512620E+00  0.512971E+00  0.512915E+00
  0.513109E+00  0.513030E+00  0.512846E+00  0.512951E+00  0.512856E+00  0.512972E+00
  0.512933E+00  0.512687E+00  0.512478E+00  0.512186E+00  0.512121E+00  0.511949E+00
  0.512020E+00  0.511634E+00  0.511456E+00  0.511437E+00  0.511091E+00  0.511063E+00
  0.510901E+00  0.510678E+00  0.510702E+00  0.510466E+00  0.510208E+00  0.510460E+00
  0.510425E+00  0.510263E+00  0.510124E+00  0.510173E+00  0.510215E+00  0.510175E+00
  0.510381E+00  0.510407E+00  0.510562E+00  0.510801E+00  0.510698E+00  0.510675E+00
  0.511091E+00  0.511336E+00  0.511553E+00  0.511717E+00  0.511903E+00  0.512087E+00
  0.512262E+00  0.512405E+00  0.512651E+00  0.512772E+00  0.512716E+00  0.512920E+00
  0.512959E+00  0.513134E+00  0.513015E+00  0.512862E+00  0.513023E+00  0.512878E+00
  0.512914E+00  0.512829E+00  0.512683E+00  0.512565E+00  0.512286E+00  0.512113E+00
  0.512044E+00  0.511873E+00  0.511539E+00  0.511485E+00  0.511494E+00  0.511203E+00
  0.511129E+00  0.511023E+00  0.510525E+00  0.510413E+00  0.510379E+00  0.510460E+00
  0.510298E+00  0.510346E+00  0.510240E+00  0.510059E+00  0.510196E+00  0.510338E+00
  0.510134E+00  0.510378E+00  0.510485E+00  0.510429E+00  0.510589E+00  0.510761E+00
  0.510927E+00  0.511184E+00  0.511424E+00  0.511629E+00  0.511783E+00  0.511842E+00
  0.512046E+00  0.512083E+00  0.512430E+00  0.512665E+00  0.512720E+00  0.512849E+00
  0.512881E+00  0.513024E+00  0.513166E+00  0.512974E+00  0.512953E+00  0.513046E+00
  0.512884E+00  0.512933E+00  0.512831E+00  0.512536E+00  0.512608E+00  0.512408E+00
  0.512127E+00  0.512170E+00  0.511694E+00  0.511593E+00  0.511560E+00  0.511269E+00
  0.511149E+00  0.511221E+00  0.511029E+00  0.510621E+00  0.510538E+00  0.510335E+00
  0.510298E+00  0.510318E+00  0.510330E+00  0.510246E+00  0.510241E+00  0.510299E+00
  0.510416E+00  0.510310E+00  0.510325E+00  0.510536E+00  0.510541E+00  0.510475E+00
  0.510898E+00  0.511252E+00  0.511291E+00  0.511518E+00  0.511572E+00  0.511904E+00
  0.511861E+00  0.512216E+00  0.512229E+00  0.512286E+00  0.512709E+00  0.512659E+00
  0.512876E+00  0.512975E+00  0.513031E+00  0.513061E+00  0.513025E+00  0.513101E+00
  0.513133E+00  0.513016E+00  0.512821E+00  0.512941E+00  0.512703E+00  0.512593E+00
  0.512408E+00  0.512110E+00  0.512089E+00  0.511694E+00  0.511812E+00  0.511515E+00
  0.511215E+00  0.511165E+00  0.511099E+00  0.510881E+00  0.510772E+00  0.510699E+00
  0.510373E+00  0.510318E+00  0.510668E+00  0.510565E+00  0.510323E+00  0.510379E+00
  0.510223E+00  0.510270E+00  0.510381E+00  0.510207E+00  0.510508E+00  0.510887E+00
  0.510746E+00  0.510908E+00  0.511004E+00  0.510919E+00  0.511211E+00  0.511194E+00
  0.511704E+00  0.511776E+00  0.512452E+00  0.512515E+00  0.512223E+00  0.512821E+00
  0.512815E+00  0.513028E+00  0.513151E+00  0.512980E+00  0.512853E+00  0.513051E+00
  0.513362E+00  0.513463E+00  0.513227E+00  0.512691E+00  0.513030E+00  0.512976E+00
  0.512650E+00  0.512431E+00  0.512110E+00  0.511933E+00  0.511678E+00  0.511929E+00
  0.511468E+00  0.511197E+00  0.510928E+00  0.510589E+00  0.510471E+00  0.510522E+00
  0.510438E+00  0.510391E+00  0.510668E+00  0.510318E+00  0.510330E+00  0.510246E+00
  0.510241E+00  0.510299E+00  0.510416E+00  0.510310E+00  0.510325E+00  0.510536E+00
  0.510541E+00  0.510475E+00  0.510898E+00  0.511252E+00  0.511291E+00  0.511518E+00
  0.511572E+00  0.511904E+00  0.511861E+00  0.512216E+00  0.512229E+00  0.512286E+00
  0.512709E+00  0.512659E+00  0.512876E+00  0.512975E+00  0.513031E+00  0.513061E+00
  0.513025E+00  0.513101E+00  0.513133E+00  0.513016E+00  0.512821E+00  0.512941E+00
  0.512703E+00  0.512593E+00  0.512408E+00  0.512110E+00  0.512089E+00  0.511694E+00
  0.511812E+00  0.511515E+00  0.511215E+00  0.511165E+00  0.511099E+00  0.510881E+00
  0.510772E+00  0.510699E+00  0.510373E+00  0.510318E+00  0.510298E+00  0.510346E+00
  0.510240E+00  0.510059E+00  0.510196E+00  0.510338E+00  0.510134E+00  0.510378E+00
  0.510485E+00  0.510429E+00  0.510589E+00  0.510761E+00  0.510927E+00  0.511184E+00
  0.511424E+00  0.511629E+00  0.511783E+00  0.511842E+00  0.512046E+00  0.512083E+00
[...]
  0.510692E+00  0.510692E+00  0.510812E+00  0.510605E+00  0.510717E+00  0.510632E+00
  0.510637E+00  0.510924E+00  0.510733E+00  0.510971E+00  0.510837E+00  0.511127E+00
  0.511145E+00  0.510955E+00  0.510876E+00  0.511053E+00  0.511292E+00  0.511230E+00
  0.511019E+00  0.511115E+00  0.510888E+00  0.510838E+00  0.511263E+00  0.510934E+00
  0.510887E+00  0.511151E+00  0.511235E+00  0.511292E+00  0.511397E+00  0.511379E+00
  0.511230E+00  0.511454E+00  0.511259E+00  0.511252E+00  0.511312E+00  0.511276E+00
  0.511183E+00  0.511141E+00  0.511202E+00  0.511162E+00  0.511184E+00  0.510990E+00
  0.511043E+00  0.510998E+00  0.511056E+00  0.510932E+00  0.510834E+00  0.511039E+00
  0.510910E+00  0.510761E+00  0.510755E+00  0.510893E+00  0.510678E+00  0.510909E+00
  0.510888E+00  0.510535E+00  0.511019E+00  0.510971E+00  0.510958E+00  0.510913E+00
  0.511073E+00  0.511065E+00  0.511030E+00  0.510985E+00  0.511129E+00  0.511198E+00
  0.511129E+00  0.510845E+00  0.511088E+00  0.510866E+00  0.511061E+00  0.511365E+00
  0.511064E+00  0.511069E+00  0.511155E+00  0.511388E+00  0.511258E+00  0.510947E+00
  0.510988E+00  0.511065E+00  0.511154E+00  0.511208E+00  0.511113E+00  0.511173E+00
  0.511060E+00  0.511021E+00  0.511105E+00  0.511147E+00  0.511121E+00  0.510723E+00
  0.510786E+00  0.510956E+00  0.510945E+00  0.511016E+00  0.510866E+00  0.510731E+00
  0.510806E+00  0.510772E+00  0.510934E+00  0.510984E+00  0.510773E+00  0.510796E+00
  0.511124E+00  0.511297E+00  0.510824E+00  0.511016E+00  0.510958E+00  0.511083E+00
  0.510960E+00  0.510861E+00  0.510945E+00  0.511038E+00  0.510911E+00  0.510946E+00
  0.510852E+00  0.511110E+00  0.511032E+00  0.511346E+00  0.511013E+00  0.511167E+00
  0.511042E+00  0.510926E+00  0.511163E+00  0.510946E+00  0.511055E+00  0.511079E+00
  0.511146E+00  0.511159E+00  0.511390E+00  0.510983E+00  0.510995E+00  0.511151E+00
  0.511248E+00  0.511176E+00  0.511138E+00  0.510953E+00  0.510905E+00  0.511128E+00
  0.510822E+00  0.511107E+00  0.510917E+00  0.510914E+00  0.510950E+00  0.511147E+00
  0.511157E+00  0.511057E+00  0.510967E+00  0.511024E+00  0.511088E+00  0.510831E+00
  0.510993E+00  0.510775E+00  0.511070E+00  0.510964E+00  0.511108E+00  0.511083E+00
  0.511147E+00  0.511000E+00  0.510890E+00  0.511065E+00  0.511059E+00  0.510971E+00
  0.511104E+00  0.510875E+00  0.511259E+00  0.511078E+00  0.511235E+00  0.510962E+00
  0.511142E+00  0.511035E+00  0.510955E+00  0.511049E+00  0.510838E+00  0.510934E+00
  0.510997E+00  0.511316E+00  0.510969E+00  0.511247E+00  0.510995E+00  0.511059E+00
  0.511147E+00  0.511000E+00  0.510890E+00  0.511065E+00  0.511059E+00  0.510971E+00
  0.511104E+00  0.510875E+00  0.511259E+00  0.511078E+00  0.511235E+00  0.510962E+00
  0.511142E+00  0.511035E+00  0.510955E+00  0.511049E+00  0.510838E+00  0.510934E+00
  0.510997E+00  0.511316E+00  0.510969E+00  0.511247E+00  0.510995E+00  0.511059E+00
  0.511147E+00  0.511151E+00  0.511248E+00  0.511176E+00  0.511138E+00  0.510953E+00
  0.510905E+00  0.511128E+00  0.510822E+00  0.511107E+00  0.510917E+00  0.510914E+00
  0.510950E+00  0.511147E+00  0.511157E+00  0.511057E+00  0.510967E+00  0.511024E+00
  0.511088E+00  0.510831E+00  0.510993E+00  0.510775E+00  0.511070E+00  0.510964E+00
  0.511108E+00  0.511083E+00  0.510960E+00  0.510861E+00  0.510945E+00  0.511038E+00
  0.510911E+00  0.510946E+00  0.510852E+00  0.511110E+00  0.511032E+00  0.511346E+00
  0.511013E+00  0.511167E+00  0.511042E+00  0.510926E+00  0.511163E+00  0.510946E+00
  0.511055E+00  0.511079E+00  0.511146E+00  0.511159E+00  0.511390E+00  0.510983E+00
  0.510995E+00  0.511151E+00  0.511113E+00  0.511173E+00  0.511060E+00  0.511021E+00
  0.511105E+00  0.511147E+00  0.511121E+00  0.510723E+00  0.510786E+00  0.510956E+00
  0.510945E+00  0.511016E+00  0.510866E+00  0.510731E+00  0.510806E+00  0.510772E+00
  0.510934E+00  0.510984E+00  0.510773E+00  0.510796E+00  0.511124E+00  0.511297E+00
  0.510824E+00  0.511016E+00  0.510958E+00  0.510913E+00  0.511073E+00  0.511065E+00
  0.511030E+00  0.510985E+00  0.511129E+00  0.511198E+00  0.511129E+00  0.510845E+00
  0.511088E+00  0.510866E+00  0.511061E+00  0.511365E+00  0.511064E+00  0.511069E+00
  0.511155E+00  0.511388E+00  0.511258E+00  0.510947E+00  0.510988E+00  0.511065E+00
  0.511154E+00  0.511208E+00  0.511113E+00  0.511252E+00  0.511312E+00  0.511276E+00
  0.511183E+00  0.511141E+00  0.511202E+00  0.511162E+00  0.511184E+00  0.510990E+00
  0.511043E+00  0.510998E+00  0.511056E+00  0.510932E+00  0.510834E+00  0.511039E+00
  0.510910E+00  0.510761E+00  0.510755E+00  0.510893E+00  0.510678E+00  0.510909E+00
  0.510888E+00  0.510535E+00  0.511019E+00  0.510971E+00  0.510837E+00  0.511127E+00
  0.511145E+00  0.510955E+00  0.510876E+00  0.511053E+00  0.511292E+00  0.511230E+00
  0.511019E+00  0.511115E+00  0.510888E+00  0.510838E+00  0.511263E+00  0.510934E+00
  0.510887E+00  0.511151E+00  0.511235E+00  0.511292E+00  0.511397E+00  0.511379E+00
  0.511230E+00  0.511454E+00  0.511259E+00  0.511252E+00  0.511430E+00  0.511385E+00
  0.511435E+00  0.511392E+00  0.511211E+00  0.511239E+00  0.511050E+00  0.511219E+00
  0.511099E+00  0.510932E+00  0.510887E+00  0.510889E+00  0.510965E+00  0.510867E+00
  0.510904E+00  0.510801E+00  0.510692E+00  0.510692E+00  0.510812E+00  0.510605E+00
  0.510717E+00  0.510632E+00  0.510637E+00  0.510924E+00  0.510733E+00  0.510701E+00
  0.510931E+00  0.511032E+00  0.510859E+00  0.510689E+00  0.510959E+00  0.511182E+00
  0.510907E+00  0.510838E+00  0.510942E+00  0.511116E+00  0.511055E+00  0.511116E+00
  0.511086E+00  0.511230E+00  0.511377E+00  0.511222E+00  0.511188E+00  0.511455E+00
  0.511307E+00  0.511309E+00  0.511539E+00  0.511255E+00  0.511430E+00  0.511277E+00
  0.511234E+00  0.511273E+00  0.511332E+00  0.511349E+00  0.511411E+00  0.511324E+00
  0.511056E+00  0.510995E+00  0.510763E+00  0.510810E+00  0.510817E+00  0.510892E+00
  0.510802E+00  0.510756E+00  0.510786E+00  0.510844E+00  0.510793E+00  0.510581E+00
  0.510600E+00  0.510751E+00  0.510392E+00  0.510569E+00  0.510738E+00  0.510600E+00
  0.510667E+00  0.510682E+00  0.510874E+00  0.510800E+00  0.510524E+00  0.510836E+00
  0.511040E+00  0.510695E+00  0.510810E+00  0.510816E+00  0.511152E+00  0.511174E+00
  0.511064E+00  0.511280E+00  0.511166E+00  0.511254E+00  0.511474E+00  0.511241E+00
  0.511309E+00  0.511301E+00  0.511494E+00  0.511588E+00  0.511389E+00  0.511277E+00
  0.511369E+00  0.511606E+00  0.511327E+00  0.511274E+00  0.511355E+00  0.511068E+00
  0.511393E+00  0.511060E+00  0.511213E+00  0.511105E+00  0.511091E+00  0.510951E+00
  0.510835E+00  0.510925E+00  0.510852E+00  0.510726E+00  0.510662E+00  0.510647E+00
  0.510578E+00  0.510697E+00  0.510845E+00  0.510507E+00  0.510713E+00  0.510700E+00
  0.510529E+00  0.510688E+00  0.510684E+00  0.510810E+00  0.510752E+00  0.510606E+00
  0.510880E+00  0.511032E+00  0.510754E+00  0.510864E+00  0.510856E+00  0.511168E+00
  0.511191E+00  0.511293E+00  0.511525E+00  0.511271E+00  0.511426E+00  0.511626E+00
  0.511310E+00  0.511398E+00  0.511572E+00  0.511502E+00  0.511290E+00  0.511479E+00
  0.511369E+00  0.511538E+00  0.511725E+00  0.511346E+00  0.511448E+00  0.511726E+00
  0.511232E+00  0.511400E+00  0.511044E+00  0.511211E+00  0.511226E+00  0.511052E+00
  0.510680E+00  0.510465E+00  0.510789E+00  0.510764E+00  0.510689E+00  0.510680E+00
  0.510632E+00  0.510771E+00  0.510544E+00  0.510565E+00  0.510647E+00  0.510837E+00
  0.510638E+00  0.510430E+00  0.510682E+00  0.510707E+00  0.510674E+00  0.510707E+00
  0.510811E+00  0.510917E+00  0.511000E+00  0.510991E+00  0.511046E+00  0.511092E+00
  0.511309E+00  0.511144E+00  0.511306E+00  0.511209E+00  0.511158E+00  0.511470E+00
  0.511469E+00  0.511526E+00  0.511575E+00  0.511538E+00  0.511452E+00  0.511371E+00
  0.511677E+00  0.511538E+00  0.511556E+00  0.511701E+00  0.511634E+00  0.511511E+00
  0.511448E+00  0.511271E+00  0.511308E+00  0.511305E+00  0.511291E+00  0.511211E+00
  0.510941E+00  0.510762E+00  0.510665E+00  0.510742E+00  0.510658E+00  0.510672E+00
  0.510758E+00  0.510597E+00  0.510805E+00  0.510551E+00  0.510512E+00  0.510502E+00
  0.510451E+00  0.510581E+00  0.510639E+00  0.510798E+00  0.510754E+00  0.510631E+00
  0.510632E+00  0.510718E+00  0.510732E+00  0.510876E+00  0.511212E+00  0.511272E+00
  0.511203E+00  0.511249E+00  0.511056E+00  0.511370E+00  0.511242E+00  0.511223E+00
  0.511363E+00  0.511389E+00  0.511671E+00  0.511598E+00  0.511495E+00  0.511511E+00
  0.511625E+00  0.511611E+00  0.511556E+00  0.511558E+00  0.511576E+00  0.511600E+00
  0.511395E+00  0.511197E+00  0.511343E+00  0.511194E+00  0.511376E+00  0.511146E+00
  0.511150E+00  0.510882E+00  0.511007E+00  0.511013E+00  0.510681E+00  0.510644E+00
  0.510614E+00  0.510677E+00  0.510594E+00  0.510676E+00  0.510612E+00  0.510680E+00
  0.510665E+00  0.510475E+00  0.510563E+00  0.510423E+00  0.510420E+00  0.510574E+00
  0.510648E+00  0.510735E+00  0.510874E+00  0.510984E+00  0.510882E+00  0.510851E+00
  0.510758E+00  0.510905E+00  0.511182E+00  0.511157E+00  0.511323E+00  0.511486E+00
  0.511629E+00  0.511611E+00  0.511621E+00  0.511525E+00  0.511493E+00  0.511651E+00
  0.511517E+00  0.511760E+00  0.511480E+00  0.511558E+00  0.511534E+00  0.511606E+00
  0.511529E+00  0.511395E+00  0.511317E+00  0.511476E+00  0.511277E+00  0.511305E+00
  0.510938E+00  0.511167E+00  0.510936E+00  0.510938E+00  0.510788E+00  0.510538E+00
  0.510680E+00  0.510582E+00  0.510542E+00  0.510655E+00  0.510613E+00  0.510556E+00
  0.510375E+00  0.510439E+00  0.510457E+00  0.510568E+00  0.510456E+00  0.510528E+00
  0.510641E+00  0.510637E+00  0.510801E+00  0.510837E+00  0.510878E+00  0.510824E+00
  0.510888E+00  0.510845E+00  0.511017E+00  0.511091E+00  0.511193E+00  0.511146E+00
  0.511356E+00  0.511501E+00  0.511536E+00  0.511687E+00  0.511479E+00  0.511420E+00
  0.511623E+00  0.511473E+00  0.511874E+00  0.511512E+00  0.511534E+00  0.511636E+00
  0.511699E+00  0.511548E+00  0.511450E+00  0.511470E+00  0.511449E+00  0.511274E+00
  0.511275E+00  0.511093E+00  0.511254E+00  0.511096E+00  0.510975E+00  0.510611E+00
  0.510649E+00  0.510623E+00  0.510494E+00  0.510467E+00  0.510562E+00  0.510388E+00
  0.510556E+00  0.510373E+00  0.510364E+00  0.510379E+00  0.510591E+00  0.510584E+00
  0.510723E+00  0.510761E+00  0.510598E+00  0.510747E+00  0.510702E+00  0.510761E+00
  0.510858E+00  0.511042E+00  0.511022E+00  0.511288E+00  0.511072E+00  0.511216E+00
  0.511211E+00  0.511386E+00  0.511385E+00  0.511458E+00  0.511593E+00  0.511542E+00
  0.511444E+00  0.511670E+00  0.511474E+00  0.511651E+00  0.511664E+00  0.511636E+00
  0.511722E+00  0.511529E+00  0.511345E+00  0.511474E+00  0.511765E+00  0.511664E+00
  0.511306E+00  0.511198E+00  0.511124E+00  0.511125E+00  0.511028E+00  0.510984E+00
  0.510604E+00  0.510804E+00  0.510619E+00  0.510554E+00  0.510623E+00  0.510568E+00
  0.510162E+00  0.510472E+00  0.510536E+00  0.510583E+00  0.510490E+00  0.510568E+00
  0.510359E+00  0.510436E+00  0.510601E+00  0.510518E+00  0.510726E+00  0.510802E+00
  0.510988E+00  0.510965E+00  0.510846E+00  0.510731E+00  0.511315E+00  0.511198E+00
  0.511274E+00  0.511183E+00  0.511333E+00  0.511351E+00  0.511494E+00  0.511533E+00
  0.511558E+00  0.511549E+00  0.511914E+00  0.511617E+00  0.511522E+00  0.511846E+00
  0.511722E+00  0.511636E+00  0.511699E+00  0.511548E+00  0.511450E+00  0.511470E+00
  0.511449E+00  0.511274E+00  0.511275E+00  0.511093E+00  0.511254E+00  0.511096E+00
  0.510975E+00  0.510611E+00  0.510649E+00  0.510623E+00  0.510494E+00  0.510467E+00
  0.510562E+00  0.510388E+00  0.510556E+00  0.510373E+00  0.510364E+00  0.510379E+00
  0.510591E+00  0.510584E+00  0.510723E+00  0.510761E+00  0.510598E+00  0.510747E+00
  0.510702E+00  0.510761E+00  0.510858E+00  0.511042E+00  0.511022E+00  0.511288E+00
  0.511072E+00  0.511216E+00  0.511211E+00  0.511386E+00  0.511385E+00  0.511458E+00
  0.511593E+00  0.511542E+00  0.511444E+00  0.511670E+00  0.511474E+00  0.511651E+00
  0.511664E+00  0.511636E+00  0.511534E+00  0.511606E+00  0.511529E+00  0.511395E+00
  0.511317E+00  0.511476E+00  0.511277E+00  0.511305E+00  0.510938E+00  0.511167E+00
  0.510936E+00  0.510938E+00  0.510788E+00  0.510538E+00  0.510680E+00  0.510582E+00
  0.510542E+00  0.510655E+00  0.510613E+00  0.510556E+00  0.510375E+00  0.510439E+00
  0.510457E+00  0.510568E+00  0.510456E+00  0.510528E+00  0.510641E+00  0.510637E+00
  0.510801E+00  0.510837E+00  0.510878E+00  0.510824E+00  0.510888E+00  0.510845E+00
  0.511017E+00  0.511091E+00  0.511193E+00  0.511146E+00  0.511356E+00  0.511501E+00
  0.511536E+00  0.511687E+00  0.511479E+00  0.511420E+00  0.511623E+00  0.511473E+00
  0.511874E+00  0.511512E+00  0.511534E+00  0.511558E+00  0.511576E+00  0.511600E+00
  0.511395E+00  0.511197E+00  0.511343E+00  0.511194E+00  0.511376E+00  0.511146E+00
  0.511150E+00  0.510882E+00  0.511007E+00  0.511013E+00  0.510681E+00  0.510644E+00
  0.510614E+00  0.510677E+00  0.510594E+00  0.510676E+00  0.510612E+00  0.510680E+00
  0.510665E+00  0.510475E+00  0.510563E+00  0.510423E+00  0.510420E+00  0.510574E+00
  0.510648E+00  0.510735E+00  0.510874E+00  0.510984E+00  0.510882E+00  0.510851E+00
  0.510758E+00  0.510905E+00  0.511182E+00  0.511157E+00  0.511323E+00  0.511486E+00
  0.511629E+00  0.511611E+00  0.511621E+00  0.511525E+00  0.511493E+00  0.511651E+00
  0.511517E+00  0.511760E+00  0.511480E+00  0.511558E+00  0.511556E+00  0.511701E+00
  0.511634E+00  0.511511E+00  0.511448E+00  0.511271E+00  0.511308E+00  0.511305E+00
  0.511291E+00  0.511211E+00  0.510941E+00  0.510762E+00  0.510665E+00  0.510742E+00
  0.510658E+00  0.510672E+00  0.510758E+00  0.510597E+00  0.510805E+00  0.510551E+00
  0.510512E+00  0.510502E+00  0.510451E+00  0.510581E+00  0.510639E+00  0.510798E+00
  0.510754E+00  0.510631E+00  0.510632E+00  0.510718E+00  0.510732E+00  0.510876E+00
  0.511212E+00  0.511272E+00  0.511203E+00  0.511249E+00  0.511056E+00  0.511370E+00
  0.511242E+00  0.511223E+00  0.511363E+00  0.511389E+00  0.511671E+00  0.511598E+00
  0.511495E+00  0.511511E+00  0.511625E+00  0.511611E+00  0.511556E+00  0.511538E+00
  0.511725E+00  0.511346E+00  0.511448E+00  0.511726E+00  0.511232E+00  0.511400E+00
  0.511044E+00  0.511211E+00  0.511226E+00  0.511052E+00  0.510680E+00  0.510465E+00
  0.510789E+00  0.510764E+00  0.510689E+00  0.510680E+00  0.510632E+00  0.510771E+00
  0.510544E+00  0.510565E+00  0.510647E+00  0.510837E+00  0.510638E+00  0.510430E+00
  0.510682E+00  0.510707E+00  0.510674E+00  0.510707E+00  0.510811E+00  0.510917E+00
  0.511000E+00  0.510991E+00  0.511046E+00  0.511092E+00  0.511309E+00  0.511144E+00
  0.511306E+00  0.511209E+00  0.511158E+00  0.511470E+00  0.511469E+00  0.511526E+00
  0.511575E+00  0.511538E+00  0.511452E+00  0.511371E+00  0.511677E+00  0.511538E+00
  0.511369E+00  0.511606E+00  0.511327E+00  0.511274E+00  0.511355E+00  0.511068E+00
  0.511393E+00  0.511060E+00  0.511213E+00  0.511105E+00  0.511091E+00  0.510951E+00
  0.510835E+00  0.510925E+00  0.510852E+00  0.510726E+00  0.510662E+00  0.510647E+00
  0.510578E+00  0.510697E+00  0.510845E+00  0.510507E+00  0.510713E+00  0.510700E+00
  0.510529E+00  0.510688E+00  0.510684E+00  0.510810E+00  0.510752E+00  0.510606E+00
  0.510880E+00  0.511032E+00  0.510754E+00  0.510864E+00  0.510856E+00  0.511168E+00
  0.511191E+00  0.511293E+00  0.511525E+00  0.511271E+00  0.511426E+00  0.511626E+00
  0.511310E+00  0.511398E+00  0.511572E+00  0.511502E+00  0.511290E+00  0.511479E+00
  0.511369E+00  0.511277E+00  0.511234E+00  0.511273E+00  0.511332E+00  0.511349E+00
  0.511411E+00  0.511324E+00  0.511056E+00  0.510995E+00  0.510763E+00  0.510810E+00
  0.510817E+00  0.510892E+00  0.510802E+00  0.510756E+00  0.510786E+00  0.510844E+00
  0.510793E+00  0.510581E+00  0.510600E+00  0.510751E+00  0.510392E+00  0.510569E+00
  0.510738E+00  0.510600E+00  0.510667E+00  0.510682E+00  0.510874E+00  0.510800E+00
  0.510524E+00  0.510836E+00  0.511040E+00  0.510695E+00  0.510810E+00  0.510816E+00
  0.511152E+00  0.511174E+00  0.511064E+00  0.511280E+00  0.511166E+00  0.511254E+00
  0.511474E+00  0.511241E+00  0.511309E+00  0.511301E+00  0.511494E+00  0.511588E+00
  0.511389E+00  0.511277E+00  0.511430E+00  0.511385E+00  0.511435E+00  0.511392E+00
  0.511211E+00  0.511239E+00  0.511050E+00  0.511219E+00  0.511099E+00  0.510932E+00
  0.510887E+00  0.510889E+00  0.510965E+00  0.510867E+00  0.510904E+00  0.510801E+00
  0.510692E+00  0.510692E+00  0.510812E+00  0.510605E+00  0.510717E+00  0.510632E+00
  0.510637E+00  0.510924E+00  0.510733E+00  0.510701E+00  0.510931E+00  0.511032E+00
  0.510859E+00  0.510689E+00  0.510959E+00  0.511182E+00  0.510907E+00  0.510838E+00
  0.510942E+00  0.511116E+00  0.511055E+00  0.511116E+00  0.511086E+00  0.511230E+00
  0.511377E+00  0.511222E+00  0.511188E+00  0.511455E+00  0.511307E+00  0.511309E+00
  0.511539E+00  0.511255E+00  0.511430E+00  0.511252E+00  0.511312E+00  0.511276E+00
  0.511183E+00  0.511141E+00  0.511202E+00  0.511162E+00  0.511184E+00  0.510990E+00
  0.511043E+00  0.510998E+00  0.511056E+00  0.510932E+00  0.510834E+00  0.511039E+00
  0.510910E+00  0.510761E+00  0.510755E+00  0.510893E+00  0.510678E+00  0.510909E+00
  0.510888E+00  0.510535E+00  0.511019E+00  0.510971E+00  0.510837E+00  0.511127E+00
  0.511145E+00  0.510955E+00  0.510876E+00  0.511053E+00  0.511292E+00  0.511230E+00
  0.511019E+00  0.511115E+00  0.510888E+00  0.510838E+00  0.511263E+00  0.510934E+00
  0.510887E+00  0.511151E+00  0.511235E+00  0.511292E+00  0.511397E+00  0.511379E+00
  0.511230E+00  0.511454E+00  0.511259E+00  0.511252E+00  0.511113E+00  0.511173E+00
  0.511060E+00  0.511021E+00  0.511105E+00  0.511147E+00  0.511121E+00  0.510723E+00
  0.510786E+00  0.510956E+00  0.510945E+00  0.511016E+00  0.510866E+00  0.510731E+00
  0.510806E+00  0.510772E+00  0.510934E+00  0.510984E+00  0.510773E+00  0.510796E+00
  0.511124E+00  0.511297E+00  0.510824E+00  0.511016E+00  0.510958E+00  0.510913E+00
  0.511073E+00  0.511065E+00  0.511030E+00  0.510985E+00  0.511129E+00  0.511198E+00
  0.511129E+00  0.510845E+00  0.511088E+00  0.510866E+00  0.511061E+00  0.511365E+00
  0.511064E+00  0.511069E+00  0.511155E+00  0.511388E+00  0.511258E+00  0.510947E+00
  0.510988E+00  0.511065E+00  0.511154E+00  0.511208E+00  0.511113E+00  0.511151E+00
  0.511248E+00  0.511176E+00  0.511138E+00  0.510953E+00  0.510905E+00  0.511128E+00
  0.510822E+00  0.511107E+00  0.510917E+00  0.510914E+00  0.510950E+00  0.511147E+00
  0.511157E+00  0.511057E+00  0.510967E+00  0.511024E+00  0.511088E+00  0.510831E+00
  0.510993E+00  0.510775E+00  0.511070E+00  0.510964E+00  0.511108E+00  0.511083E+00
  0.510960E+00  0.510861E+00  0.510945E+00  0.511038E+00  0.510911E+00  0.510946E+00
  0.510852E+00  0.511110E+00  0.511032E+00  0.511346E+00  0.511013E+00  0.511167E+00
  0.511042E+00  0.510926E+00  0.511163E+00  0.510946E+00  0.511055E+00  0.511079E+00
  0.511146E+00  0.511159E+00  0.511390E+00  0.510983E+00  0.510995E+00  0.511151E+00
  0.511147E+00  0.511000E+00  0.510890E+00  0.511065E+00  0.511059E+00  0.510971E+00
  0.511104E+00  0.510875E+00  0.511259E+00  0.511078E+00  0.511235E+00  0.510962E+00
  0.511142E+00  0.511035E+00  0.510955E+00  0.511049E+00  0.510838E+00  0.510934E+00
  0.510997E+00  0.511316E+00  0.510969E+00  0.511247E+00  0.510995E+00  0.511059E+00
  0.511147E+00  0.511000E+00  0.510890E+00  0.511065E+00  0.511059E+00  0.510971E+00
  0.511104E+00  0.510875E+00  0.511259E+00  0.511078E+00  0.511235E+00  0.510962E+00
  0.511142E+00  0.511035E+00  0.510955E+00  0.511049E+00  0.510838E+00  0.510934E+00
  0.510997E+00  0.511316E+00  0.510969E+00  0.511247E+00  0.510995E+00  0.511059E+00
  0.511147E+00
END_DATAGRID_3D
END_BLOCK_DATAGRID_3D
     Plot Type: 3D                     Output format: XCrySDen     

     POST-PROC    :      2.49s CPU      2.24s WALL


   This run was terminated on:  22:58:38  26May2026            

=------------------------------------------------------------------------------=
   JOB DONE.
=------------------------------------------------------------------------------=
