
     Program PWSCF v.6.7MaX starts on 26May2026 at 22:57:10 

     This program is part of the open-source Quantum ESPRESSO suite
     for quantum simulation of materials; please cite
         "P. Giannozzi et al., J. Phys.:Condens. Matter 21 395502 (2009);
         "P. Giannozzi et al., J. Phys.:Condens. Matter 29 465901 (2017);
          URL http://www.quantum-espresso.org", 
     in publications or presentations arising from this work. More details at
     http://www.quantum-espresso.org/quote

     Parallel version (MPI), running on     6 processors

     MPI processes distributed on     1 nodes
     K-points division:     npool     =       3
     R & G space division:  proc/nbgrp/npool/nimage =       2
     Waiting for input...
     Reading input from standard input

     Current dimensions of program PWSCF are:
     Max number of different atomic species (ntypx) = 10
     Max number of k-points (npk) =  40000
     Max angular momentum in pseudopotentials (lmaxx) =  3

     Subspace diagonalization in iterative solution of the eigenvalue problem:
     a serial algorithm will be used

     Message from routine setup:
     using ibrav=0 with symmetry is DISCOURAGED, use correct ibrav instead

     Parallelization info
     --------------------
     sticks:   dense  smooth     PW     G-vecs:    dense   smooth      PW
     Min         814     320     99                56292    14211    2357
     Max         815     321    100                56293    14214    2358
     Sum        1629     641    199               112585    28425    4715



     bravais-lattice index     =            0
     lattice parameter (alat)  =       8.6086  a.u.
     unit-cell volume          =    1282.3734 (a.u.)^3
     number of atoms/cell      =            4
     number of atomic types    =            2
     number of electrons       =        40.00
     number of Kohn-Sham states=           30
     kinetic-energy cutoff     =      30.0000  Ry
     charge density cutoff     =     300.0000  Ry
     scf convergence threshold =      1.0E-08
     mixing beta               =       0.7000
     number of iterations used =            8  plain     mixing
     Exchange-correlation= SLA  PW   PBE  PBE
                           (   1   4   3   4   0   0   0)

     celldm(1)=   8.608647  celldm(2)=   0.000000  celldm(3)=   0.000000
     celldm(4)=   0.000000  celldm(5)=   0.000000  celldm(6)=   0.000000

     crystal axes: (cart. coord. in units of alat)
               a(1) = (   1.000000   0.000000   0.000000 )  
               a(2) = (   0.000000   0.915684   0.000000 )  
               a(3) = (   0.000000   0.000000   2.195149 )  

     reciprocal axes: (cart. coord. in units 2 pi/alat)
               b(1) = (  1.000000  0.000000  0.000000 )  
               b(2) = (  0.000000  1.092079  0.000000 )  
               b(3) = (  0.000000  0.000000  0.455550 )  


     PseudoPot. # 1 for Sn read from file:
     ../pseudo/Sn_pbe_v1.uspp.F.UPF
     MD5 check sum: 4cf58ce39ec5d5d420df3dd08604eb00
     Pseudo is Ultrasoft + core correction, Zval = 14.0
     Generated by new atomic code, or converted to UPF format
     Using radial grid of  891 points,  6 beta functions with: 
                l(1) =   0
                l(2) =   0
                l(3) =   1
                l(4) =   1
                l(5) =   2
                l(6) =   2
     Q(r) pseudized with  6 coefficients,  rinner =    1.200   1.200   1.200
                                                       1.200   1.200

     PseudoPot. # 2 for Se read from file:
     ../pseudo/Se_pbe_v1.uspp.F.UPF
     MD5 check sum: 1b3568f3a8ae88f9a2a0ad0698632c85
     Pseudo is Ultrasoft + core correction, Zval =  6.0
     Generated by new atomic code, or converted to UPF format
     Using radial grid of  877 points,  6 beta functions with: 
                l(1) =   0
                l(2) =   0
                l(3) =   1
                l(4) =   1
                l(5) =   2
                l(6) =   2
     Q(r) pseudized with  8 coefficients,  rinner =    1.300   1.300   1.300
                                                       1.300   1.300

     atomic species   valence    mass     pseudopotential
        Sn            14.00   118.71000     Sn( 1.00)
        Se             6.00    78.97100     Se( 1.00)

      4 Sym. Ops. (no inversion) found ( 3 have fractional translation)


                                    s                        frac. trans.

      isym =  1     identity                                     

 cryst.   s( 1) = (     1          0          0      )
                  (     0          1          0      )
                  (     0          0          1      )

 cart.    s( 1) = (  1.0000000  0.0000000  0.0000000 )
                  (  0.0000000  1.0000000  0.0000000 )
                  (  0.0000000  0.0000000  1.0000000 )


      isym =  2     180 deg rotation - cart. axis [1,0,0]        

 cryst.   s( 2) = (     1          0          0      )    f =( -0.5000000 )
                  (     0         -1          0      )       (  0.0000000 )
                  (     0          0         -1      )       ( -0.0000000 )

 cart.    s( 2) = (  1.0000000  0.0000000  0.0000000 )    f =( -0.5000000 )
                  (  0.0000000 -1.0000000  0.0000000 )       (  0.0000000 )
                  (  0.0000000  0.0000000 -1.0000000 )       ( -0.0000000 )


      isym =  3     inv. 180 deg rotation - cart. axis [0,0,1]   

 cryst.   s( 3) = (     1          0          0      )    f =( -0.5000000 )
                  (     0          1          0      )       (  0.5000000 )
                  (     0          0         -1      )       ( -0.0000000 )

 cart.    s( 3) = (  1.0000000  0.0000000  0.0000000 )    f =( -0.5000000 )
                  (  0.0000000  1.0000000  0.0000000 )       (  0.4578422 )
                  (  0.0000000  0.0000000 -1.0000000 )       ( -0.0000000 )


      isym =  4     inv. 180 deg rotation - cart. axis [0,1,0]   

 cryst.   s( 4) = (     1          0          0      )    f =(  0.0000000 )
                  (     0         -1          0      )       (  0.5000000 )
                  (     0          0          1      )       (  0.0000000 )

 cart.    s( 4) = (  1.0000000  0.0000000  0.0000000 )    f =(  0.0000000 )
                  (  0.0000000 -1.0000000  0.0000000 )       (  0.4578422 )
                  (  0.0000000  0.0000000  1.0000000 )       (  0.0000000 )


   Cartesian axes

     site n.     atom                  positions (alat units)
         1           Sn  tau(   1) = (   0.0995059   0.6867633   0.7923485  )
         2           Se  tau(   2) = (   0.5295331   0.2289211   0.8065505  )
         3           Se  tau(   3) = (   0.0295331   0.6867633   1.3885982  )
         4           Sn  tau(   4) = (   0.5995059   0.2289211   1.4028003  )

   Crystallographic axes

     site n.     atom                  positions (cryst. coord.)
         1           Sn  tau(   1) = (  0.0995059  0.7500000  0.3609543  )
         2           Se  tau(   2) = (  0.5295331  0.2500000  0.3674241  )
         3           Se  tau(   3) = (  0.0295331  0.7500000  0.6325759  )
         4           Sn  tau(   4) = (  0.5995059  0.2500000  0.6390457  )

     number of k points=    25
                       cart. coord. in units 2pi/alat
        k(    1) = (   0.0000000   0.0000000   0.0000000), wk =   0.0312500
        k(    2) = (   0.0000000   0.1365099   0.0000000), wk =   0.0625000
        k(    3) = (   0.0000000   0.2730198   0.0000000), wk =   0.0625000
        k(    4) = (   0.0000000   0.4095298   0.0000000), wk =   0.0625000
        k(    5) = (   0.0000000  -0.5460397   0.0000000), wk =   0.0312500
        k(    6) = (   0.1250000   0.0000000   0.0000000), wk =   0.0625000
        k(    7) = (   0.1250000   0.1365099   0.0000000), wk =   0.1250000
        k(    8) = (   0.1250000   0.2730198   0.0000000), wk =   0.1250000
        k(    9) = (   0.1250000   0.4095298   0.0000000), wk =   0.1250000
        k(   10) = (   0.1250000  -0.5460397   0.0000000), wk =   0.0625000
        k(   11) = (   0.2500000   0.0000000   0.0000000), wk =   0.0625000
        k(   12) = (   0.2500000   0.1365099   0.0000000), wk =   0.1250000
        k(   13) = (   0.2500000   0.2730198   0.0000000), wk =   0.1250000
        k(   14) = (   0.2500000   0.4095298   0.0000000), wk =   0.1250000
        k(   15) = (   0.2500000  -0.5460397   0.0000000), wk =   0.0625000
        k(   16) = (   0.3750000   0.0000000   0.0000000), wk =   0.0625000
        k(   17) = (   0.3750000   0.1365099   0.0000000), wk =   0.1250000
        k(   18) = (   0.3750000   0.2730198   0.0000000), wk =   0.1250000
        k(   19) = (   0.3750000   0.4095298   0.0000000), wk =   0.1250000
        k(   20) = (   0.3750000  -0.5460397   0.0000000), wk =   0.0625000
        k(   21) = (  -0.5000000   0.0000000   0.0000000), wk =   0.0312500
        k(   22) = (  -0.5000000   0.1365099   0.0000000), wk =   0.0625000
        k(   23) = (  -0.5000000   0.2730198   0.0000000), wk =   0.0625000
        k(   24) = (  -0.5000000   0.4095298   0.0000000), wk =   0.0625000
        k(   25) = (  -0.5000000  -0.5460397   0.0000000), wk =   0.0312500

                       cryst. coord.
        k(    1) = (   0.0000000   0.0000000   0.0000000), wk =   0.0312500
        k(    2) = (   0.0000000   0.1250000   0.0000000), wk =   0.0625000
        k(    3) = (   0.0000000   0.2500000   0.0000000), wk =   0.0625000
        k(    4) = (   0.0000000   0.3750000   0.0000000), wk =   0.0625000
        k(    5) = (   0.0000000  -0.5000000   0.0000000), wk =   0.0312500
        k(    6) = (   0.1250000   0.0000000   0.0000000), wk =   0.0625000
        k(    7) = (   0.1250000   0.1250000   0.0000000), wk =   0.1250000
        k(    8) = (   0.1250000   0.2500000   0.0000000), wk =   0.1250000
        k(    9) = (   0.1250000   0.3750000   0.0000000), wk =   0.1250000
        k(   10) = (   0.1250000  -0.5000000   0.0000000), wk =   0.0625000
        k(   11) = (   0.2500000   0.0000000   0.0000000), wk =   0.0625000
        k(   12) = (   0.2500000   0.1250000   0.0000000), wk =   0.1250000
        k(   13) = (   0.2500000   0.2500000   0.0000000), wk =   0.1250000
        k(   14) = (   0.2500000   0.3750000   0.0000000), wk =   0.1250000
        k(   15) = (   0.2500000  -0.5000000   0.0000000), wk =   0.0625000
        k(   16) = (   0.3750000   0.0000000   0.0000000), wk =   0.0625000
        k(   17) = (   0.3750000   0.1250000   0.0000000), wk =   0.1250000
        k(   18) = (   0.3750000   0.2500000   0.0000000), wk =   0.1250000
        k(   19) = (   0.3750000   0.3750000   0.0000000), wk =   0.1250000
        k(   20) = (   0.3750000  -0.5000000   0.0000000), wk =   0.0625000
        k(   21) = (  -0.5000000   0.0000000   0.0000000), wk =   0.0312500
        k(   22) = (  -0.5000000   0.1250000   0.0000000), wk =   0.0625000
        k(   23) = (  -0.5000000   0.2500000   0.0000000), wk =   0.0625000
        k(   24) = (  -0.5000000   0.3750000   0.0000000), wk =   0.0625000
        k(   25) = (  -0.5000000  -0.5000000   0.0000000), wk =   0.0312500

     Dense  grid:   112585 G-vectors     FFT dimensions: (  48,  48, 108)

     Smooth grid:    28425 G-vectors     FFT dimensions: (  32,  30,  72)

     Dynamical RAM for                 wfc:       0.81 MB

     Dynamical RAM for     wfc (w. buffer):       8.14 MB

     Dynamical RAM for           str. fact:       1.72 MB

     Dynamical RAM for           local pot:       0.00 MB

     Dynamical RAM for          nlocal pot:       1.95 MB

     Dynamical RAM for                qrad:       2.78 MB

     Dynamical RAM for          rho,v,vnew:       5.42 MB

     Dynamical RAM for               rhoin:       1.81 MB

     Dynamical RAM for            rho*nmix:      13.74 MB

     Dynamical RAM for           G-vectors:       3.33 MB

     Dynamical RAM for          h,s,v(r/c):       0.16 MB

     Dynamical RAM for          <psi|beta>:       0.03 MB

     Dynamical RAM for                 psi:       1.63 MB

     Dynamical RAM for                hpsi:       1.63 MB

     Dynamical RAM for                spsi:       1.63 MB

     Dynamical RAM for      wfcinit/wfcrot:       1.65 MB

     Dynamical RAM for           addusdens:      54.40 MB

     Dynamical RAM for          addusforce:      54.84 MB

     Estimated static dynamical RAM per process >      46.23 MB

     Estimated max dynamical RAM per process >     101.06 MB

     Estimated total dynamical RAM >     606.38 MB

     Initial potential from superposition of free atoms

     starting charge   37.99977, renormalised to   40.00000

     negative rho (up, down):  5.995E-06 0.000E+00
     Starting wfcs are   26 randomized atomic wfcs +    4 random wfcs

     total cpu time spent up to now is        5.2 secs

     Self-consistent Calculation

     iteration #  1     ecut=    30.00 Ry     beta= 0.70
     Davidson diagonalization with overlap
     ethr =  1.00E-02,  avg # of iterations =  7.0

     total cpu time spent up to now is       20.1 secs

     total energy              =    -413.21514892 Ry
     estimated scf accuracy    <       1.37673007 Ry

     iteration #  2     ecut=    30.00 Ry     beta= 0.70
     Davidson diagonalization with overlap
     ethr =  3.44E-03,  avg # of iterations =  2.0

     total cpu time spent up to now is       27.1 secs

     total energy              =    -413.60797031 Ry
     estimated scf accuracy    <       0.72017474 Ry

     iteration #  3     ecut=    30.00 Ry     beta= 0.70
     Davidson diagonalization with overlap
     ethr =  1.80E-03,  avg # of iterations =  2.0

     total cpu time spent up to now is       34.1 secs

     total energy              =    -413.79189046 Ry
     estimated scf accuracy    <       0.04160493 Ry

     iteration #  4     ecut=    30.00 Ry     beta= 0.70
     Davidson diagonalization with overlap
     ethr =  1.04E-04,  avg # of iterations =  3.3

     total cpu time spent up to now is       42.0 secs

     total energy              =    -413.79859332 Ry
     estimated scf accuracy    <       0.00075585 Ry

     iteration #  5     ecut=    30.00 Ry     beta= 0.70
     Davidson diagonalization with overlap
     ethr =  1.89E-06,  avg # of iterations =  6.0

     total cpu time spent up to now is       52.7 secs

     total energy              =    -413.79874343 Ry
     estimated scf accuracy    <       0.00011093 Ry

     iteration #  6     ecut=    30.00 Ry     beta= 0.70
     Davidson diagonalization with overlap
     ethr =  2.77E-07,  avg # of iterations =  3.8

     total cpu time spent up to now is       60.6 secs

     total energy              =    -413.79876713 Ry
     estimated scf accuracy    <       0.00001108 Ry

     iteration #  7     ecut=    30.00 Ry     beta= 0.70
     Davidson diagonalization with overlap
     ethr =  2.77E-08,  avg # of iterations =  2.0

     total cpu time spent up to now is       66.3 secs

     total energy              =    -413.79876843 Ry
     estimated scf accuracy    <       0.00000156 Ry

     iteration #  8     ecut=    30.00 Ry     beta= 0.70
     Davidson diagonalization with overlap
     ethr =  3.90E-09,  avg # of iterations =  2.0

     total cpu time spent up to now is       74.8 secs

     total energy              =    -413.79876887 Ry
     estimated scf accuracy    <       0.00000020 Ry

     iteration #  9     ecut=    30.00 Ry     beta= 0.70
     Davidson diagonalization with overlap
     ethr =  5.11E-10,  avg # of iterations =  2.0

     total cpu time spent up to now is       81.2 secs

     End of self-consistent calculation

          k = 0.0000 0.0000 0.0000 (  3571 PWs)   bands (ev):

   -18.7931 -18.7823 -18.7804 -18.7750 -18.7691 -18.7483 -18.7451 -18.7388
   -18.7355 -18.7264 -10.8298  -9.8282  -3.8498  -2.7593  -1.0259  -0.7258
    -0.2658   0.5579   0.8534   1.9191   4.1609   5.6644   5.9357   6.2607
     6.6768   7.4578   7.7838   8.5609   8.7291   9.2342

     occupation numbers 
     1.0000   1.0000   1.0000   1.0000   1.0000   1.0000   1.0000   1.0000
     1.0000   1.0000   1.0000   1.0000   1.0000   1.0000   1.0000   1.0000
     1.0000   1.0000   1.0000   1.0000   0.0000   0.0000   0.0000   0.0000
     0.0000   0.0000   0.0000   0.0000   0.0000   0.0000

          k = 0.0000 0.1365 0.0000 (  3549 PWs)   bands (ev):

   -18.7908 -18.7819 -18.7803 -18.7766 -18.7677 -18.7487 -18.7454 -18.7378
   -18.7366 -18.7264 -10.7564  -9.8084  -4.0111  -2.9890  -0.9774  -0.6389
    -0.2084   0.5735   1.0748   1.8735   4.2176   5.6837   5.9434   5.9498
     6.2453   7.2784   7.5394   8.1181   8.7938   9.3171

     occupation numbers 
     1.0000   1.0000   1.0000   1.0000   1.0000   1.0000   1.0000   1.0000
     1.0000   1.0000   1.0000   1.0000   1.0000   1.0000   1.0000   1.0000
     1.0000   1.0000   1.0000   1.0000   0.0000   0.0000   0.0000   0.0000
     0.0000   0.0000   0.0000   0.0000   0.0000   0.0000

          k = 0.0000 0.2730 0.0000 (  3566 PWs)   bands (ev):

   -18.7871 -18.7852 -18.7781 -18.7758 -18.7647 -18.7503 -18.7460 -18.7395
   -18.7353 -18.7264 -10.5517  -9.7789  -4.3682  -3.5567  -0.7608  -0.3896
     0.0270   0.6857   1.5483   1.7009   4.4248   4.4580   5.2011   5.6417
     6.2520   6.3476   7.2822   8.5100   9.1067   9.7195

     occupation numbers 
     1.0000   1.0000   1.0000   1.0000   1.0000   1.0000   1.0000   1.0000
     1.0000   1.0000   1.0000   1.0000   1.0000   1.0000   1.0000   1.0000
     1.0000   1.0000   1.0000   1.0000   0.0000   0.0000   0.0000   0.0000
     0.0000   0.0000   0.0000   0.0000   0.0000   0.0000

          k = 0.0000 0.4095 0.0000 (  3558 PWs)   bands (ev):

   -18.7884 -18.7881 -18.7745 -18.7719 -18.7609 -18.7530 -18.7459 -18.7424
   -18.7319 -18.7271 -10.2661  -9.8171  -4.6348  -4.1733  -0.3721  -0.0228
     0.3390   0.7461   1.5333   2.0451   3.4770   4.5004   4.5508   4.8843
     5.1931   6.1479   7.3711   8.6547  10.0644  10.3446

     occupation numbers 
     1.0000   1.0000   1.0000   1.0000   1.0000   1.0000   1.0000   1.0000
     1.0000   1.0000   1.0000   1.0000   1.0000   1.0000   1.0000   1.0000
     1.0000   1.0000   1.0000   1.0000   0.0000   0.0000   0.0000   0.0000
     0.0000   0.0000   0.0000   0.0000   0.0000   0.0000

          k = 0.0000-0.5460 0.0000 (  3558 PWs)   bands (ev):

   -18.7895 -18.7895 -18.7713 -18.7713 -18.7568 -18.7568 -18.7447 -18.7447
   -18.7289 -18.7289  -9.9885  -9.9885  -4.5809  -4.5809   0.0421   0.0421
     0.5485   0.5485   1.8506   1.8506   3.6295   3.6295   4.4912   4.4912
     5.4868   5.4868   8.0299   8.0299  10.2319  10.2319

     occupation numbers 
     1.0000   1.0000   1.0000   1.0000   1.0000   1.0000   1.0000   1.0000
     1.0000   1.0000   1.0000   1.0000   1.0000   1.0000   1.0000   1.0000
     1.0000   1.0000   1.0000   1.0000   0.0000   0.0000   0.0000   0.0000
     0.0000   0.0000   0.0000   0.0000   0.0000   0.0000

          k = 0.1250 0.0000 0.0000 (  3569 PWs)   bands (ev):

   -18.7925 -18.7824 -18.7807 -18.7758 -18.7674 -18.7483 -18.7446 -18.7385
   -18.7358 -18.7270 -10.7731  -9.8320  -4.0688  -3.0602  -0.9693  -0.4400
    -0.1738   0.9029   0.9371   1.8301   4.2081   5.6589   5.7509   6.1090
     6.2533   7.3345   7.4088   8.3264   8.9438   9.0896

     occupation numbers 
     1.0000   1.0000   1.0000   1.0000   1.0000   1.0000   1.0000   1.0000
     1.0000   1.0000   1.0000   1.0000   1.0000   1.0000   1.0000   1.0000
     1.0000   1.0000   1.0000   1.0000   0.0000   0.0000   0.0000   0.0000
     0.0000   0.0000   0.0000   0.0000   0.0000   0.0000

          k = 0.1250 0.1365 0.0000 (  3552 PWs)   bands (ev):

   -18.7904 -18.7825 -18.7802 -18.7773 -18.7660 -18.7487 -18.7451 -18.7375
   -18.7369 -18.7269 -10.7011  -9.8109  -4.1487  -3.2030  -0.9068  -0.8410
     0.2694   0.4199   1.4926   1.8268   4.2775   4.9420   5.7785   6.1260
     6.4763   6.7631   7.3574   8.6400   8.9504   9.2470

     occupation numbers 
     1.0000   1.0000   1.0000   1.0000   1.0000   1.0000   1.0000   1.0000
     1.0000   1.0000   1.0000   1.0000   1.0000   1.0000   1.0000   1.0000
     1.0000   1.0000   1.0000   1.0000   0.0000   0.0000   0.0000   0.0000
     0.0000   0.0000   0.0000   0.0000   0.0000   0.0000

          k = 0.1250 0.2730 0.0000 (  3557 PWs)   bands (ev):

   -18.7876 -18.7860 -18.7783 -18.7756 -18.7632 -18.7502 -18.7458 -18.7397
   -18.7349 -18.7268 -10.5011  -9.7767  -4.3682  -3.6173  -1.0160  -0.7084
     0.2782   0.6386   1.7204   1.8108   4.1638   4.4401   4.8952   5.8994
     6.4318   6.8993   7.2431   8.4858   9.0370   9.9937

     occupation numbers 
     1.0000   1.0000   1.0000   1.0000   1.0000   1.0000   1.0000   1.0000
     1.0000   1.0000   1.0000   1.0000   1.0000   1.0000   1.0000   1.0000
     1.0000   1.0000   1.0000   1.0000   0.0000   0.0000   0.0000   0.0000
     0.0000   0.0000   0.0000   0.0000   0.0000   0.0000

          k = 0.1250 0.4095 0.0000 (  3577 PWs)   bands (ev):

   -18.7895 -18.7894 -18.7742 -18.7717 -18.7598 -18.7529 -18.7458 -18.7425
   -18.7316 -18.7272 -10.2248  -9.8048  -4.5630  -4.1369  -0.7646  -0.3703
     0.3178   0.6104   1.4877   1.8322   3.8948   4.0674   4.9980   5.2064
     6.2098   6.2506   7.4624   8.3290   9.8348  10.2234

     occupation numbers 
     1.0000   1.0000   1.0000   1.0000   1.0000   1.0000   1.0000   1.0000
     1.0000   1.0000   1.0000   1.0000   1.0000   1.0000   1.0000   1.0000
     1.0000   1.0000   1.0000   1.0000   0.0000   0.0000   0.0000   0.0000
     0.0000   0.0000   0.0000   0.0000   0.0000   0.0000

          k = 0.1250-0.5460 0.0000 (  3568 PWs)   bands (ev):

   -18.7908 -18.7908 -18.7711 -18.7711 -18.7562 -18.7562 -18.7446 -18.7446
   -18.7288 -18.7288  -9.9614  -9.9614  -4.5037  -4.5037  -0.2838  -0.2838
     0.2765   0.2765   1.6306   1.6306   3.8368   3.8368   5.3632   5.3632
     5.6380   5.6380   8.0446   8.0446   9.6039   9.6039

     occupation numbers 
     1.0000   1.0000   1.0000   1.0000   1.0000   1.0000   1.0000   1.0000
     1.0000   1.0000   1.0000   1.0000   1.0000   1.0000   1.0000   1.0000
     1.0000   1.0000   1.0000   1.0000   0.0000   0.0000   0.0000   0.0000
     0.0000   0.0000   0.0000   0.0000   0.0000   0.0000

          k = 0.2500 0.0000 0.0000 (  3543 PWs)   bands (ev):

   -18.7908 -18.7828 -18.7815 -18.7777 -18.7629 -18.7485 -18.7434 -18.7375
   -18.7366 -18.7288 -10.6135  -9.8620  -4.4696  -3.6850  -0.7494   0.0871
     0.1449   1.0085   1.6055   1.7406   4.4065   4.6723   5.4866   5.6254
     6.2796   6.4246   7.1274   8.2994   8.9524   9.5789

     occupation numbers 
     1.0000   1.0000   1.0000   1.0000   1.0000   1.0000   1.0000   1.0000
     1.0000   1.0000   1.0000   1.0000   1.0000   1.0000   1.0000   1.0000
     1.0000   1.0000   1.0000   1.0000   0.0000   0.0000   0.0000   0.0000
     0.0000   0.0000   0.0000   0.0000   0.0000   0.0000

          k = 0.2500 0.1365 0.0000 (  3558 PWs)   bands (ev):

   -18.7892 -18.7838 -18.7802 -18.7791 -18.7618 -18.7489 -18.7442 -18.7379
   -18.7364 -18.7284 -10.5461  -9.8363  -4.4366  -3.7018  -0.8097  -0.6852
     0.3994   0.7627   1.8260   1.9359   4.3569   4.4648   5.0064   5.9993
     6.4317   6.7332   7.1507   8.5385   9.1045  10.0446

     occupation numbers 
     1.0000   1.0000   1.0000   1.0000   1.0000   1.0000   1.0000   1.0000
     1.0000   1.0000   1.0000   1.0000   1.0000   1.0000   1.0000   1.0000
     1.0000   1.0000   1.0000   1.0000   0.0000   0.0000   0.0000   0.0000
     0.0000   0.0000   0.0000   0.0000   0.0000   0.0000

          k = 0.2500 0.2730 0.0000 (  3554 PWs)   bands (ev):

   -18.7890 -18.7880 -18.7783 -18.7755 -18.7595 -18.7503 -18.7453 -18.7403
   -18.7338 -18.7277 -10.3613  -9.7861  -4.3852  -3.8094  -1.4596  -0.5719
    -0.1275   0.8145   1.3032   2.0735   4.1061   4.7734   4.9230   6.1958
     6.7243   7.2971   7.3828   8.0087  10.0600  10.3163

     occupation numbers 
     1.0000   1.0000   1.0000   1.0000   1.0000   1.0000   1.0000   1.0000
     1.0000   1.0000   1.0000   1.0000   1.0000   1.0000   1.0000   1.0000
     1.0000   1.0000   1.0000   1.0000   0.0000   0.0000   0.0000   0.0000
     0.0000   0.0000   0.0000   0.0000   0.0000   0.0000

          k = 0.2500 0.4095 0.0000 (  3577 PWs)   bands (ev):

   -18.7923 -18.7922 -18.7736 -18.7714 -18.7572 -18.7526 -18.7454 -18.7425
   -18.7309 -18.7275 -10.1143  -9.7825  -4.3728  -4.0552  -1.5319  -0.4805
    -0.3576   0.4980   0.7415   1.6238   4.2937   5.3484   5.3587   5.9120
     6.6800   7.4277   7.7029   7.7821   9.3897   9.9215

     occupation numbers 
     1.0000   1.0000   1.0000   1.0000   1.0000   1.0000   1.0000   1.0000
     1.0000   1.0000   1.0000   1.0000   1.0000   1.0000   1.0000   1.0000
     1.0000   1.0000   1.0000   1.0000   0.0000   0.0000   0.0000   0.0000
     0.0000   0.0000   0.0000   0.0000   0.0000   0.0000

          k = 0.2500-0.5460 0.0000 (  3580 PWs)   bands (ev):

   -18.7939 -18.7939 -18.7706 -18.7706 -18.7549 -18.7549 -18.7442 -18.7442
   -18.7285 -18.7285  -9.8940  -9.8940  -4.2908  -4.2908  -1.0658  -1.0658
    -0.0196  -0.0196   1.0292   1.0292   4.9179   4.9179   5.8266   5.8266
     6.8588   6.8588   7.8932   7.8932   9.2147   9.2147

     occupation numbers 
     1.0000   1.0000   1.0000   1.0000   1.0000   1.0000   1.0000   1.0000
     1.0000   1.0000   1.0000   1.0000   1.0000   1.0000   1.0000   1.0000
     1.0000   1.0000   1.0000   1.0000   0.0000   0.0000   0.0000   0.0000
     0.0000   0.0000   0.0000   0.0000   0.0000   0.0000

          k = 0.3750 0.0000 0.0000 (  3553 PWs)   bands (ev):

   -18.7884 -18.7839 -18.7820 -18.7800 -18.7574 -18.7498 -18.7417 -18.7380
   -18.7359 -18.7311 -10.3849  -9.9594  -4.7159  -4.2789  -0.3751   0.4261
     0.4634   1.0350   1.6497   2.5123   3.7796   4.8072   4.9098   4.9702
     5.5540   6.0348   7.1937   8.4704   9.3688  10.2206

     occupation numbers 
     1.0000   1.0000   1.0000   1.0000   1.0000   1.0000   1.0000   1.0000
     1.0000   1.0000   1.0000   1.0000   1.0000   1.0000   1.0000   1.0000
     1.0000   1.0000   1.0000   1.0000   0.0000   0.0000   0.0000   0.0000
     0.0000   0.0000   0.0000   0.0000   0.0000   0.0000

          k = 0.3750 0.1365 0.0000 (  3548 PWs)   bands (ev):

   -18.7877 -18.7852 -18.7807 -18.7806 -18.7567 -18.7500 -18.7427 -18.7392
   -18.7347 -18.7303 -10.3258  -9.9246  -4.6290  -4.2205  -0.4890  -0.3287
     0.3795   0.6291   1.9648   2.0977   4.2305   4.4418   4.9754   5.4532
     6.2240   6.4624   7.3145   8.3454   9.6586   9.9681

     occupation numbers 
     1.0000   1.0000   1.0000   1.0000   1.0000   1.0000   1.0000   1.0000
     1.0000   1.0000   1.0000   1.0000   1.0000   1.0000   1.0000   1.0000
     1.0000   1.0000   1.0000   1.0000   0.0000   0.0000   0.0000   0.0000
     0.0000   0.0000   0.0000   0.0000   0.0000   0.0000

          k = 0.3750 0.2730 0.0000 (  3554 PWs)   bands (ev):

   -18.7905 -18.7900 -18.7776 -18.7758 -18.7556 -18.7510 -18.7442 -18.7412
   -18.7323 -18.7290 -10.1684  -9.8447  -4.4010  -4.0875  -1.4395  -0.5503
    -0.2554   0.5311   0.9445   1.7218   4.4905   5.4569   5.7337   5.8823
     6.7376   7.4682   7.6409   7.8437   9.4485   9.6549

     occupation numbers 
     1.0000   1.0000   1.0000   1.0000   1.0000   1.0000   1.0000   1.0000
     1.0000   1.0000   1.0000   1.0000   1.0000   1.0000   1.0000   1.0000
     1.0000   1.0000   1.0000   1.0000   0.0000   0.0000   0.0000   0.0000
     0.0000   0.0000   0.0000   0.0000   0.0000   0.0000

          k = 0.3750 0.4095 0.0000 (  3561 PWs)   bands (ev):

   -18.7950 -18.7949 -18.7727 -18.7714 -18.7546 -18.7525 -18.7443 -18.7426
   -18.7299 -18.7281  -9.9723  -9.7865  -4.1514  -3.9965  -1.8949  -1.1095
    -0.6190   0.0569   0.6271   1.1537   5.0917   5.8332   6.1170   6.7270
     7.2784   7.4515   7.8322   8.1466   8.9897   9.8509

     occupation numbers 
     1.0000   1.0000   1.0000   1.0000   1.0000   1.0000   1.0000   1.0000
     1.0000   1.0000   1.0000   1.0000   1.0000   1.0000   1.0000   1.0000
     1.0000   1.0000   1.0000   1.0000   0.0000   0.0000   0.0000   0.0000
     0.0000   0.0000   0.0000   0.0000   0.0000   0.0000

          k = 0.3750-0.5460 0.0000 (  3560 PWs)   bands (ev):

   -18.7970 -18.7970 -18.7703 -18.7703 -18.7538 -18.7538 -18.7436 -18.7436
   -18.7283 -18.7283  -9.8239  -9.8239  -4.0195  -4.0195  -1.6759  -1.6759
    -0.5442  -0.5442   0.8445   0.8445   5.5592   5.5592   6.6462   6.6462
     7.5062   7.5062   8.0107   8.0107   9.4752   9.4752

     occupation numbers 
     1.0000   1.0000   1.0000   1.0000   1.0000   1.0000   1.0000   1.0000
     1.0000   1.0000   1.0000   1.0000   1.0000   1.0000   1.0000   1.0000
     1.0000   1.0000   1.0000   1.0000   0.0000   0.0000   0.0000   0.0000
     0.0000   0.0000   0.0000   0.0000   0.0000   0.0000

          k =-0.5000 0.0000 0.0000 (  3532 PWs)   bands (ev):

   -18.7859 -18.7859 -18.7816 -18.7816 -18.7527 -18.7527 -18.7398 -18.7398
   -18.7337 -18.7337 -10.1449 -10.1449  -4.6540  -4.6540   0.0840   0.0840
     0.8368   0.8368   2.2833   2.2833   4.0223   4.0223   4.9991   4.9991
     5.3949   5.3949   7.7955   7.7955  10.2733  10.2733

     occupation numbers 
     1.0000   1.0000   1.0000   1.0000   1.0000   1.0000   1.0000   1.0000
     1.0000   1.0000   1.0000   1.0000   1.0000   1.0000   1.0000   1.0000
     1.0000   1.0000   1.0000   1.0000   0.0000   0.0000   0.0000   0.0000
     0.0000   0.0000   0.0000   0.0000   0.0000   0.0000

          k =-0.5000 0.1365 0.0000 (  3534 PWs)   bands (ev):

   -18.7863 -18.7863 -18.7811 -18.7811 -18.7526 -18.7526 -18.7410 -18.7410
   -18.7326 -18.7326 -10.0977 -10.0977  -4.5629  -4.5629  -0.0801  -0.0801
     0.2452   0.2452   2.0854   2.0854   4.2634   4.2634   5.4237   5.4237
     5.9251   5.9251   7.8736   7.8736   9.7510   9.7510

     occupation numbers 
     1.0000   1.0000   1.0000   1.0000   1.0000   1.0000   1.0000   1.0000
     1.0000   1.0000   1.0000   1.0000   1.0000   1.0000   1.0000   1.0000
     1.0000   1.0000   1.0000   1.0000   0.0000   0.0000   0.0000   0.0000
     0.0000   0.0000   0.0000   0.0000   0.0000   0.0000

          k =-0.5000 0.2730 0.0000 (  3554 PWs)   bands (ev):

   -18.7910 -18.7910 -18.7766 -18.7766 -18.7526 -18.7526 -18.7426 -18.7426
   -18.7306 -18.7306  -9.9782  -9.9782  -4.3158  -4.3158  -1.0462  -1.0462
     0.1016   0.1016   1.1819   1.1819   5.1604   5.1604   6.1074   6.1074
     6.9462   6.9462   7.9036   7.9036   9.1399   9.1399

     occupation numbers 
     1.0000   1.0000   1.0000   1.0000   1.0000   1.0000   1.0000   1.0000
     1.0000   1.0000   1.0000   1.0000   1.0000   1.0000   1.0000   1.0000
     1.0000   1.0000   1.0000   1.0000   0.0000   0.0000   0.0000   0.0000
     0.0000   0.0000   0.0000   0.0000   0.0000   0.0000

          k =-0.5000 0.4095 0.0000 (  3558 PWs)   bands (ev):

   -18.7961 -18.7961 -18.7720 -18.7720 -18.7531 -18.7531 -18.7432 -18.7432
   -18.7289 -18.7289  -9.8500  -9.8500  -4.0179  -4.0179  -1.7189  -1.7189
    -0.4281  -0.4281   0.8378   0.8378   5.5675   5.5675   6.8955   6.8955
     7.5801   7.5801   7.9269   7.9269   9.3770   9.3770

     occupation numbers 
     1.0000   1.0000   1.0000   1.0000   1.0000   1.0000   1.0000   1.0000
     1.0000   1.0000   1.0000   1.0000   1.0000   1.0000   1.0000   1.0000
     1.0000   1.0000   1.0000   1.0000   0.0000   0.0000   0.0000   0.0000
     0.0000   0.0000   0.0000   0.0000   0.0000   0.0000

          k =-0.5000-0.5460 0.0000 (  3564 PWs)   bands (ev):

   -18.7982 -18.7982 -18.7702 -18.7702 -18.7533 -18.7533 -18.7433 -18.7433
   -18.7282 -18.7282  -9.7940  -9.7940  -3.8771  -3.8771  -1.9094  -1.9094
    -0.8035  -0.8035   0.8315   0.8315   5.6887   5.6887   7.1716   7.1716
     7.3517   7.3517   8.4624   8.4624   9.7203   9.7203

     occupation numbers 
     1.0000   1.0000   1.0000   1.0000   1.0000   1.0000   1.0000   1.0000
     1.0000   1.0000   1.0000   1.0000   1.0000   1.0000   1.0000   1.0000
     1.0000   1.0000   1.0000   1.0000   0.0000   0.0000   0.0000   0.0000
     0.0000   0.0000   0.0000   0.0000   0.0000   0.0000

     highest occupied, lowest unoccupied level (ev):     2.5123    3.4770

!    total energy              =    -413.79876891 Ry
     estimated scf accuracy    <          7.9E-10 Ry

     The total energy is the sum of the following terms:
     one-electron contribution =    -359.71445840 Ry
     hartree contribution      =     197.04021944 Ry
     xc contribution           =    -154.41123361 Ry
     ewald contribution        =     -96.71329634 Ry

     convergence has been achieved in   9 iterations

     Forces acting on atoms (cartesian axes, Ry/au):

     atom    1 type  1   force =    -0.00003750    0.00000000   -0.00058361
     atom    2 type  2   force =     0.00003750    0.00000000    0.00010291
     atom    3 type  2   force =     0.00003750    0.00000000   -0.00010291
     atom    4 type  1   force =    -0.00003750   -0.00000000    0.00058361
     The non-local contrib.  to forces
     atom    1 type  1   force =     0.24676477    0.00000000    0.44050693
     atom    2 type  2   force =    -0.08026275    0.00000000    0.19426672
     atom    3 type  2   force =    -0.08026275    0.00000000   -0.19426672
     atom    4 type  1   force =     0.24676477    0.00000000   -0.44050693
     The ionic contribution  to forces
     atom    1 type  1   force =    -1.27599186    0.00000000  -22.91320479
     atom    2 type  2   force =     1.27599186   -0.00000000  -10.79193201
     atom    3 type  2   force =     1.27599186    0.00000000   10.79193201
     atom    4 type  1   force =    -1.27599186   -0.00000000   22.91320479
     The local contribution  to forces
     atom    1 type  1   force =     1.03294172    0.00000000   22.47971175
     atom    2 type  2   force =    -1.20459155    0.00000000   10.61997970
     atom    3 type  2   force =    -1.20459155   -0.00000000  -10.61997971
     atom    4 type  1   force =     1.03294172    0.00000000  -22.47971175
     The core correction contribution to forces
     atom    1 type  1   force =    -0.00372110   -0.00000000   -0.00751852
     atom    2 type  2   force =     0.00886432   -0.00000000   -0.02219924
     atom    3 type  2   force =     0.00886432   -0.00000000    0.02219924
     atom    4 type  1   force =    -0.00372110   -0.00000000    0.00751852
     The Hubbard contrib.    to forces
     atom    1 type  1   force =     0.00000000    0.00000000    0.00000000
     atom    2 type  2   force =     0.00000000    0.00000000    0.00000000
     atom    3 type  2   force =     0.00000000    0.00000000    0.00000000
     atom    4 type  1   force =     0.00000000    0.00000000    0.00000000
     The SCF correction term to forces
     atom    1 type  1   force =    -0.00006098   -0.00000000   -0.00007898
     atom    2 type  2   force =     0.00000566   -0.00000000   -0.00001227
     atom    3 type  2   force =     0.00000566    0.00000000    0.00001227
     atom    4 type  1   force =    -0.00006098   -0.00000000    0.00007898

     Total force =     0.000841     Total SCF correction =     0.000142
     SCF correction compared to forces is large: reduce conv_thr to get better values

     Writing output data file ./tmp/SnSe_monolayer.save/

     init_run     :      3.92s CPU      4.99s WALL (       1 calls)
     electrons    :     56.41s CPU     76.08s WALL (       1 calls)
     forces       :      3.29s CPU      4.03s WALL (       1 calls)

     Called by init_run:
     wfcinit      :      1.20s CPU      1.92s WALL (       1 calls)
     wfcinit:atom :      0.01s CPU      0.01s WALL (       9 calls)
     wfcinit:wfcr :      1.17s CPU      1.89s WALL (       9 calls)
     potinit      :      0.63s CPU      0.68s WALL (       1 calls)
     hinit0       :      0.88s CPU      0.89s WALL (       1 calls)

     Called by electrons:
     c_bands      :     43.68s CPU     59.10s WALL (       9 calls)
     sum_band     :      6.64s CPU      8.22s WALL (       9 calls)
     v_of_rho     :      1.44s CPU      1.67s WALL (      10 calls)
     v_h          :      0.08s CPU      0.10s WALL (      10 calls)
     v_xc         :      1.51s CPU      1.73s WALL (      11 calls)
     newd         :      5.42s CPU      8.19s WALL (      10 calls)
     mix_rho      :      0.25s CPU      0.22s WALL (       9 calls)

     Called by c_bands:
     init_us_2    :      0.31s CPU      0.26s WALL (     180 calls)
     cegterg      :     31.62s CPU     47.76s WALL (      81 calls)

     Called by sum_band:
     sum_band:wei :      0.04s CPU      0.04s WALL (       9 calls)
     sum_band:loo :      3.90s CPU      4.89s WALL (       9 calls)
     sum_band:buf :      0.02s CPU      0.02s WALL (      81 calls)
     sum_band:ini :      0.14s CPU      0.11s WALL (      81 calls)
     sum_band:cal :      1.87s CPU      2.82s WALL (      81 calls)
     sum_band:bec :      0.00s CPU      0.00s WALL (      81 calls)
     addusdens    :      2.10s CPU      2.64s WALL (       9 calls)
     addusd:skk   :      0.00s CPU      0.02s WALL (      18 calls)
     addusd:dgemm :      0.69s CPU      0.96s WALL (      18 calls)
     addusd:qvan2 :      1.19s CPU      1.16s WALL (      18 calls)

     Called by *egterg:
     cdiaghg      :      3.25s CPU      8.80s WALL (     358 calls)
     cegterg:over :      6.47s CPU     10.39s WALL (     277 calls)
     cegterg:upda :      0.88s CPU      1.93s WALL (     277 calls)
     cegterg:last :      1.26s CPU      1.95s WALL (     173 calls)
     h_psi        :     15.41s CPU     19.16s WALL (     367 calls)
     s_psi        :      1.11s CPU      1.44s WALL (     367 calls)
     g_psi        :      0.08s CPU      0.07s WALL (     277 calls)

     Called by h_psi:
     h_psi:calbec :      5.12s CPU      8.32s WALL (     367 calls)
     vloc_psi     :      9.15s CPU      9.37s WALL (     367 calls)
     add_vuspsi   :      1.09s CPU      1.42s WALL (     367 calls)

     General routines
     calbec       :      7.14s CPU     11.24s WALL (     484 calls)
     fft          :      1.25s CPU      1.33s WALL (     139 calls)
     ffts         :      0.03s CPU      0.03s WALL (      19 calls)
     fftw         :      9.50s CPU      9.79s WALL (   15034 calls)
     interpolate  :      0.10s CPU      0.10s WALL (      10 calls)

     Parallel routines
     fft_scatt_xy :      1.63s CPU      1.59s WALL (   15192 calls)
     fft_scatt_yz :      3.87s CPU      4.43s WALL (   15192 calls)

     PWSCF        :   1m 3.83s CPU   1m25.35s WALL


   This run was terminated on:  22:58:36  26May2026            

=------------------------------------------------------------------------------=
   JOB DONE.
=------------------------------------------------------------------------------=
