
     Program PWSCF v.6.7MaX starts on 26May2026 at 22:55: 7 

     This program is part of the open-source Quantum ESPRESSO suite
     for quantum simulation of materials; please cite
         "P. Giannozzi et al., J. Phys.:Condens. Matter 21 395502 (2009);
         "P. Giannozzi et al., J. Phys.:Condens. Matter 29 465901 (2017);
          URL http://www.quantum-espresso.org", 
     in publications or presentations arising from this work. More details at
     http://www.quantum-espresso.org/quote

     Parallel version (MPI), running on     6 processors

     MPI processes distributed on     1 nodes
     K-points division:     npool     =       3
     R & G space division:  proc/nbgrp/npool/nimage =       2
     Waiting for input...
     Reading input from standard input

     Current dimensions of program PWSCF are:
     Max number of different atomic species (ntypx) = 10
     Max number of k-points (npk) =  40000
     Max angular momentum in pseudopotentials (lmaxx) =  3

     Subspace diagonalization in iterative solution of the eigenvalue problem:
     a serial algorithm will be used

     Message from routine setup:
     using ibrav=0 with symmetry is DISCOURAGED, use correct ibrav instead

     Parallelization info
     --------------------
     sticks:   dense  smooth     PW     G-vecs:    dense   smooth      PW
     Min         814     320     99                28152     7111    1182
     Max         815     321    100                28153     7114    1183
     Sum        1629     641    199                56305    14225    2365



     bravais-lattice index     =            0
     lattice parameter (alat)  =       8.6086  a.u.
     unit-cell volume          =     641.1867 (a.u.)^3
     number of atoms/cell      =            4
     number of atomic types    =            2
     number of electrons       =        40.00
     number of Kohn-Sham states=           30
     kinetic-energy cutoff     =      30.0000  Ry
     charge density cutoff     =     300.0000  Ry
     scf convergence threshold =      1.0E-08
     mixing beta               =       0.7000
     number of iterations used =            8  plain     mixing
     Exchange-correlation= SLA  PW   PBE  PBE
                           (   1   4   3   4   0   0   0)

     celldm(1)=   8.608647  celldm(2)=   0.000000  celldm(3)=   0.000000
     celldm(4)=   0.000000  celldm(5)=   0.000000  celldm(6)=   0.000000

     crystal axes: (cart. coord. in units of alat)
               a(1) = (   1.000000   0.000000   0.000000 )  
               a(2) = (   0.000000   0.915684   0.000000 )  
               a(3) = (   0.000000   0.000000   1.097574 )  

     reciprocal axes: (cart. coord. in units 2 pi/alat)
               b(1) = (  1.000000  0.000000  0.000000 )  
               b(2) = (  0.000000  1.092079  0.000000 )  
               b(3) = (  0.000000  0.000000  0.911100 )  


     PseudoPot. # 1 for Sn read from file:
     ../pseudo/Sn_pbe_v1.uspp.F.UPF
     MD5 check sum: 4cf58ce39ec5d5d420df3dd08604eb00
     Pseudo is Ultrasoft + core correction, Zval = 14.0
     Generated by new atomic code, or converted to UPF format
     Using radial grid of  891 points,  6 beta functions with: 
                l(1) =   0
                l(2) =   0
                l(3) =   1
                l(4) =   1
                l(5) =   2
                l(6) =   2
     Q(r) pseudized with  6 coefficients,  rinner =    1.200   1.200   1.200
                                                       1.200   1.200

     PseudoPot. # 2 for Se read from file:
     ../pseudo/Se_pbe_v1.uspp.F.UPF
     MD5 check sum: 1b3568f3a8ae88f9a2a0ad0698632c85
     Pseudo is Ultrasoft + core correction, Zval =  6.0
     Generated by new atomic code, or converted to UPF format
     Using radial grid of  877 points,  6 beta functions with: 
                l(1) =   0
                l(2) =   0
                l(3) =   1
                l(4) =   1
                l(5) =   2
                l(6) =   2
     Q(r) pseudized with  8 coefficients,  rinner =    1.300   1.300   1.300
                                                       1.300   1.300

     atomic species   valence    mass     pseudopotential
        Sn            14.00   118.71000     Sn( 1.00)
        Se             6.00    78.97100     Se( 1.00)

      4 Sym. Ops. (no inversion) found ( 3 have fractional translation)


                                    s                        frac. trans.

      isym =  1     identity                                     

 cryst.   s( 1) = (     1          0          0      )
                  (     0          1          0      )
                  (     0          0          1      )

 cart.    s( 1) = (  1.0000000  0.0000000  0.0000000 )
                  (  0.0000000  1.0000000  0.0000000 )
                  (  0.0000000  0.0000000  1.0000000 )


      isym =  2     180 deg rotation - cart. axis [1,0,0]        

 cryst.   s( 2) = (     1          0          0      )    f =( -0.5000000 )
                  (     0         -1          0      )       (  0.0000000 )
                  (     0          0         -1      )       (  0.0000000 )

 cart.    s( 2) = (  1.0000000  0.0000000  0.0000000 )    f =( -0.5000000 )
                  (  0.0000000 -1.0000000  0.0000000 )       (  0.0000000 )
                  (  0.0000000  0.0000000 -1.0000000 )       (  0.0000000 )


      isym =  3     inv. 180 deg rotation - cart. axis [0,0,1]   

 cryst.   s( 3) = (     1          0          0      )    f =( -0.5000000 )
                  (     0          1          0      )       (  0.5000000 )
                  (     0          0         -1      )       (  0.0000000 )

 cart.    s( 3) = (  1.0000000  0.0000000  0.0000000 )    f =( -0.5000000 )
                  (  0.0000000  1.0000000  0.0000000 )       (  0.4578422 )
                  (  0.0000000  0.0000000 -1.0000000 )       (  0.0000000 )


      isym =  4     inv. 180 deg rotation - cart. axis [0,1,0]   

 cryst.   s( 4) = (     1          0          0      )    f =(  0.0000000 )
                  (     0         -1          0      )       (  0.5000000 )
                  (     0          0          1      )       (  0.0000000 )

 cart.    s( 4) = (  1.0000000  0.0000000  0.0000000 )    f =(  0.0000000 )
                  (  0.0000000 -1.0000000  0.0000000 )       (  0.4578422 )
                  (  0.0000000  0.0000000  1.0000000 )       (  0.0000000 )


   Cartesian axes

     site n.     atom                  positions (alat units)
         1           Sn  tau(   1) = (   0.0995059   0.6867633   0.2435613  )
         2           Se  tau(   2) = (   0.5295331   0.2289211   0.2577634  )
         3           Se  tau(   3) = (   0.0295331   0.6867633   0.8398110  )
         4           Sn  tau(   4) = (   0.5995059   0.2289211   0.8540131  )

   Crystallographic axes

     site n.     atom                  positions (cryst. coord.)
         1           Sn  tau(   1) = (  0.0995059  0.7500000  0.2219087  )
         2           Se  tau(   2) = (  0.5295331  0.2500000  0.2348482  )
         3           Se  tau(   3) = (  0.0295331  0.7500000  0.7651518  )
         4           Sn  tau(   4) = (  0.5995059  0.2500000  0.7780913  )

     number of k points=    25
                       cart. coord. in units 2pi/alat
        k(    1) = (   0.0000000   0.0000000   0.0000000), wk =   0.0312500
        k(    2) = (   0.0000000   0.1365099   0.0000000), wk =   0.0625000
        k(    3) = (   0.0000000   0.2730198   0.0000000), wk =   0.0625000
        k(    4) = (   0.0000000   0.4095298   0.0000000), wk =   0.0625000
        k(    5) = (   0.0000000  -0.5460397   0.0000000), wk =   0.0312500
        k(    6) = (   0.1250000   0.0000000   0.0000000), wk =   0.0625000
        k(    7) = (   0.1250000   0.1365099   0.0000000), wk =   0.1250000
        k(    8) = (   0.1250000   0.2730198   0.0000000), wk =   0.1250000
        k(    9) = (   0.1250000   0.4095298   0.0000000), wk =   0.1250000
        k(   10) = (   0.1250000  -0.5460397   0.0000000), wk =   0.0625000
        k(   11) = (   0.2500000   0.0000000   0.0000000), wk =   0.0625000
        k(   12) = (   0.2500000   0.1365099   0.0000000), wk =   0.1250000
        k(   13) = (   0.2500000   0.2730198   0.0000000), wk =   0.1250000
        k(   14) = (   0.2500000   0.4095298   0.0000000), wk =   0.1250000
        k(   15) = (   0.2500000  -0.5460397   0.0000000), wk =   0.0625000
        k(   16) = (   0.3750000   0.0000000   0.0000000), wk =   0.0625000
        k(   17) = (   0.3750000   0.1365099   0.0000000), wk =   0.1250000
        k(   18) = (   0.3750000   0.2730198   0.0000000), wk =   0.1250000
        k(   19) = (   0.3750000   0.4095298   0.0000000), wk =   0.1250000
        k(   20) = (   0.3750000  -0.5460397   0.0000000), wk =   0.0625000
        k(   21) = (  -0.5000000   0.0000000   0.0000000), wk =   0.0312500
        k(   22) = (  -0.5000000   0.1365099   0.0000000), wk =   0.0625000
        k(   23) = (  -0.5000000   0.2730198   0.0000000), wk =   0.0625000
        k(   24) = (  -0.5000000   0.4095298   0.0000000), wk =   0.0625000
        k(   25) = (  -0.5000000  -0.5460397   0.0000000), wk =   0.0312500

                       cryst. coord.
        k(    1) = (   0.0000000   0.0000000   0.0000000), wk =   0.0312500
        k(    2) = (   0.0000000   0.1250000   0.0000000), wk =   0.0625000
        k(    3) = (   0.0000000   0.2500000   0.0000000), wk =   0.0625000
        k(    4) = (   0.0000000   0.3750000   0.0000000), wk =   0.0625000
        k(    5) = (   0.0000000  -0.5000000   0.0000000), wk =   0.0312500
        k(    6) = (   0.1250000   0.0000000   0.0000000), wk =   0.0625000
        k(    7) = (   0.1250000   0.1250000   0.0000000), wk =   0.1250000
        k(    8) = (   0.1250000   0.2500000   0.0000000), wk =   0.1250000
        k(    9) = (   0.1250000   0.3750000   0.0000000), wk =   0.1250000
        k(   10) = (   0.1250000  -0.5000000   0.0000000), wk =   0.0625000
        k(   11) = (   0.2500000   0.0000000   0.0000000), wk =   0.0625000
        k(   12) = (   0.2500000   0.1250000   0.0000000), wk =   0.1250000
        k(   13) = (   0.2500000   0.2500000   0.0000000), wk =   0.1250000
        k(   14) = (   0.2500000   0.3750000   0.0000000), wk =   0.1250000
        k(   15) = (   0.2500000  -0.5000000   0.0000000), wk =   0.0625000
        k(   16) = (   0.3750000   0.0000000   0.0000000), wk =   0.0625000
        k(   17) = (   0.3750000   0.1250000   0.0000000), wk =   0.1250000
        k(   18) = (   0.3750000   0.2500000   0.0000000), wk =   0.1250000
        k(   19) = (   0.3750000   0.3750000   0.0000000), wk =   0.1250000
        k(   20) = (   0.3750000  -0.5000000   0.0000000), wk =   0.0625000
        k(   21) = (  -0.5000000   0.0000000   0.0000000), wk =   0.0312500
        k(   22) = (  -0.5000000   0.1250000   0.0000000), wk =   0.0625000
        k(   23) = (  -0.5000000   0.2500000   0.0000000), wk =   0.0625000
        k(   24) = (  -0.5000000   0.3750000   0.0000000), wk =   0.0625000
        k(   25) = (  -0.5000000  -0.5000000   0.0000000), wk =   0.0312500

     Dense  grid:    56305 G-vectors     FFT dimensions: (  48,  48,  54)

     Smooth grid:    14225 G-vectors     FFT dimensions: (  32,  30,  36)

     Dynamical RAM for                 wfc:       0.41 MB

     Dynamical RAM for     wfc (w. buffer):       4.07 MB

     Dynamical RAM for           str. fact:       0.86 MB

     Dynamical RAM for           local pot:       0.00 MB

     Dynamical RAM for          nlocal pot:       0.98 MB

     Dynamical RAM for                qrad:       2.78 MB

     Dynamical RAM for          rho,v,vnew:       2.71 MB

     Dynamical RAM for               rhoin:       0.90 MB

     Dynamical RAM for            rho*nmix:       6.87 MB

     Dynamical RAM for           G-vectors:       1.67 MB

     Dynamical RAM for          h,s,v(r/c):       0.16 MB

     Dynamical RAM for          <psi|beta>:       0.03 MB

     Dynamical RAM for                 psi:       0.81 MB

     Dynamical RAM for                hpsi:       0.81 MB

     Dynamical RAM for                spsi:       0.81 MB

     Dynamical RAM for      wfcinit/wfcrot:       0.83 MB

     Dynamical RAM for           addusdens:      27.21 MB

     Dynamical RAM for          addusforce:      27.43 MB

     Estimated static dynamical RAM per process >      24.50 MB

     Estimated max dynamical RAM per process >      51.93 MB

     Estimated total dynamical RAM >     311.59 MB

     Initial potential from superposition of free atoms

     starting charge   37.99977, renormalised to   40.00000
     Starting wfcs are   26 randomized atomic wfcs +    4 random wfcs

     total cpu time spent up to now is        3.0 secs

     Self-consistent Calculation

     iteration #  1     ecut=    30.00 Ry     beta= 0.70
     Davidson diagonalization with overlap
     ethr =  1.00E-02,  avg # of iterations =  6.6

     total cpu time spent up to now is       11.6 secs

     total energy              =    -413.37730878 Ry
     estimated scf accuracy    <       1.26339624 Ry

     iteration #  2     ecut=    30.00 Ry     beta= 0.70
     Davidson diagonalization with overlap
     ethr =  3.16E-03,  avg # of iterations =  2.0

     total cpu time spent up to now is       16.7 secs

     total energy              =    -413.81242867 Ry
     estimated scf accuracy    <       0.37388027 Ry

     iteration #  3     ecut=    30.00 Ry     beta= 0.70
     Davidson diagonalization with overlap
     ethr =  9.35E-04,  avg # of iterations =  2.0

     total cpu time spent up to now is       21.2 secs

     total energy              =    -413.89858834 Ry
     estimated scf accuracy    <       0.00762430 Ry

     iteration #  4     ecut=    30.00 Ry     beta= 0.70
     Davidson diagonalization with overlap
     ethr =  1.91E-05,  avg # of iterations =  4.8

     total cpu time spent up to now is       28.0 secs

     total energy              =    -413.90012500 Ry
     estimated scf accuracy    <       0.00032816 Ry

     iteration #  5     ecut=    30.00 Ry     beta= 0.70
     Davidson diagonalization with overlap
     ethr =  8.20E-07,  avg # of iterations =  4.4

     total cpu time spent up to now is       34.1 secs

     total energy              =    -413.90020824 Ry
     estimated scf accuracy    <       0.00009846 Ry

     iteration #  6     ecut=    30.00 Ry     beta= 0.70
     Davidson diagonalization with overlap
     ethr =  2.46E-07,  avg # of iterations =  2.3

     total cpu time spent up to now is       39.3 secs

     total energy              =    -413.90022883 Ry
     estimated scf accuracy    <       0.00000188 Ry

     iteration #  7     ecut=    30.00 Ry     beta= 0.70
     Davidson diagonalization with overlap
     ethr =  4.70E-09,  avg # of iterations =  2.3

     total cpu time spent up to now is       43.4 secs

     total energy              =    -413.90022935 Ry
     estimated scf accuracy    <       0.00000007 Ry

     iteration #  8     ecut=    30.00 Ry     beta= 0.70
     Davidson diagonalization with overlap
     ethr =  1.67E-10,  avg # of iterations =  2.8

     total cpu time spent up to now is       47.4 secs

     End of self-consistent calculation

          k = 0.0000 0.0000 0.0000 (  1775 PWs)   bands (ev):

   -11.7350 -11.6354 -11.5884 -11.5843 -11.5565 -11.5530 -11.5176 -11.5169
   -11.4799 -11.4678  -5.2554  -3.0339   3.1335   3.3776   5.3325   5.3934
     6.0233   6.3736   7.8596   8.0853  11.6627  13.0648  13.2179  14.6329
    15.6966  16.3406  16.4864  16.8956  17.0850  17.2517

     occupation numbers 
     1.0000   1.0000   1.0000   1.0000   1.0000   1.0000   1.0000   1.0000
     1.0000   1.0000   1.0000   1.0000   1.0000   1.0000   1.0000   1.0000
     1.0000   1.0000   1.0000   1.0000   0.0000   0.0000   0.0000   0.0000
     0.0000   0.0000   0.0000   0.0000   0.0000   0.0000

          k = 0.0000 0.1365 0.0000 (  1763 PWs)   bands (ev):

   -11.7306 -11.6387 -11.5882 -11.5817 -11.5561 -11.5559 -11.5181 -11.5132
   -11.4824 -11.4690  -5.1663  -3.0894   3.0356   3.4623   5.2163   5.5715
     5.5947   6.3914   7.8211   8.4456  12.1317  12.3721  12.7790  14.7268
    15.2776  15.8443  15.9117  16.9407  17.6564  18.3517

     occupation numbers 
     1.0000   1.0000   1.0000   1.0000   1.0000   1.0000   1.0000   1.0000
     1.0000   1.0000   1.0000   1.0000   1.0000   1.0000   1.0000   1.0000
     1.0000   1.0000   1.0000   1.0000   0.0000   0.0000   0.0000   0.0000
     0.0000   0.0000   0.0000   0.0000   0.0000   0.0000

          k = 0.0000 0.2730 0.0000 (  1784 PWs)   bands (ev):

   -11.7185 -11.6486 -11.5870 -11.5752 -11.5633 -11.5555 -11.5162 -11.5061
   -11.4888 -11.4728  -4.9094  -3.2743   2.8542   3.6831   4.7495   5.3351
     5.6149   6.6306   7.6500   8.9530  11.3598  12.0126  12.9957  14.2596
    14.9335  15.3132  15.4143  16.9834  18.0082  19.0799

     occupation numbers 
     1.0000   1.0000   1.0000   1.0000   1.0000   1.0000   1.0000   1.0000
     1.0000   1.0000   1.0000   1.0000   1.0000   1.0000   1.0000   1.0000
     1.0000   1.0000   1.0000   1.0000   0.0000   0.0000   0.0000   0.0000
     0.0000   0.0000   0.0000   0.0000   0.0000   0.0000

          k = 0.0000 0.4095 0.0000 (  1768 PWs)   bands (ev):

   -11.7012 -11.6637 -11.5842 -11.5724 -11.5665 -11.5563 -11.5118 -11.4971
   -11.4971 -11.4792  -4.5177  -3.6085   2.8399   3.6507   4.3550   5.1984
     5.8620   7.1785   7.2221   8.8321  11.0884  11.7912  12.6564  13.1094
    14.9855  15.8460  16.0299  16.5838  17.7629  19.7796

     occupation numbers 
     1.0000   1.0000   1.0000   1.0000   1.0000   1.0000   1.0000   1.0000
     1.0000   1.0000   1.0000   1.0000   1.0000   1.0000   1.0000   1.0000
     1.0000   1.0000   1.0000   1.0000   0.0000   0.0000   0.0000   0.0000
     0.0000   0.0000   0.0000   0.0000   0.0000   0.0000

          k = 0.0000-0.5460 0.0000 (  1770 PWs)   bands (ev):

   -11.6820 -11.6820 -11.5794 -11.5794 -11.5600 -11.5600 -11.5052 -11.5052
   -11.4877 -11.4877  -4.0536  -4.0536   3.1344   3.1344   4.7401   4.7401
     6.4990   6.4990   8.0344   8.0344  11.7481  11.7481  12.2222  12.2222
    15.3283  15.3283  16.6784  16.6784  18.9533  18.9533

     occupation numbers 
     1.0000   1.0000   1.0000   1.0000   1.0000   1.0000   1.0000   1.0000
     1.0000   1.0000   1.0000   1.0000   1.0000   1.0000   1.0000   1.0000
     1.0000   1.0000   1.0000   1.0000   0.0000   0.0000   0.0000   0.0000
     0.0000   0.0000   0.0000   0.0000   0.0000   0.0000

          k = 0.1250 0.0000 0.0000 (  1779 PWs)   bands (ev):

   -11.7309 -11.6389 -11.5879 -11.5825 -11.5567 -11.5557 -11.5154 -11.5154
   -11.4810 -11.4700  -5.1808  -3.1218   2.9929   3.4477   5.4967   5.5194
     5.5350   6.3689   8.0361   8.4022  11.8922  12.4653  12.8766  14.6261
    15.3332  16.1587  16.3466  17.3190  17.7528  17.7876

     occupation numbers 
     1.0000   1.0000   1.0000   1.0000   1.0000   1.0000   1.0000   1.0000
     1.0000   1.0000   1.0000   1.0000   1.0000   1.0000   1.0000   1.0000
     1.0000   1.0000   1.0000   1.0000   0.0000   0.0000   0.0000   0.0000
     0.0000   0.0000   0.0000   0.0000   0.0000   0.0000

          k = 0.1250 0.1365 0.0000 (  1782 PWs)   bands (ev):

   -11.7271 -11.6426 -11.5873 -11.5799 -11.5582 -11.5562 -11.5188 -11.5092
   -11.4845 -11.4701  -5.0935  -3.1659   2.9698   3.5277   5.0076   5.2513
     5.8143   6.6338   7.8067   8.5839  11.8925  12.3163  13.1121  14.4268
    14.5548  16.1353  16.4818  16.9179  17.4964  18.1636

     occupation numbers 
     1.0000   1.0000   1.0000   1.0000   1.0000   1.0000   1.0000   1.0000
     1.0000   1.0000   1.0000   1.0000   1.0000   1.0000   1.0000   1.0000
     1.0000   1.0000   1.0000   1.0000   0.0000   0.0000   0.0000   0.0000
     0.0000   0.0000   0.0000   0.0000   0.0000   0.0000

          k = 0.1250 0.2730 0.0000 (  1775 PWs)   bands (ev):

   -11.7164 -11.6530 -11.5854 -11.5735 -11.5644 -11.5553 -11.5189 -11.5012
   -11.4923 -11.4718  -4.8425  -3.3194   2.8863   3.7265   4.6309   4.8495
     5.6831   7.2304   7.5627   8.4487  11.6958  12.5909  12.6708  13.9214
    14.3182  16.1959  16.2452  16.3570  17.7399  19.6591

     occupation numbers 
     1.0000   1.0000   1.0000   1.0000   1.0000   1.0000   1.0000   1.0000
     1.0000   1.0000   1.0000   1.0000   1.0000   1.0000   1.0000   1.0000
     1.0000   1.0000   1.0000   1.0000   0.0000   0.0000   0.0000   0.0000
     0.0000   0.0000   0.0000   0.0000   0.0000   0.0000

          k = 0.1250 0.4095 0.0000 (  1787 PWs)   bands (ev):

   -11.7015 -11.6677 -11.5824 -11.5722 -11.5653 -11.5557 -11.5158 -11.5014
   -11.4922 -11.4764  -4.4636  -3.6130   2.8796   3.6255   4.3728   5.0070
     5.5212   6.8867   7.8696   8.4419  11.3779  11.7571  12.5970  14.0426
    14.3619  15.3687  16.7366  16.8922  18.5527  19.4433

     occupation numbers 
     1.0000   1.0000   1.0000   1.0000   1.0000   1.0000   1.0000   1.0000
     1.0000   1.0000   1.0000   1.0000   1.0000   1.0000   1.0000   1.0000
     1.0000   1.0000   1.0000   1.0000   0.0000   0.0000   0.0000   0.0000
     0.0000   0.0000   0.0000   0.0000   0.0000   0.0000

          k = 0.1250-0.5460 0.0000 (  1780 PWs)   bands (ev):

   -11.6845 -11.6845 -11.5782 -11.5782 -11.5591 -11.5591 -11.5096 -11.5096
   -11.4835 -11.4835  -4.0227  -4.0227   3.1400   3.1400   4.7331   4.7331
     6.0439   6.0439   8.3626   8.3626  11.1733  11.1733  13.3359  13.3359
    14.6584  14.6584  17.5302  17.5302  19.0842  19.0842

     occupation numbers 
     1.0000   1.0000   1.0000   1.0000   1.0000   1.0000   1.0000   1.0000
     1.0000   1.0000   1.0000   1.0000   1.0000   1.0000   1.0000   1.0000
     1.0000   1.0000   1.0000   1.0000   0.0000   0.0000   0.0000   0.0000
     0.0000   0.0000   0.0000   0.0000   0.0000   0.0000

          k = 0.2500 0.0000 0.0000 (  1773 PWs)   bands (ev):

   -11.7194 -11.6491 -11.5863 -11.5775 -11.5622 -11.5576 -11.5107 -11.5101
   -11.4844 -11.4761  -4.9637  -3.3770   2.8141   3.6225   4.7260   5.5447
     5.7979   6.7464   7.8359   9.2436  11.4657  12.4031  12.4312  14.4378
    14.7086  15.5939  16.5826  17.1800  18.2583  19.3565

     occupation numbers 
     1.0000   1.0000   1.0000   1.0000   1.0000   1.0000   1.0000   1.0000
     1.0000   1.0000   1.0000   1.0000   1.0000   1.0000   1.0000   1.0000
     1.0000   1.0000   1.0000   1.0000   0.0000   0.0000   0.0000   0.0000
     0.0000   0.0000   0.0000   0.0000   0.0000   0.0000

          k = 0.2500 0.1365 0.0000 (  1780 PWs)   bands (ev):

   -11.7171 -11.6532 -11.5850 -11.5752 -11.5637 -11.5567 -11.5172 -11.5018
   -11.4901 -11.4732  -4.8821  -3.3917   2.8658   3.6819   4.6367   5.0343
     5.6654   7.4170   7.5400   8.7891  11.8026  12.5697  12.8719  13.6756
    14.3590  16.4826  16.4884  16.8578  17.8395  18.9207

     occupation numbers 
     1.0000   1.0000   1.0000   1.0000   1.0000   1.0000   1.0000   1.0000
     1.0000   1.0000   1.0000   1.0000   1.0000   1.0000   1.0000   1.0000
     1.0000   1.0000   1.0000   1.0000   0.0000   0.0000   0.0000   0.0000
     0.0000   0.0000   0.0000   0.0000   0.0000   0.0000

          k = 0.2500 0.2730 0.0000 (  1776 PWs)   bands (ev):

   -11.7108 -11.6638 -11.5820 -11.5697 -11.5671 -11.5550 -11.5209 -11.4997
   -11.4927 -11.4711  -4.6510  -3.4621   2.9404   3.7721   4.3915   4.5077
     5.5330   7.1986   7.8126   8.2054  11.8997  12.6437  13.2462  13.7910
    14.2404  15.3837  17.2069  17.3505  17.5592  20.0714

     occupation numbers 
     1.0000   1.0000   1.0000   1.0000   1.0000   1.0000   1.0000   1.0000
     1.0000   1.0000   1.0000   1.0000   1.0000   1.0000   1.0000   1.0000
     1.0000   1.0000   1.0000   1.0000   0.0000   0.0000   0.0000   0.0000
     0.0000   0.0000   0.0000   0.0000   0.0000   0.0000

          k = 0.2500 0.4095 0.0000 (  1789 PWs)   bands (ev):

   -11.7016 -11.6772 -11.5788 -11.5722 -11.5621 -11.5544 -11.5207 -11.5092
   -11.4840 -11.4724  -4.3136  -3.6418   2.9484   3.5000   4.4328   4.5744
     5.3622   6.4448   7.6509   8.4800  11.3929  12.4751  13.5759  13.8346
    14.4601  15.0796  17.7658  18.0122  18.6611  19.8393

     occupation numbers 
     1.0000   1.0000   1.0000   1.0000   1.0000   1.0000   1.0000   1.0000
     1.0000   1.0000   1.0000   1.0000   1.0000   1.0000   1.0000   1.0000
     1.0000   1.0000   1.0000   1.0000   0.0000   0.0000   0.0000   0.0000
     0.0000   0.0000   0.0000   0.0000   0.0000   0.0000

          k = 0.2500-0.5460 0.0000 (  1792 PWs)   bands (ev):

   -11.6903 -11.6903 -11.5757 -11.5757 -11.5567 -11.5567 -11.5165 -11.5165
   -11.4769 -11.4769  -3.9458  -3.9458   3.1085   3.1085   4.6772   4.6772
     5.5870   5.5870   8.1163   8.1163  11.7370  11.7370  13.7757  13.7757
    14.7400  14.7400  18.8276  18.8276  19.4225  19.4225

     occupation numbers 
     1.0000   1.0000   1.0000   1.0000   1.0000   1.0000   1.0000   1.0000
     1.0000   1.0000   1.0000   1.0000   1.0000   1.0000   1.0000   1.0000
     1.0000   1.0000   1.0000   1.0000   0.0000   0.0000   0.0000   0.0000
     0.0000   0.0000   0.0000   0.0000   0.0000   0.0000

          k = 0.3750 0.0000 0.0000 (  1781 PWs)   bands (ev):

   -11.7026 -11.6646 -11.5829 -11.5709 -11.5701 -11.5601 -11.5036 -11.5032
   -11.4896 -11.4848  -4.6247  -3.7612   2.8495   3.5851   4.3605   5.1536
     6.2676   7.4163   7.5478   9.3092  11.2649  12.3303  12.5956  13.4877
    15.0200  15.7722  16.3133  17.0435  18.5572  19.1885

     occupation numbers 
     1.0000   1.0000   1.0000   1.0000   1.0000   1.0000   1.0000   1.0000
     1.0000   1.0000   1.0000   1.0000   1.0000   1.0000   1.0000   1.0000
     1.0000   1.0000   1.0000   1.0000   0.0000   0.0000   0.0000   0.0000
     0.0000   0.0000   0.0000   0.0000   0.0000   0.0000

          k = 0.3750 0.1365 0.0000 (  1778 PWs)   bands (ev):

   -11.7025 -11.6682 -11.5817 -11.5711 -11.5683 -11.5588 -11.5126 -11.4977
   -11.4935 -11.4784  -4.5548  -3.7409   2.9082   3.5957   4.3857   5.0766
     5.6164   6.9007   8.2714   8.9768  11.6925  12.0159  12.9535  13.8652
    14.5020  15.6147  16.4676  17.5799  19.0082  19.2887

     occupation numbers 
     1.0000   1.0000   1.0000   1.0000   1.0000   1.0000   1.0000   1.0000
     1.0000   1.0000   1.0000   1.0000   1.0000   1.0000   1.0000   1.0000
     1.0000   1.0000   1.0000   1.0000   0.0000   0.0000   0.0000   0.0000
     0.0000   0.0000   0.0000   0.0000   0.0000   0.0000

          k = 0.3750 0.2730 0.0000 (  1784 PWs)   bands (ev):

   -11.7019 -11.6773 -11.5787 -11.5719 -11.5634 -11.5559 -11.5195 -11.5079
   -11.4843 -11.4730  -4.3629  -3.7069   3.0045   3.5324   4.4376   4.6116
     5.3179   6.2724   8.0111   8.7031  11.6578  12.9565  13.6874  13.8312
    14.5715  14.7502  17.6945  18.3572  18.4078  20.0649

     occupation numbers 
     1.0000   1.0000   1.0000   1.0000   1.0000   1.0000   1.0000   1.0000
     1.0000   1.0000   1.0000   1.0000   1.0000   1.0000   1.0000   1.0000
     1.0000   1.0000   1.0000   1.0000   0.0000   0.0000   0.0000   0.0000
     0.0000   0.0000   0.0000   0.0000   0.0000   0.0000

          k = 0.3750 0.4095 0.0000 (  1781 PWs)   bands (ev):

   -11.7003 -11.6877 -11.5757 -11.5727 -11.5578 -11.5536 -11.5225 -11.5163
   -11.4770 -11.4708  -4.1040  -3.7282   2.9677   3.2555   4.4926   4.5384
     5.3096   5.9740   7.2849   8.1559  12.2194  13.2284  13.4746  13.6831
    14.9568  15.6916  18.3177  18.7578  19.1744  20.4674

     occupation numbers 
     1.0000   1.0000   1.0000   1.0000   1.0000   1.0000   1.0000   1.0000
     1.0000   1.0000   1.0000   1.0000   1.0000   1.0000   1.0000   1.0000
     1.0000   1.0000   1.0000   1.0000   0.0000   0.0000   0.0000   0.0000
     0.0000   0.0000   0.0000   0.0000   0.0000   0.0000

          k = 0.3750-0.5460 0.0000 (  1776 PWs)   bands (ev):

   -11.6958 -11.6958 -11.5738 -11.5738 -11.5541 -11.5541 -11.5214 -11.5214
   -11.4722 -11.4722  -3.8651  -3.8651   2.9916   2.9916   4.6160   4.6160
     5.5359   5.5359   7.4614   7.4614  12.9916  12.9916  13.2290  13.2290
    15.7955  15.7955  19.1072  19.1072  19.9817  19.9818

     occupation numbers 
     1.0000   1.0000   1.0000   1.0000   1.0000   1.0000   1.0000   1.0000
     1.0000   1.0000   1.0000   1.0000   1.0000   1.0000   1.0000   1.0000
     1.0000   1.0000   1.0000   1.0000   0.0000   0.0000   0.0000   0.0000
     0.0000   0.0000   0.0000   0.0000   0.0000   0.0000

          k =-0.5000 0.0000 0.0000 (  1772 PWs)   bands (ev):

   -11.6833 -11.6833 -11.5774 -11.5774 -11.5647 -11.5647 -11.4961 -11.4961
   -11.4945 -11.4945  -4.2033  -4.2033   3.1470   3.1470   4.6856   4.6856
     6.8442   6.8442   8.4701   8.4701  11.9866  11.9866  12.7326  12.7326
    15.5622  15.5622  17.1958  17.1958  17.7042  17.7042

     occupation numbers 
     1.0000   1.0000   1.0000   1.0000   1.0000   1.0000   1.0000   1.0000
     1.0000   1.0000   1.0000   1.0000   1.0000   1.0000   1.0000   1.0000
     1.0000   1.0000   1.0000   1.0000   0.0000   0.0000   0.0000   0.0000
     0.0000   0.0000   0.0000   0.0000   0.0000   0.0000

          k =-0.5000 0.1365 0.0000 (  1774 PWs)   bands (ev):

   -11.6854 -11.6854 -11.5769 -11.5769 -11.5628 -11.5628 -11.5057 -11.5057
   -11.4854 -11.4854  -4.1534  -4.1534   3.1807   3.1807   4.7012   4.7012
     6.1717   6.1717   8.8781   8.8781  11.5546  11.5546  13.5951  13.5951
    14.9279  14.9279  17.5449  17.5449  18.3792  18.3792

     occupation numbers 
     1.0000   1.0000   1.0000   1.0000   1.0000   1.0000   1.0000   1.0000
     1.0000   1.0000   1.0000   1.0000   1.0000   1.0000   1.0000   1.0000
     1.0000   1.0000   1.0000   1.0000   0.0000   0.0000   0.0000   0.0000
     0.0000   0.0000   0.0000   0.0000   0.0000   0.0000

          k =-0.5000 0.2730 0.0000 (  1790 PWs)   bands (ev):

   -11.6905 -11.6905 -11.5755 -11.5755 -11.5587 -11.5587 -11.5149 -11.5149
   -11.4775 -11.4775  -4.0268  -4.0268   3.1964   3.1964   4.6686   4.6686
     5.5003   5.5003   8.4480   8.4480  12.2333  12.2333  13.9320  13.9320
    14.7262  14.7262  18.4352  18.4352  19.3236  19.3236

     occupation numbers 
     1.0000   1.0000   1.0000   1.0000   1.0000   1.0000   1.0000   1.0000
     1.0000   1.0000   1.0000   1.0000   1.0000   1.0000   1.0000   1.0000
     1.0000   1.0000   1.0000   1.0000   0.0000   0.0000   0.0000   0.0000
     0.0000   0.0000   0.0000   0.0000   0.0000   0.0000

          k =-0.5000 0.4095 0.0000 (  1770 PWs)   bands (ev):

   -11.6958 -11.6958 -11.5739 -11.5739 -11.5547 -11.5547 -11.5210 -11.5210
   -11.4723 -11.4723  -3.8904  -3.8904   3.0402   3.0402   4.5964   4.5964
     5.4718   5.4718   7.5787   7.5787  13.2433  13.2433  13.3001  13.3001
    15.7103  15.7103  18.8405  18.8405  19.9235  19.9235

     occupation numbers 
     1.0000   1.0000   1.0000   1.0000   1.0000   1.0000   1.0000   1.0000
     1.0000   1.0000   1.0000   1.0000   1.0000   1.0000   1.0000   1.0000
     1.0000   1.0000   1.0000   1.0000   0.0000   0.0000   0.0000   0.0000
     0.0000   0.0000   0.0000   0.0000   0.0000   0.0000

          k =-0.5000-0.5460 0.0000 (  1772 PWs)   bands (ev):

   -11.6980 -11.6980 -11.5732 -11.5732 -11.5530 -11.5530 -11.5230 -11.5230
   -11.4706 -11.4706  -3.8305  -3.8305   2.9171   2.9171   4.6113   4.6113
     5.6018   5.6018   7.1375   7.1375  13.0241  13.0241  13.7082  13.7082
    16.2104  16.2104  18.5358  18.5358  20.3708  20.3708

     occupation numbers 
     1.0000   1.0000   1.0000   1.0000   1.0000   1.0000   1.0000   1.0000
     1.0000   1.0000   1.0000   1.0000   1.0000   1.0000   1.0000   1.0000
     1.0000   1.0000   1.0000   1.0000   0.0000   0.0000   0.0000   0.0000
     0.0000   0.0000   0.0000   0.0000   0.0000   0.0000

     highest occupied, lowest unoccupied level (ev):     9.3092   11.0884

!    total energy              =    -413.90022938 Ry
     estimated scf accuracy    <          4.9E-09 Ry

     The total energy is the sum of the following terms:
     one-electron contribution =    -122.69165901 Ry
     hartree contribution      =      88.86519228 Ry
     xc contribution           =    -155.06569862 Ry
     ewald contribution        =    -225.00806403 Ry

     convergence has been achieved in   8 iterations

     Forces acting on atoms (cartesian axes, Ry/au):

     atom    1 type  1   force =    -0.02787217    0.00000000    0.18567864
     atom    2 type  2   force =     0.02787217   -0.00000000    0.17470334
     atom    3 type  2   force =     0.02787217    0.00000000   -0.17470334
     atom    4 type  1   force =    -0.02787217    0.00000000   -0.18567864
     The non-local contrib.  to forces
     atom    1 type  1   force =     0.36415097    0.00000000   -0.13942910
     atom    2 type  2   force =    -0.11971427    0.00000000    0.04741651
     atom    3 type  2   force =    -0.11971427    0.00000000   -0.04741651
     atom    4 type  1   force =     0.36415097    0.00000000    0.13942910
     The ionic contribution  to forces
     atom    1 type  1   force =    -0.47462527   -0.00000000    4.42011068
     atom    2 type  2   force =     0.47462527    0.00000000    3.18509000
     atom    3 type  2   force =     0.47462527   -0.00000000   -3.18509000
     atom    4 type  1   force =    -0.47462527   -0.00000000   -4.42011067
     The local contribution  to forces
     atom    1 type  1   force =     0.09768586    0.00000000   -4.07918319
     atom    2 type  2   force =    -0.34179789    0.00000000   -3.04787851
     atom    3 type  2   force =    -0.34179789    0.00000000    3.04787851
     atom    4 type  1   force =     0.09768586    0.00000000    4.07918319
     The core correction contribution to forces
     atom    1 type  1   force =    -0.01500164   -0.00000000   -0.01565223
     atom    2 type  2   force =     0.01468730   -0.00000000   -0.00988658
     atom    3 type  2   force =     0.01468730    0.00000000    0.00988658
     atom    4 type  1   force =    -0.01500164    0.00000000    0.01565223
     The Hubbard contrib.    to forces
     atom    1 type  1   force =     0.00000000    0.00000000    0.00000000
     atom    2 type  2   force =     0.00000000    0.00000000    0.00000000
     atom    3 type  2   force =     0.00000000    0.00000000    0.00000000
     atom    4 type  1   force =     0.00000000    0.00000000    0.00000000
     The SCF correction term to forces
     atom    1 type  1   force =    -0.00014288   -0.00000000   -0.00016751
     atom    2 type  2   force =     0.00001098   -0.00000000   -0.00003808
     atom    3 type  2   force =     0.00001098   -0.00000000    0.00003808
     atom    4 type  1   force =    -0.00014288   -0.00000000    0.00016751

     Total force =     0.364833     Total SCF correction =     0.000316

     Writing output data file ./tmp/SnSe_monolayer.save/

     init_run     :      1.81s CPU      2.81s WALL (       1 calls)
     electrons    :     34.93s CPU     44.39s WALL (       1 calls)
     forces       :      1.99s CPU      1.89s WALL (       1 calls)

     Called by init_run:
     wfcinit      :      0.72s CPU      1.42s WALL (       1 calls)
     wfcinit:atom :      0.01s CPU      0.00s WALL (       9 calls)
     wfcinit:wfcr :      0.70s CPU      1.41s WALL (       9 calls)
     potinit      :      0.23s CPU      0.26s WALL (       1 calls)
     hinit0       :      0.58s CPU      0.59s WALL (       1 calls)

     Called by electrons:
     c_bands      :     28.44s CPU     37.15s WALL (       8 calls)
     sum_band     :      3.06s CPU      3.17s WALL (       8 calls)
     v_of_rho     :      0.57s CPU      0.57s WALL (       9 calls)
     v_h          :      0.03s CPU      0.03s WALL (       9 calls)
     v_xc         :      0.58s CPU      0.59s WALL (      10 calls)
     newd         :      2.97s CPU      3.90s WALL (       9 calls)
     mix_rho      :      0.06s CPU      0.06s WALL (       8 calls)

     Called by c_bands:
     init_us_2    :      0.12s CPU      0.11s WALL (     162 calls)
     cegterg      :     15.89s CPU     25.32s WALL (      72 calls)

     Called by sum_band:
     sum_band:wei :      0.00s CPU      0.00s WALL (       8 calls)
     sum_band:loo :      1.45s CPU      1.80s WALL (       8 calls)
     sum_band:buf :      0.01s CPU      0.01s WALL (      72 calls)
     sum_band:ini :      0.06s CPU      0.05s WALL (      72 calls)
     sum_band:cal :      0.71s CPU      1.12s WALL (      72 calls)
     sum_band:bec :      0.00s CPU      0.00s WALL (      72 calls)
     addusdens    :      1.22s CPU      1.00s WALL (       8 calls)
     addusd:skk   :      0.00s CPU      0.00s WALL (      16 calls)
     addusd:dgemm :      0.53s CPU      0.30s WALL (      16 calls)
     addusd:qvan2 :      0.50s CPU      0.49s WALL (      16 calls)

     Called by *egterg:
     cdiaghg      :      2.73s CPU      6.87s WALL (     326 calls)
     cegterg:over :      3.07s CPU      4.85s WALL (     254 calls)
     cegterg:upda :      0.65s CPU      1.34s WALL (     254 calls)
     cegterg:last :      0.73s CPU      1.30s WALL (     155 calls)
     h_psi        :      6.61s CPU      8.45s WALL (     335 calls)
     s_psi        :      0.56s CPU      0.98s WALL (     335 calls)
     g_psi        :      0.04s CPU      0.03s WALL (     254 calls)

     Called by h_psi:
     h_psi:calbec :      2.13s CPU      3.74s WALL (     335 calls)
     vloc_psi     :      3.88s CPU      3.68s WALL (     335 calls)
     add_vuspsi   :      0.58s CPU      1.01s WALL (     335 calls)

     General routines
     calbec       :      3.42s CPU      5.43s WALL (     443 calls)
     fft          :      0.34s CPU      0.33s WALL (     126 calls)
     ffts         :      0.03s CPU      0.03s WALL (      17 calls)
     fftw         :      3.89s CPU      3.68s WALL (   14304 calls)
     interpolate  :      0.03s CPU      0.03s WALL (       9 calls)

     Parallel routines
     fft_scatt_xy :      0.63s CPU      0.59s WALL (   14447 calls)
     fft_scatt_yz :      1.23s CPU      1.22s WALL (   14447 calls)

     PWSCF        :     38.98s CPU     49.38s WALL


   This run was terminated on:  22:55:57  26May2026            

=------------------------------------------------------------------------------=
   JOB DONE.
=------------------------------------------------------------------------------=
