
     Program PWSCF v.6.7MaX starts on 26May2026 at 23:12: 5 

     This program is part of the open-source Quantum ESPRESSO suite
     for quantum simulation of materials; please cite
         "P. Giannozzi et al., J. Phys.:Condens. Matter 21 395502 (2009);
         "P. Giannozzi et al., J. Phys.:Condens. Matter 29 465901 (2017);
          URL http://www.quantum-espresso.org", 
     in publications or presentations arising from this work. More details at
     http://www.quantum-espresso.org/quote

     Parallel version (MPI), running on     6 processors

     MPI processes distributed on     1 nodes
     K-points division:     npool     =       3
     R & G space division:  proc/nbgrp/npool/nimage =       2
     Waiting for input...
     Reading input from standard input

     Current dimensions of program PWSCF are:
     Max number of different atomic species (ntypx) = 10
     Max number of k-points (npk) =  40000
     Max angular momentum in pseudopotentials (lmaxx) =  3

     Subspace diagonalization in iterative solution of the eigenvalue problem:
     a serial algorithm will be used

     Message from routine setup:
     using ibrav=0 with symmetry is DISCOURAGED, use correct ibrav instead

     Parallelization info
     --------------------
     sticks:   dense  smooth     PW     G-vecs:    dense   smooth      PW
     Min         814     320     99               146316    36929    6125
     Max         815     321    100               146323    36942    6128
     Sum        1629     641    199               292639    73871   12253



     bravais-lattice index     =            0
     lattice parameter (alat)  =       8.6086  a.u.
     unit-cell volume          =    3334.1707 (a.u.)^3
     number of atoms/cell      =            4
     number of atomic types    =            2
     number of electrons       =        40.00
     number of Kohn-Sham states=           30
     kinetic-energy cutoff     =      30.0000  Ry
     charge density cutoff     =     300.0000  Ry
     scf convergence threshold =      1.0E-08
     mixing beta               =       0.7000
     number of iterations used =            8  plain     mixing
     Exchange-correlation= SLA  PW   PBE  PBE
                           (   1   4   3   4   0   0   0)

     celldm(1)=   8.608647  celldm(2)=   0.000000  celldm(3)=   0.000000
     celldm(4)=   0.000000  celldm(5)=   0.000000  celldm(6)=   0.000000

     crystal axes: (cart. coord. in units of alat)
               a(1) = (   1.000000   0.000000   0.000000 )  
               a(2) = (   0.000000   0.915684   0.000000 )  
               a(3) = (   0.000000   0.000000   5.707387 )  

     reciprocal axes: (cart. coord. in units 2 pi/alat)
               b(1) = (  1.000000  0.000000  0.000000 )  
               b(2) = (  0.000000  1.092079  0.000000 )  
               b(3) = (  0.000000  0.000000  0.175212 )  


     PseudoPot. # 1 for Sn read from file:
     ../pseudo/Sn_pbe_v1.uspp.F.UPF
     MD5 check sum: 4cf58ce39ec5d5d420df3dd08604eb00
     Pseudo is Ultrasoft + core correction, Zval = 14.0
     Generated by new atomic code, or converted to UPF format
     Using radial grid of  891 points,  6 beta functions with: 
                l(1) =   0
                l(2) =   0
                l(3) =   1
                l(4) =   1
                l(5) =   2
                l(6) =   2
     Q(r) pseudized with  6 coefficients,  rinner =    1.200   1.200   1.200
                                                       1.200   1.200

     PseudoPot. # 2 for Se read from file:
     ../pseudo/Se_pbe_v1.uspp.F.UPF
     MD5 check sum: 1b3568f3a8ae88f9a2a0ad0698632c85
     Pseudo is Ultrasoft + core correction, Zval =  6.0
     Generated by new atomic code, or converted to UPF format
     Using radial grid of  877 points,  6 beta functions with: 
                l(1) =   0
                l(2) =   0
                l(3) =   1
                l(4) =   1
                l(5) =   2
                l(6) =   2
     Q(r) pseudized with  8 coefficients,  rinner =    1.300   1.300   1.300
                                                       1.300   1.300

     atomic species   valence    mass     pseudopotential
        Sn            14.00   118.71000     Sn( 1.00)
        Se             6.00    78.97100     Se( 1.00)

      4 Sym. Ops. (no inversion) found ( 3 have fractional translation)


                                    s                        frac. trans.

      isym =  1     identity                                     

 cryst.   s( 1) = (     1          0          0      )
                  (     0          1          0      )
                  (     0          0          1      )

 cart.    s( 1) = (  1.0000000  0.0000000  0.0000000 )
                  (  0.0000000  1.0000000  0.0000000 )
                  (  0.0000000  0.0000000  1.0000000 )


      isym =  2     180 deg rotation - cart. axis [1,0,0]        

 cryst.   s( 2) = (     1          0          0      )    f =( -0.5000000 )
                  (     0         -1          0      )       (  0.0000000 )
                  (     0          0         -1      )       (  0.0000000 )

 cart.    s( 2) = (  1.0000000  0.0000000  0.0000000 )    f =( -0.5000000 )
                  (  0.0000000 -1.0000000  0.0000000 )       (  0.0000000 )
                  (  0.0000000  0.0000000 -1.0000000 )       (  0.0000000 )


      isym =  3     inv. 180 deg rotation - cart. axis [0,0,1]   

 cryst.   s( 3) = (     1          0          0      )    f =( -0.5000000 )
                  (     0          1          0      )       (  0.5000000 )
                  (     0          0         -1      )       (  0.0000000 )

 cart.    s( 3) = (  1.0000000  0.0000000  0.0000000 )    f =( -0.5000000 )
                  (  0.0000000  1.0000000  0.0000000 )       (  0.4578422 )
                  (  0.0000000  0.0000000 -1.0000000 )       (  0.0000000 )


      isym =  4     inv. 180 deg rotation - cart. axis [0,1,0]   

 cryst.   s( 4) = (     1          0          0      )    f =(  0.0000000 )
                  (     0         -1          0      )       (  0.5000000 )
                  (     0          0          1      )       (  0.0000000 )

 cart.    s( 4) = (  1.0000000  0.0000000  0.0000000 )    f =(  0.0000000 )
                  (  0.0000000 -1.0000000  0.0000000 )       (  0.4578422 )
                  (  0.0000000  0.0000000  1.0000000 )       (  0.0000000 )


   Cartesian axes

     site n.     atom                  positions (alat units)
         1           Sn  tau(   1) = (   0.0995059   0.6867633   2.5484674  )
         2           Se  tau(   2) = (   0.5295331   0.2289211   2.5626695  )
         3           Se  tau(   3) = (   0.0295331   0.6867633   3.1447172  )
         4           Sn  tau(   4) = (   0.5995059   0.2289211   3.1589192  )

   Crystallographic axes

     site n.     atom                  positions (cryst. coord.)
         1           Sn  tau(   1) = (  0.0995059  0.7500000  0.4465209  )
         2           Se  tau(   2) = (  0.5295331  0.2500000  0.4490093  )
         3           Se  tau(   3) = (  0.0295331  0.7500000  0.5509907  )
         4           Sn  tau(   4) = (  0.5995059  0.2500000  0.5534791  )

     number of k points=    25
                       cart. coord. in units 2pi/alat
        k(    1) = (   0.0000000   0.0000000   0.0000000), wk =   0.0312500
        k(    2) = (   0.0000000   0.1365099   0.0000000), wk =   0.0625000
        k(    3) = (   0.0000000   0.2730198   0.0000000), wk =   0.0625000
        k(    4) = (   0.0000000   0.4095298   0.0000000), wk =   0.0625000
        k(    5) = (   0.0000000  -0.5460397   0.0000000), wk =   0.0312500
        k(    6) = (   0.1250000   0.0000000   0.0000000), wk =   0.0625000
        k(    7) = (   0.1250000   0.1365099   0.0000000), wk =   0.1250000
        k(    8) = (   0.1250000   0.2730198   0.0000000), wk =   0.1250000
        k(    9) = (   0.1250000   0.4095298   0.0000000), wk =   0.1250000
        k(   10) = (   0.1250000  -0.5460397   0.0000000), wk =   0.0625000
        k(   11) = (   0.2500000   0.0000000   0.0000000), wk =   0.0625000
        k(   12) = (   0.2500000   0.1365099   0.0000000), wk =   0.1250000
        k(   13) = (   0.2500000   0.2730198   0.0000000), wk =   0.1250000
        k(   14) = (   0.2500000   0.4095298   0.0000000), wk =   0.1250000
        k(   15) = (   0.2500000  -0.5460397   0.0000000), wk =   0.0625000
        k(   16) = (   0.3750000   0.0000000   0.0000000), wk =   0.0625000
        k(   17) = (   0.3750000   0.1365099   0.0000000), wk =   0.1250000
        k(   18) = (   0.3750000   0.2730198   0.0000000), wk =   0.1250000
        k(   19) = (   0.3750000   0.4095298   0.0000000), wk =   0.1250000
        k(   20) = (   0.3750000  -0.5460397   0.0000000), wk =   0.0625000
        k(   21) = (  -0.5000000   0.0000000   0.0000000), wk =   0.0312500
        k(   22) = (  -0.5000000   0.1365099   0.0000000), wk =   0.0625000
        k(   23) = (  -0.5000000   0.2730198   0.0000000), wk =   0.0625000
        k(   24) = (  -0.5000000   0.4095298   0.0000000), wk =   0.0625000
        k(   25) = (  -0.5000000  -0.5460397   0.0000000), wk =   0.0312500

                       cryst. coord.
        k(    1) = (   0.0000000   0.0000000   0.0000000), wk =   0.0312500
        k(    2) = (   0.0000000   0.1250000   0.0000000), wk =   0.0625000
        k(    3) = (   0.0000000   0.2500000   0.0000000), wk =   0.0625000
        k(    4) = (   0.0000000   0.3750000   0.0000000), wk =   0.0625000
        k(    5) = (   0.0000000  -0.5000000   0.0000000), wk =   0.0312500
        k(    6) = (   0.1250000   0.0000000   0.0000000), wk =   0.0625000
        k(    7) = (   0.1250000   0.1250000   0.0000000), wk =   0.1250000
        k(    8) = (   0.1250000   0.2500000   0.0000000), wk =   0.1250000
        k(    9) = (   0.1250000   0.3750000   0.0000000), wk =   0.1250000
        k(   10) = (   0.1250000  -0.5000000   0.0000000), wk =   0.0625000
        k(   11) = (   0.2500000   0.0000000   0.0000000), wk =   0.0625000
        k(   12) = (   0.2500000   0.1250000   0.0000000), wk =   0.1250000
        k(   13) = (   0.2500000   0.2500000   0.0000000), wk =   0.1250000
        k(   14) = (   0.2500000   0.3750000   0.0000000), wk =   0.1250000
        k(   15) = (   0.2500000  -0.5000000   0.0000000), wk =   0.0625000
        k(   16) = (   0.3750000   0.0000000   0.0000000), wk =   0.0625000
        k(   17) = (   0.3750000   0.1250000   0.0000000), wk =   0.1250000
        k(   18) = (   0.3750000   0.2500000   0.0000000), wk =   0.1250000
        k(   19) = (   0.3750000   0.3750000   0.0000000), wk =   0.1250000
        k(   20) = (   0.3750000  -0.5000000   0.0000000), wk =   0.0625000
        k(   21) = (  -0.5000000   0.0000000   0.0000000), wk =   0.0312500
        k(   22) = (  -0.5000000   0.1250000   0.0000000), wk =   0.0625000
        k(   23) = (  -0.5000000   0.2500000   0.0000000), wk =   0.0625000
        k(   24) = (  -0.5000000   0.3750000   0.0000000), wk =   0.0625000
        k(   25) = (  -0.5000000  -0.5000000   0.0000000), wk =   0.0312500

     Dense  grid:   292639 G-vectors     FFT dimensions: (  48,  48, 288)

     Smooth grid:    73871 G-vectors     FFT dimensions: (  32,  30, 180)

     Dynamical RAM for                 wfc:       2.12 MB

     Dynamical RAM for     wfc (w. buffer):      21.18 MB

     Dynamical RAM for           str. fact:       4.47 MB

     Dynamical RAM for           local pot:       0.00 MB

     Dynamical RAM for          nlocal pot:       5.08 MB

     Dynamical RAM for                qrad:       2.78 MB

     Dynamical RAM for          rho,v,vnew:      14.29 MB

     Dynamical RAM for               rhoin:       4.76 MB

     Dynamical RAM for            rho*nmix:      35.72 MB

     Dynamical RAM for           G-vectors:       8.65 MB

     Dynamical RAM for          h,s,v(r/c):       0.16 MB

     Dynamical RAM for          <psi|beta>:       0.03 MB

     Dynamical RAM for                 psi:       4.24 MB

     Dynamical RAM for                hpsi:       4.24 MB

     Dynamical RAM for                spsi:       4.24 MB

     Dynamical RAM for      wfcinit/wfcrot:       4.26 MB

     Dynamical RAM for           addusdens:     141.40 MB

     Dynamical RAM for          addusforce:     142.53 MB

     Estimated static dynamical RAM per process >     116.29 MB

     Estimated max dynamical RAM per process >     258.82 MB

     Estimated total dynamical RAM >       1.52 GB

     Initial potential from superposition of free atoms

     starting charge   37.99977, renormalised to   40.00000

     negative rho (up, down):  2.726E-03 0.000E+00
     Starting wfcs are   26 randomized atomic wfcs +    4 random wfcs

     total cpu time spent up to now is        9.7 secs

     Self-consistent Calculation

     iteration #  1     ecut=    30.00 Ry     beta= 0.70
     Davidson diagonalization with overlap
     ethr =  1.00E-02,  avg # of iterations =  8.1

     negative rho (up, down):  1.949E-03 0.000E+00

     total cpu time spent up to now is       35.9 secs

     total energy              =    -413.22207697 Ry
     estimated scf accuracy    <       1.36491641 Ry

     iteration #  2     ecut=    30.00 Ry     beta= 0.70
     Davidson diagonalization with overlap
     ethr =  3.41E-03,  avg # of iterations =  2.0

     negative rho (up, down):  2.117E-03 0.000E+00

     total cpu time spent up to now is       53.5 secs

     total energy              =    -413.61215838 Ry
     estimated scf accuracy    <       0.70160121 Ry

     iteration #  3     ecut=    30.00 Ry     beta= 0.70
     Davidson diagonalization with overlap
     ethr =  1.75E-03,  avg # of iterations =  2.0

     negative rho (up, down):  2.114E-03 0.000E+00

     total cpu time spent up to now is       68.3 secs

     total energy              =    -413.79050401 Ry
     estimated scf accuracy    <       0.03969484 Ry

     iteration #  4     ecut=    30.00 Ry     beta= 0.70
     Davidson diagonalization with overlap
     ethr =  9.92E-05,  avg # of iterations =  5.6

     negative rho (up, down):  2.156E-03 0.000E+00

     total cpu time spent up to now is       87.4 secs

     total energy              =    -413.79690571 Ry
     estimated scf accuracy    <       0.00076389 Ry

     iteration #  5     ecut=    30.00 Ry     beta= 0.70
     Davidson diagonalization with overlap
     ethr =  1.91E-06,  avg # of iterations =  9.9

     negative rho (up, down):  2.154E-03 0.000E+00

     total cpu time spent up to now is      117.5 secs

     total energy              =    -413.79705935 Ry
     estimated scf accuracy    <       0.00013714 Ry

     iteration #  6     ecut=    30.00 Ry     beta= 0.70
     Davidson diagonalization with overlap
     ethr =  3.43E-07,  avg # of iterations =  3.8

     negative rho (up, down):  2.151E-03 0.000E+00

     total cpu time spent up to now is      133.2 secs

     total energy              =    -413.79708833 Ry
     estimated scf accuracy    <       0.00002426 Ry

     iteration #  7     ecut=    30.00 Ry     beta= 0.70
     Davidson diagonalization with overlap
     ethr =  6.07E-08,  avg # of iterations =  2.0

     negative rho (up, down):  2.150E-03 0.000E+00

     total cpu time spent up to now is      148.7 secs

     total energy              =    -413.79709011 Ry
     estimated scf accuracy    <       0.00000217 Ry

     iteration #  8     ecut=    30.00 Ry     beta= 0.70
     Davidson diagonalization with overlap
     ethr =  5.42E-09,  avg # of iterations =  2.6

     negative rho (up, down):  2.151E-03 0.000E+00

     total cpu time spent up to now is      165.9 secs

     total energy              =    -413.79709076 Ry
     estimated scf accuracy    <       0.00000017 Ry

     iteration #  9     ecut=    30.00 Ry     beta= 0.70
     Davidson diagonalization with overlap
     ethr =  4.23E-10,  avg # of iterations =  2.0

     negative rho (up, down):  2.150E-03 0.000E+00

     total cpu time spent up to now is      183.2 secs

     End of self-consistent calculation

          k = 0.0000 0.0000 0.0000 (  9263 PWs)   bands (ev):

   -23.0248 -23.0141 -23.0121 -23.0068 -23.0008 -22.9799 -22.9765 -22.9703
   -22.9670 -22.9579 -15.0623 -14.0611  -8.0848  -6.9932  -5.2535  -4.9601
    -4.4989  -3.6740  -3.3805  -2.3166  -0.2556   1.4308   1.9081   2.0306
     2.3439   2.3685   2.4414   3.0448   3.2984   3.6984

     occupation numbers 
     1.0000   1.0000   1.0000   1.0000   1.0000   1.0000   1.0000   1.0000
     1.0000   1.0000   1.0000   1.0000   1.0000   1.0000   1.0000   1.0000
     1.0000   1.0000   1.0000   1.0000   0.0000   0.0000   0.0000   0.0000
     0.0000   0.0000   0.0000   0.0000   0.0000   0.0000

          k = 0.0000 0.1365 0.0000 (  9223 PWs)   bands (ev):

   -23.0226 -23.0136 -23.0120 -23.0083 -22.9994 -22.9804 -22.9769 -22.9693
   -22.9681 -22.9579 -14.9889 -14.0412  -8.2460  -7.2230  -5.2054  -4.8728
    -4.4423  -3.6595  -3.1574  -2.3609  -0.1919   1.4506   1.7099   1.8042
     2.1203   2.4850   2.4972   3.0444   3.1529   3.4216

     occupation numbers 
     1.0000   1.0000   1.0000   1.0000   1.0000   1.0000   1.0000   1.0000
     1.0000   1.0000   1.0000   1.0000   1.0000   1.0000   1.0000   1.0000
     1.0000   1.0000   1.0000   1.0000   0.0000   0.0000   0.0000   0.0000
     0.0000   0.0000   0.0000   0.0000   0.0000   0.0000

          k = 0.0000 0.2730 0.0000 (  9260 PWs)   bands (ev):

   -23.0188 -23.0169 -23.0098 -23.0075 -22.9964 -22.9819 -22.9775 -22.9709
   -22.9668 -22.9580 -14.7842 -14.0116  -8.6029  -7.7908  -4.9898  -4.6230
    -4.2079  -3.5479  -2.6823  -2.5321   0.0360   0.2198   0.9670   1.4089
     2.0184   2.3374   2.7325   2.8815   3.0974   3.7663

     occupation numbers 
     1.0000   1.0000   1.0000   1.0000   1.0000   1.0000   1.0000   1.0000
     1.0000   1.0000   1.0000   1.0000   1.0000   1.0000   1.0000   1.0000
     1.0000   1.0000   1.0000   1.0000   0.0000   0.0000   0.0000   0.0000
     0.0000   0.0000   0.0000   0.0000   0.0000   0.0000

          k = 0.0000 0.4095 0.0000 (  9282 PWs)   bands (ev):

   -23.0201 -23.0199 -23.0062 -23.0037 -22.9926 -22.9847 -22.9774 -22.9740
   -22.9634 -22.9586 -14.4985 -14.0497  -8.8694  -8.4076  -4.6021  -4.2559
    -3.8949  -3.4873  -2.7002  -2.1851  -0.7619   0.2650   0.2851   0.5644
     0.9545   1.9113   3.2294   3.5093   3.6148   4.2739

     occupation numbers 
     1.0000   1.0000   1.0000   1.0000   1.0000   1.0000   1.0000   1.0000
     1.0000   1.0000   1.0000   1.0000   1.0000   1.0000   1.0000   1.0000
     1.0000   1.0000   1.0000   1.0000   0.0000   0.0000   0.0000   0.0000
     0.0000   0.0000   0.0000   0.0000   0.0000   0.0000

          k = 0.0000-0.5460 0.0000 (  9298 PWs)   bands (ev):

   -23.0212 -23.0212 -23.0031 -23.0031 -22.9885 -22.9885 -22.9762 -22.9762
   -22.9604 -22.9604 -14.2210 -14.2210  -8.8154  -8.8154  -4.1894  -4.1894
    -3.6845  -3.6845  -2.3832  -2.3832  -0.6067  -0.6067   0.2560   0.2560
     1.1726   1.1726   4.0069   4.0069   4.3746   4.3746

     occupation numbers 
     1.0000   1.0000   1.0000   1.0000   1.0000   1.0000   1.0000   1.0000
     1.0000   1.0000   1.0000   1.0000   1.0000   1.0000   1.0000   1.0000
     1.0000   1.0000   1.0000   1.0000   0.0000   0.0000   0.0000   0.0000
     0.0000   0.0000   0.0000   0.0000   0.0000   0.0000

          k = 0.1250 0.0000 0.0000 (  9219 PWs)   bands (ev):

   -23.0242 -23.0141 -23.0125 -23.0075 -22.9990 -22.9799 -22.9761 -22.9700
   -22.9673 -22.9586 -15.0056 -14.0648  -8.3037  -7.2942  -5.1971  -4.6747
    -4.4070  -3.3308  -3.2942  -2.4043  -0.2011   1.4413   1.5177   2.0182
     2.0680   2.4467   2.4741   3.0419   3.1003   3.3881

     occupation numbers 
     1.0000   1.0000   1.0000   1.0000   1.0000   1.0000   1.0000   1.0000
     1.0000   1.0000   1.0000   1.0000   1.0000   1.0000   1.0000   1.0000
     1.0000   1.0000   1.0000   1.0000   0.0000   0.0000   0.0000   0.0000
     0.0000   0.0000   0.0000   0.0000   0.0000   0.0000

          k = 0.1250 0.1365 0.0000 (  9254 PWs)   bands (ev):

   -23.0221 -23.0142 -23.0119 -23.0091 -22.9977 -22.9804 -22.9766 -22.9690
   -22.9685 -22.9584 -14.9335 -14.0437  -8.3836  -7.4370  -5.1350  -5.0747
    -3.9651  -3.8135  -2.7385  -2.4069  -0.1255   0.7062   1.5446   2.0983
     2.2548   2.5273   2.5513   2.6063   3.0296   3.5128

     occupation numbers 
     1.0000   1.0000   1.0000   1.0000   1.0000   1.0000   1.0000   1.0000
     1.0000   1.0000   1.0000   1.0000   1.0000   1.0000   1.0000   1.0000
     1.0000   1.0000   1.0000   1.0000   0.0000   0.0000   0.0000   0.0000
     0.0000   0.0000   0.0000   0.0000   0.0000   0.0000

          k = 0.1250 0.2730 0.0000 (  9259 PWs)   bands (ev):

   -23.0193 -23.0177 -23.0100 -23.0074 -22.9948 -22.9819 -22.9773 -22.9712
   -22.9664 -22.9583 -14.7336 -14.0093  -8.6029  -7.8514  -5.2497  -4.9378
    -3.9554  -3.5958  -2.5102  -2.4225  -0.0719   0.0725   0.6447   1.6817
     2.3657   2.6664   2.7910   2.9882   3.1575   3.8399

     occupation numbers 
     1.0000   1.0000   1.0000   1.0000   1.0000   1.0000   1.0000   1.0000
     1.0000   1.0000   1.0000   1.0000   1.0000   1.0000   1.0000   1.0000
     1.0000   1.0000   1.0000   1.0000   0.0000   0.0000   0.0000   0.0000
     0.0000   0.0000   0.0000   0.0000   0.0000   0.0000

          k = 0.1250 0.4095 0.0000 (  9293 PWs)   bands (ev):

   -23.0212 -23.0211 -23.0060 -23.0035 -22.9914 -22.9845 -22.9773 -22.9740
   -22.9631 -22.9587 -14.4572 -14.0373  -8.7977  -8.3712  -4.9983  -4.6010
    -3.9159  -3.6225  -2.7437  -2.4013  -0.3530  -0.1700   0.6583   0.9721
     1.9737   2.0189   3.3358   3.5919   3.7197   4.1519

     occupation numbers 
     1.0000   1.0000   1.0000   1.0000   1.0000   1.0000   1.0000   1.0000
     1.0000   1.0000   1.0000   1.0000   1.0000   1.0000   1.0000   1.0000
     1.0000   1.0000   1.0000   1.0000   0.0000   0.0000   0.0000   0.0000
     0.0000   0.0000   0.0000   0.0000   0.0000   0.0000

          k = 0.1250-0.5460 0.0000 (  9308 PWs)   bands (ev):

   -23.0226 -23.0226 -23.0029 -23.0029 -22.9879 -22.9879 -22.9761 -22.9761
   -22.9603 -22.9603 -14.1938 -14.1938  -8.7382  -8.7382  -4.5169  -4.5169
    -3.9558  -3.9558  -2.6017  -2.6017  -0.4064  -0.4064   1.1190   1.1190
     1.3468   1.3468   4.0123   4.0123   4.4542   4.4543

     occupation numbers 
     1.0000   1.0000   1.0000   1.0000   1.0000   1.0000   1.0000   1.0000
     1.0000   1.0000   1.0000   1.0000   1.0000   1.0000   1.0000   1.0000
     1.0000   1.0000   1.0000   1.0000   0.0000   0.0000   0.0000   0.0000
     0.0000   0.0000   0.0000   0.0000   0.0000   0.0000

          k = 0.2500 0.0000 0.0000 (  9207 PWs)   bands (ev):

   -23.0225 -23.0145 -23.0133 -23.0095 -22.9945 -22.9802 -22.9749 -22.9691
   -22.9682 -22.9603 -14.8460 -14.0947  -8.7044  -7.9193  -4.9778  -4.1461
    -4.0902  -3.2251  -2.6275  -2.4895   0.0163   0.4330   1.2517   1.3937
     2.1900   2.2471   2.6233   2.7931   2.9771   3.6570

     occupation numbers 
     1.0000   1.0000   1.0000   1.0000   1.0000   1.0000   1.0000   1.0000
     1.0000   1.0000   1.0000   1.0000   1.0000   1.0000   1.0000   1.0000
     1.0000   1.0000   1.0000   1.0000   0.0000   0.0000   0.0000   0.0000
     0.0000   0.0000   0.0000   0.0000   0.0000   0.0000

          k = 0.2500 0.1365 0.0000 (  9222 PWs)   bands (ev):

   -23.0209 -23.0156 -23.0119 -23.0108 -22.9934 -22.9806 -22.9757 -22.9694
   -22.9679 -22.9599 -14.7785 -14.0690  -8.6714  -7.9360  -5.0434  -4.9141
    -3.8343  -3.4715  -2.4078  -2.2944   0.0851   0.1214   0.7673   1.7939
     2.3335   2.5006   2.7174   2.9222   3.0818   3.7696

     occupation numbers 
     1.0000   1.0000   1.0000   1.0000   1.0000   1.0000   1.0000   1.0000
     1.0000   1.0000   1.0000   1.0000   1.0000   1.0000   1.0000   1.0000
     1.0000   1.0000   1.0000   1.0000   0.0000   0.0000   0.0000   0.0000
     0.0000   0.0000   0.0000   0.0000   0.0000   0.0000

          k = 0.2500 0.2730 0.0000 (  9270 PWs)   bands (ev):

   -23.0207 -23.0197 -23.0100 -23.0072 -22.9912 -22.9820 -22.9768 -22.9718
   -22.9653 -22.9592 -14.5937 -14.0187  -8.6199  -8.0436  -5.6933  -4.8030
    -4.3605  -3.4189  -2.9286  -2.1602  -0.1684   0.5443   0.5929   2.0208
     2.4822   3.0489   3.1374   3.3012   3.4312   3.8068

     occupation numbers 
     1.0000   1.0000   1.0000   1.0000   1.0000   1.0000   1.0000   1.0000
     1.0000   1.0000   1.0000   1.0000   1.0000   1.0000   1.0000   1.0000
     1.0000   1.0000   1.0000   1.0000   0.0000   0.0000   0.0000   0.0000
     0.0000   0.0000   0.0000   0.0000   0.0000   0.0000

          k = 0.2500 0.4095 0.0000 (  9283 PWs)   bands (ev):

   -23.0240 -23.0239 -23.0053 -23.0031 -22.9888 -22.9842 -22.9768 -22.9740
   -22.9624 -22.9590 -14.3467 -14.0149  -8.6074  -8.2895  -5.7657  -4.7139
    -4.5909  -3.7353  -3.4895  -2.6090   0.0246   1.0538   1.1073   1.6875
     2.4373   3.1968   3.5329   3.6332   4.0101   4.0433

     occupation numbers 
     1.0000   1.0000   1.0000   1.0000   1.0000   1.0000   1.0000   1.0000
     1.0000   1.0000   1.0000   1.0000   1.0000   1.0000   1.0000   1.0000
     1.0000   1.0000   1.0000   1.0000   0.0000   0.0000   0.0000   0.0000
     0.0000   0.0000   0.0000   0.0000   0.0000   0.0000

          k = 0.2500-0.5460 0.0000 (  9280 PWs)   bands (ev):

   -23.0257 -23.0257 -23.0024 -23.0024 -22.9866 -22.9866 -22.9757 -22.9757
   -22.9600 -22.9600 -14.1264 -14.1264  -8.5252  -8.5252  -5.2995  -5.2995
    -4.2533  -4.2533  -3.2025  -3.2025   0.6515   0.6515   1.5677   1.5677
     2.6315   2.6315   3.7635   3.7635   4.7219   4.7219

     occupation numbers 
     1.0000   1.0000   1.0000   1.0000   1.0000   1.0000   1.0000   1.0000
     1.0000   1.0000   1.0000   1.0000   1.0000   1.0000   1.0000   1.0000
     1.0000   1.0000   1.0000   1.0000   0.0000   0.0000   0.0000   0.0000
     0.0000   0.0000   0.0000   0.0000   0.0000   0.0000

          k = 0.3750 0.0000 0.0000 (  9243 PWs)   bands (ev):

   -23.0202 -23.0157 -23.0138 -23.0117 -22.9890 -22.9814 -22.9732 -22.9696
   -22.9674 -22.9627 -14.6174 -14.1919  -8.9507  -8.5135  -4.6043  -3.8066
    -3.7697  -3.1983  -2.5856  -1.7176  -0.4601   0.4447   0.6771   0.7352
     1.3191   1.7734   3.0394   3.3259   3.4274   4.1104

     occupation numbers 
     1.0000   1.0000   1.0000   1.0000   1.0000   1.0000   1.0000   1.0000
     1.0000   1.0000   1.0000   1.0000   1.0000   1.0000   1.0000   1.0000
     1.0000   1.0000   1.0000   1.0000   0.0000   0.0000   0.0000   0.0000
     0.0000   0.0000   0.0000   0.0000   0.0000   0.0000

          k = 0.3750 0.1365 0.0000 (  9226 PWs)   bands (ev):

   -23.0194 -23.0170 -23.0124 -23.0124 -22.9884 -22.9817 -22.9743 -22.9707
   -22.9662 -22.9619 -14.5583 -14.1571  -8.8638  -8.4550  -4.7226  -4.5583
    -3.8544  -3.6031  -2.2666  -2.1370  -0.0286   0.2032   0.6419   1.2133
     1.9757   2.2320   3.1702   3.4415   3.5560   4.1218

     occupation numbers 
     1.0000   1.0000   1.0000   1.0000   1.0000   1.0000   1.0000   1.0000
     1.0000   1.0000   1.0000   1.0000   1.0000   1.0000   1.0000   1.0000
     1.0000   1.0000   1.0000   1.0000   0.0000   0.0000   0.0000   0.0000
     0.0000   0.0000   0.0000   0.0000   0.0000   0.0000

          k = 0.3750 0.2730 0.0000 (  9240 PWs)   bands (ev):

   -23.0222 -23.0218 -23.0094 -23.0075 -22.9872 -22.9826 -22.9757 -22.9728
   -22.9638 -22.9605 -14.4008 -14.0772  -8.6357  -8.3219  -5.6733  -4.7843
    -4.4870  -3.7018  -3.2873  -2.5110   0.2009   1.1680   1.4696   1.6690
     2.5019   3.2369   3.5447   3.5713   3.9191   3.9790

     occupation numbers 
     1.0000   1.0000   1.0000   1.0000   1.0000   1.0000   1.0000   1.0000
     1.0000   1.0000   1.0000   1.0000   1.0000   1.0000   1.0000   1.0000
     1.0000   1.0000   1.0000   1.0000   0.0000   0.0000   0.0000   0.0000
     0.0000   0.0000   0.0000   0.0000   0.0000   0.0000

          k = 0.3750 0.4095 0.0000 (  9249 PWs)   bands (ev):

   -23.0268 -23.0266 -23.0045 -23.0032 -22.9862 -22.9841 -22.9758 -22.9741
   -22.9614 -22.9596 -14.2047 -14.0189  -8.3860  -8.2307  -6.1288  -5.3435
    -4.8534  -4.1774  -3.6038  -3.0787   0.7877   1.5771   1.8740   2.4987
     3.0507   3.2392   3.7529   3.9362   4.3889   4.5118

     occupation numbers 
     1.0000   1.0000   1.0000   1.0000   1.0000   1.0000   1.0000   1.0000
     1.0000   1.0000   1.0000   1.0000   1.0000   1.0000   1.0000   1.0000
     1.0000   1.0000   1.0000   1.0000   0.0000   0.0000   0.0000   0.0000
     0.0000   0.0000   0.0000   0.0000   0.0000   0.0000

          k = 0.3750-0.5460 0.0000 (  9244 PWs)   bands (ev):

   -23.0287 -23.0287 -23.0021 -23.0021 -22.9854 -22.9854 -22.9751 -22.9751
   -22.9598 -22.9598 -14.0563 -14.0563  -8.2538  -8.2538  -5.9098  -5.9098
    -4.7791  -4.7791  -3.3872  -3.3872   1.2790   1.2790   2.4096   2.4096
     3.3258   3.3258   3.8027   3.8027   5.1850   5.1850

     occupation numbers 
     1.0000   1.0000   1.0000   1.0000   1.0000   1.0000   1.0000   1.0000
     1.0000   1.0000   1.0000   1.0000   1.0000   1.0000   1.0000   1.0000
     1.0000   1.0000   1.0000   1.0000   0.0000   0.0000   0.0000   0.0000
     0.0000   0.0000   0.0000   0.0000   0.0000   0.0000

          k =-0.5000 0.0000 0.0000 (  9220 PWs)   bands (ev):

   -23.0177 -23.0177 -23.0133 -23.0133 -22.9843 -22.9843 -22.9713 -22.9713
   -22.9652 -22.9652 -14.3774 -14.3774  -8.8887  -8.8887  -4.1463  -4.1463
    -3.3963  -3.3963  -1.9529  -1.9529  -0.2094  -0.2094   0.7641   0.7641
     1.0635   1.0635   3.7412   3.7413   4.0587   4.0589

     occupation numbers 
     1.0000   1.0000   1.0000   1.0000   1.0000   1.0000   1.0000   1.0000
     1.0000   1.0000   1.0000   1.0000   1.0000   1.0000   1.0000   1.0000
     1.0000   1.0000   1.0000   1.0000   0.0000   0.0000   0.0000   0.0000
     0.0000   0.0000   0.0000   0.0000   0.0000   0.0000

          k =-0.5000 0.1365 0.0000 (  9214 PWs)   bands (ev):

   -23.0181 -23.0181 -23.0129 -23.0129 -22.9842 -22.9842 -22.9725 -22.9725
   -22.9641 -22.9641 -14.3301 -14.3301  -8.7975  -8.7975  -4.3126  -4.3126
    -3.9867  -3.9867  -2.1474  -2.1474   0.0122   0.0122   1.1364   1.1364
     1.6742   1.6742   3.8278   3.8278   4.1644   4.1645

     occupation numbers 
     1.0000   1.0000   1.0000   1.0000   1.0000   1.0000   1.0000   1.0000
     1.0000   1.0000   1.0000   1.0000   1.0000   1.0000   1.0000   1.0000
     1.0000   1.0000   1.0000   1.0000   0.0000   0.0000   0.0000   0.0000
     0.0000   0.0000   0.0000   0.0000   0.0000   0.0000

          k =-0.5000 0.2730 0.0000 (  9206 PWs)   bands (ev):

   -23.0227 -23.0227 -23.0084 -23.0084 -22.9843 -22.9843 -22.9741 -22.9741
   -22.9621 -22.9621 -14.2106 -14.2106  -8.5503  -8.5503  -5.2800  -5.2800
    -4.1310  -4.1310  -3.0503  -3.0503   0.8643   0.8643   1.8682   1.8682
     2.7286   2.7286   3.7992   3.7992   4.4767   4.4768

     occupation numbers 
     1.0000   1.0000   1.0000   1.0000   1.0000   1.0000   1.0000   1.0000
     1.0000   1.0000   1.0000   1.0000   1.0000   1.0000   1.0000   1.0000
     1.0000   1.0000   1.0000   1.0000   0.0000   0.0000   0.0000   0.0000
     0.0000   0.0000   0.0000   0.0000   0.0000   0.0000

          k =-0.5000 0.4095 0.0000 (  9238 PWs)   bands (ev):

   -23.0278 -23.0278 -23.0038 -23.0038 -22.9847 -22.9847 -22.9747 -22.9747
   -22.9604 -22.9604 -14.0824 -14.0824  -8.2523  -8.2523  -5.9529  -5.9529
    -4.6628  -4.6628  -3.3938  -3.3938   1.2828   1.2828   2.6536   2.6536
     3.4103   3.4103   3.7222   3.7222   5.0623   5.0623

     occupation numbers 
     1.0000   1.0000   1.0000   1.0000   1.0000   1.0000   1.0000   1.0000
     1.0000   1.0000   1.0000   1.0000   1.0000   1.0000   1.0000   1.0000
     1.0000   1.0000   1.0000   1.0000   0.0000   0.0000   0.0000   0.0000
     0.0000   0.0000   0.0000   0.0000   0.0000   0.0000

          k =-0.5000-0.5460 0.0000 (  9148 PWs)   bands (ev):

   -23.0299 -23.0299 -23.0020 -23.0020 -22.9849 -22.9849 -22.9747 -22.9747
   -22.9596 -22.9596 -14.0263 -14.0263  -8.1113  -8.1113  -6.1433  -6.1433
    -5.0387  -5.0387  -3.4005  -3.4005   1.4207   1.4207   2.9072   2.9072
     3.1700   3.1700   4.2464   4.2464   5.4405   5.4405

     occupation numbers 
     1.0000   1.0000   1.0000   1.0000   1.0000   1.0000   1.0000   1.0000
     1.0000   1.0000   1.0000   1.0000   1.0000   1.0000   1.0000   1.0000
     1.0000   1.0000   1.0000   1.0000   0.0000   0.0000   0.0000   0.0000
     0.0000   0.0000   0.0000   0.0000   0.0000   0.0000

     highest occupied, lowest unoccupied level (ev):    -1.7176   -0.7619

!    total energy              =    -413.79709080 Ry
     estimated scf accuracy    <          8.4E-10 Ry

     The total energy is the sum of the following terms:
     one-electron contribution =   -1710.74847031 Ry
     hartree contribution      =     866.33829291 Ry
     xc contribution           =    -154.41510280 Ry
     ewald contribution        =     585.02818940 Ry

     convergence has been achieved in   9 iterations

     negative rho (up, down):  2.150E-03 0.000E+00

     Forces acting on atoms (cartesian axes, Ry/au):

     atom    1 type  1   force =     0.00000289    0.00000000    0.00005683
     atom    2 type  2   force =    -0.00000289    0.00000000    0.00046398
     atom    3 type  2   force =    -0.00000289   -0.00000000   -0.00046398
     atom    4 type  1   force =     0.00000289    0.00000000   -0.00005683
     The non-local contrib.  to forces
     atom    1 type  1   force =     0.24647064    0.00000000    0.44492831
     atom    2 type  2   force =    -0.07977179    0.00000000    0.19454345
     atom    3 type  2   force =    -0.07977179    0.00000000   -0.19454345
     atom    4 type  1   force =     0.24647064    0.00000000   -0.44492831
     The ionic contribution  to forces
     atom    1 type  1   force =    -1.27654529    0.00000000  -40.65686312
     atom    2 type  2   force =     1.27654529   -0.00000000  -18.04479941
     atom    3 type  2   force =     1.27654529   -0.00000000   18.04479941
     atom    4 type  1   force =    -1.27654529   -0.00000000   40.65686311
     The local contribution  to forces
     atom    1 type  1   force =     1.03382629    0.00000000   40.21971756
     atom    2 type  2   force =    -1.20561947    0.00000000   17.87296937
     atom    3 type  2   force =    -1.20561948    0.00000000  -17.87296938
     atom    4 type  1   force =     1.03382629    0.00000000  -40.21971756
     The core correction contribution to forces
     atom    1 type  1   force =    -0.00370926   -0.00000000   -0.00769799
     atom    2 type  2   force =     0.00880177   -0.00000000   -0.02225131
     atom    3 type  2   force =     0.00880177    0.00000000    0.02225131
     atom    4 type  1   force =    -0.00370926   -0.00000000    0.00769799
     The Hubbard contrib.    to forces
     atom    1 type  1   force =     0.00000000    0.00000000    0.00000000
     atom    2 type  2   force =     0.00000000    0.00000000    0.00000000
     atom    3 type  2   force =     0.00000000    0.00000000    0.00000000
     atom    4 type  1   force =     0.00000000    0.00000000    0.00000000
     The SCF correction term to forces
     atom    1 type  1   force =    -0.00007461   -0.00000000   -0.00002793
     atom    2 type  2   force =     0.00000619    0.00000000    0.00000188
     atom    3 type  2   force =     0.00000619    0.00000000   -0.00000188
     atom    4 type  1   force =    -0.00007461   -0.00000000    0.00002793

     Total force =     0.000661     Total SCF correction =     0.000113
     SCF correction compared to forces is large: reduce conv_thr to get better values

     Writing output data file ./tmp/SnSe_monolayer.save/

     init_run     :      7.30s CPU      8.32s WALL (       1 calls)
     electrons    :    144.99s CPU    173.56s WALL (       1 calls)
     forces       :      6.32s CPU      7.25s WALL (       1 calls)

     Called by init_run:
     wfcinit      :      2.22s CPU      2.61s WALL (       1 calls)
     wfcinit:atom :      0.02s CPU      0.02s WALL (       9 calls)
     wfcinit:wfcr :      2.13s CPU      2.53s WALL (       9 calls)
     potinit      :      1.57s CPU      1.68s WALL (       1 calls)
     hinit0       :      2.05s CPU      2.08s WALL (       1 calls)

     Called by electrons:
     c_bands      :    107.94s CPU    126.26s WALL (       9 calls)
     sum_band     :     18.93s CPU     22.76s WALL (       9 calls)
     v_of_rho     :      4.03s CPU      4.72s WALL (      10 calls)
     v_h          :      0.34s CPU      0.39s WALL (      10 calls)
     v_xc         :      4.04s CPU      4.75s WALL (      11 calls)
     newd         :     14.39s CPU     20.54s WALL (      10 calls)
     mix_rho      :      0.68s CPU      0.70s WALL (       9 calls)

     Called by c_bands:
     init_us_2    :      0.76s CPU      0.72s WALL (     180 calls)
     cegterg      :     79.89s CPU     99.09s WALL (      81 calls)

     Called by sum_band:
     sum_band:wei :      0.08s CPU      0.09s WALL (       9 calls)
     sum_band:loo :     10.55s CPU     13.35s WALL (       9 calls)
     sum_band:buf :      0.06s CPU      0.06s WALL (      81 calls)
     sum_band:ini :      0.35s CPU      0.34s WALL (      81 calls)
     sum_band:cal :      3.41s CPU      6.60s WALL (      81 calls)
     sum_band:bec :      0.00s CPU      0.00s WALL (      81 calls)
     addusdens    :      6.41s CPU      7.45s WALL (       9 calls)
     addusd:skk   :      0.01s CPU      0.03s WALL (      18 calls)
     addusd:dgemm :      1.89s CPU      2.29s WALL (      18 calls)
     addusd:qvan2 :      3.85s CPU      3.84s WALL (      18 calls)

     Called by *egterg:
     cdiaghg      :      3.97s CPU      8.99s WALL (     414 calls)
     cegterg:over :     15.00s CPU     23.33s WALL (     333 calls)
     cegterg:upda :      1.95s CPU      2.30s WALL (     333 calls)
     cegterg:last :      3.11s CPU      2.47s WALL (     183 calls)
     h_psi        :     46.82s CPU     51.03s WALL (     423 calls)
     s_psi        :      2.52s CPU      1.82s WALL (     423 calls)
     g_psi        :      0.24s CPU      0.20s WALL (     333 calls)

     Called by h_psi:
     h_psi:calbec :     13.36s CPU     20.16s WALL (     423 calls)
     vloc_psi     :     30.71s CPU     28.81s WALL (     423 calls)
     add_vuspsi   :      2.57s CPU      1.89s WALL (     423 calls)

     General routines
     calbec       :     17.57s CPU     28.00s WALL (     540 calls)
     fft          :      3.85s CPU      4.19s WALL (     139 calls)
     ffts         :      0.17s CPU      0.16s WALL (      19 calls)
     fftw         :     32.08s CPU     30.09s WALL (   15616 calls)
     interpolate  :      0.34s CPU      0.35s WALL (      10 calls)

     Parallel routines
     fft_scatt_xy :      6.50s CPU      6.10s WALL (   15774 calls)
     fft_scatt_yz :     10.33s CPU     10.00s WALL (   15774 calls)

     PWSCF        :   2m39.86s CPU   3m10.66s WALL


   This run was terminated on:  23:15:15  26May2026            

=------------------------------------------------------------------------------=
   JOB DONE.
=------------------------------------------------------------------------------=
