
     Program PWSCF v.6.7MaX starts on 26May2026 at 23: 2: 8 

     This program is part of the open-source Quantum ESPRESSO suite
     for quantum simulation of materials; please cite
         "P. Giannozzi et al., J. Phys.:Condens. Matter 21 395502 (2009);
         "P. Giannozzi et al., J. Phys.:Condens. Matter 29 465901 (2017);
          URL http://www.quantum-espresso.org", 
     in publications or presentations arising from this work. More details at
     http://www.quantum-espresso.org/quote

     Parallel version (MPI), running on     6 processors

     MPI processes distributed on     1 nodes
     K-points division:     npool     =       3
     R & G space division:  proc/nbgrp/npool/nimage =       2
     Waiting for input...
     Reading input from standard input

     Current dimensions of program PWSCF are:
     Max number of different atomic species (ntypx) = 10
     Max number of k-points (npk) =  40000
     Max angular momentum in pseudopotentials (lmaxx) =  3

     Subspace diagonalization in iterative solution of the eigenvalue problem:
     a serial algorithm will be used

     Message from routine setup:
     using ibrav=0 with symmetry is DISCOURAGED, use correct ibrav instead

     Parallelization info
     --------------------
     sticks:   dense  smooth     PW     G-vecs:    dense   smooth      PW
     Min         814     320     99               101318    25577    4247
     Max         815     321    100               101325    25582    4248
     Sum        1629     641    199               202643    51159    8495



     bravais-lattice index     =            0
     lattice parameter (alat)  =       8.6086  a.u.
     unit-cell volume          =    2308.2721 (a.u.)^3
     number of atoms/cell      =            4
     number of atomic types    =            2
     number of electrons       =        40.00
     number of Kohn-Sham states=           30
     kinetic-energy cutoff     =      30.0000  Ry
     charge density cutoff     =     300.0000  Ry
     scf convergence threshold =      1.0E-08
     mixing beta               =       0.7000
     number of iterations used =            8  plain     mixing
     Exchange-correlation= SLA  PW   PBE  PBE
                           (   1   4   3   4   0   0   0)

     celldm(1)=   8.608647  celldm(2)=   0.000000  celldm(3)=   0.000000
     celldm(4)=   0.000000  celldm(5)=   0.000000  celldm(6)=   0.000000

     crystal axes: (cart. coord. in units of alat)
               a(1) = (   1.000000   0.000000   0.000000 )  
               a(2) = (   0.000000   0.915684   0.000000 )  
               a(3) = (   0.000000   0.000000   3.951268 )  

     reciprocal axes: (cart. coord. in units 2 pi/alat)
               b(1) = (  1.000000  0.000000  0.000000 )  
               b(2) = (  0.000000  1.092079  0.000000 )  
               b(3) = (  0.000000  0.000000  0.253083 )  


     PseudoPot. # 1 for Sn read from file:
     ../pseudo/Sn_pbe_v1.uspp.F.UPF
     MD5 check sum: 4cf58ce39ec5d5d420df3dd08604eb00
     Pseudo is Ultrasoft + core correction, Zval = 14.0
     Generated by new atomic code, or converted to UPF format
     Using radial grid of  891 points,  6 beta functions with: 
                l(1) =   0
                l(2) =   0
                l(3) =   1
                l(4) =   1
                l(5) =   2
                l(6) =   2
     Q(r) pseudized with  6 coefficients,  rinner =    1.200   1.200   1.200
                                                       1.200   1.200

     PseudoPot. # 2 for Se read from file:
     ../pseudo/Se_pbe_v1.uspp.F.UPF
     MD5 check sum: 1b3568f3a8ae88f9a2a0ad0698632c85
     Pseudo is Ultrasoft + core correction, Zval =  6.0
     Generated by new atomic code, or converted to UPF format
     Using radial grid of  877 points,  6 beta functions with: 
                l(1) =   0
                l(2) =   0
                l(3) =   1
                l(4) =   1
                l(5) =   2
                l(6) =   2
     Q(r) pseudized with  8 coefficients,  rinner =    1.300   1.300   1.300
                                                       1.300   1.300

     atomic species   valence    mass     pseudopotential
        Sn            14.00   118.71000     Sn( 1.00)
        Se             6.00    78.97100     Se( 1.00)

      4 Sym. Ops. (no inversion) found ( 3 have fractional translation)


                                    s                        frac. trans.

      isym =  1     identity                                     

 cryst.   s( 1) = (     1          0          0      )
                  (     0          1          0      )
                  (     0          0          1      )

 cart.    s( 1) = (  1.0000000  0.0000000  0.0000000 )
                  (  0.0000000  1.0000000  0.0000000 )
                  (  0.0000000  0.0000000  1.0000000 )


      isym =  2     180 deg rotation - cart. axis [1,0,0]        

 cryst.   s( 2) = (     1          0          0      )    f =( -0.5000000 )
                  (     0         -1          0      )       (  0.0000000 )
                  (     0          0         -1      )       (  0.0000000 )

 cart.    s( 2) = (  1.0000000  0.0000000  0.0000000 )    f =( -0.5000000 )
                  (  0.0000000 -1.0000000  0.0000000 )       (  0.0000000 )
                  (  0.0000000  0.0000000 -1.0000000 )       (  0.0000000 )


      isym =  3     inv. 180 deg rotation - cart. axis [0,0,1]   

 cryst.   s( 3) = (     1          0          0      )    f =( -0.5000000 )
                  (     0          1          0      )       (  0.5000000 )
                  (     0          0         -1      )       (  0.0000000 )

 cart.    s( 3) = (  1.0000000  0.0000000  0.0000000 )    f =( -0.5000000 )
                  (  0.0000000  1.0000000  0.0000000 )       (  0.4578422 )
                  (  0.0000000  0.0000000 -1.0000000 )       (  0.0000000 )


      isym =  4     inv. 180 deg rotation - cart. axis [0,1,0]   

 cryst.   s( 4) = (     1          0          0      )    f =(  0.0000000 )
                  (     0         -1          0      )       (  0.5000000 )
                  (     0          0          1      )       (  0.0000000 )

 cart.    s( 4) = (  1.0000000  0.0000000  0.0000000 )    f =(  0.0000000 )
                  (  0.0000000 -1.0000000  0.0000000 )       (  0.4578422 )
                  (  0.0000000  0.0000000  1.0000000 )       (  0.0000000 )


   Cartesian axes

     site n.     atom                  positions (alat units)
         1           Sn  tau(   1) = (   0.0995059   0.6867633   1.6704079  )
         2           Se  tau(   2) = (   0.5295331   0.2289211   1.6846100  )
         3           Se  tau(   3) = (   0.0295331   0.6867633   2.2666577  )
         4           Sn  tau(   4) = (   0.5995059   0.2289211   2.2808597  )

   Crystallographic axes

     site n.     atom                  positions (cryst. coord.)
         1           Sn  tau(   1) = (  0.0995059  0.7500000  0.4227524  )
         2           Se  tau(   2) = (  0.5295331  0.2500000  0.4263467  )
         3           Se  tau(   3) = (  0.0295331  0.7500000  0.5736533  )
         4           Sn  tau(   4) = (  0.5995059  0.2500000  0.5772476  )

     number of k points=    25
                       cart. coord. in units 2pi/alat
        k(    1) = (   0.0000000   0.0000000   0.0000000), wk =   0.0312500
        k(    2) = (   0.0000000   0.1365099   0.0000000), wk =   0.0625000
        k(    3) = (   0.0000000   0.2730198   0.0000000), wk =   0.0625000
        k(    4) = (   0.0000000   0.4095298   0.0000000), wk =   0.0625000
        k(    5) = (   0.0000000  -0.5460397   0.0000000), wk =   0.0312500
        k(    6) = (   0.1250000   0.0000000   0.0000000), wk =   0.0625000
        k(    7) = (   0.1250000   0.1365099   0.0000000), wk =   0.1250000
        k(    8) = (   0.1250000   0.2730198   0.0000000), wk =   0.1250000
        k(    9) = (   0.1250000   0.4095298   0.0000000), wk =   0.1250000
        k(   10) = (   0.1250000  -0.5460397   0.0000000), wk =   0.0625000
        k(   11) = (   0.2500000   0.0000000   0.0000000), wk =   0.0625000
        k(   12) = (   0.2500000   0.1365099   0.0000000), wk =   0.1250000
        k(   13) = (   0.2500000   0.2730198   0.0000000), wk =   0.1250000
        k(   14) = (   0.2500000   0.4095298   0.0000000), wk =   0.1250000
        k(   15) = (   0.2500000  -0.5460397   0.0000000), wk =   0.0625000
        k(   16) = (   0.3750000   0.0000000   0.0000000), wk =   0.0625000
        k(   17) = (   0.3750000   0.1365099   0.0000000), wk =   0.1250000
        k(   18) = (   0.3750000   0.2730198   0.0000000), wk =   0.1250000
        k(   19) = (   0.3750000   0.4095298   0.0000000), wk =   0.1250000
        k(   20) = (   0.3750000  -0.5460397   0.0000000), wk =   0.0625000
        k(   21) = (  -0.5000000   0.0000000   0.0000000), wk =   0.0312500
        k(   22) = (  -0.5000000   0.1365099   0.0000000), wk =   0.0625000
        k(   23) = (  -0.5000000   0.2730198   0.0000000), wk =   0.0625000
        k(   24) = (  -0.5000000   0.4095298   0.0000000), wk =   0.0625000
        k(   25) = (  -0.5000000  -0.5460397   0.0000000), wk =   0.0312500

                       cryst. coord.
        k(    1) = (   0.0000000   0.0000000   0.0000000), wk =   0.0312500
        k(    2) = (   0.0000000   0.1250000   0.0000000), wk =   0.0625000
        k(    3) = (   0.0000000   0.2500000   0.0000000), wk =   0.0625000
        k(    4) = (   0.0000000   0.3750000   0.0000000), wk =   0.0625000
        k(    5) = (   0.0000000  -0.5000000   0.0000000), wk =   0.0312500
        k(    6) = (   0.1250000   0.0000000   0.0000000), wk =   0.0625000
        k(    7) = (   0.1250000   0.1250000   0.0000000), wk =   0.1250000
        k(    8) = (   0.1250000   0.2500000   0.0000000), wk =   0.1250000
        k(    9) = (   0.1250000   0.3750000   0.0000000), wk =   0.1250000
        k(   10) = (   0.1250000  -0.5000000   0.0000000), wk =   0.0625000
        k(   11) = (   0.2500000   0.0000000   0.0000000), wk =   0.0625000
        k(   12) = (   0.2500000   0.1250000   0.0000000), wk =   0.1250000
        k(   13) = (   0.2500000   0.2500000   0.0000000), wk =   0.1250000
        k(   14) = (   0.2500000   0.3750000   0.0000000), wk =   0.1250000
        k(   15) = (   0.2500000  -0.5000000   0.0000000), wk =   0.0625000
        k(   16) = (   0.3750000   0.0000000   0.0000000), wk =   0.0625000
        k(   17) = (   0.3750000   0.1250000   0.0000000), wk =   0.1250000
        k(   18) = (   0.3750000   0.2500000   0.0000000), wk =   0.1250000
        k(   19) = (   0.3750000   0.3750000   0.0000000), wk =   0.1250000
        k(   20) = (   0.3750000  -0.5000000   0.0000000), wk =   0.0625000
        k(   21) = (  -0.5000000   0.0000000   0.0000000), wk =   0.0312500
        k(   22) = (  -0.5000000   0.1250000   0.0000000), wk =   0.0625000
        k(   23) = (  -0.5000000   0.2500000   0.0000000), wk =   0.0625000
        k(   24) = (  -0.5000000   0.3750000   0.0000000), wk =   0.0625000
        k(   25) = (  -0.5000000  -0.5000000   0.0000000), wk =   0.0312500

     Dense  grid:   202643 G-vectors     FFT dimensions: (  48,  48, 192)

     Smooth grid:    51159 G-vectors     FFT dimensions: (  32,  30, 120)

     Dynamical RAM for                 wfc:       1.47 MB

     Dynamical RAM for     wfc (w. buffer):      14.66 MB

     Dynamical RAM for           str. fact:       3.09 MB

     Dynamical RAM for           local pot:       0.00 MB

     Dynamical RAM for          nlocal pot:       3.52 MB

     Dynamical RAM for                qrad:       2.78 MB

     Dynamical RAM for          rho,v,vnew:       9.70 MB

     Dynamical RAM for               rhoin:       3.23 MB

     Dynamical RAM for            rho*nmix:      24.74 MB

     Dynamical RAM for           G-vectors:       5.99 MB

     Dynamical RAM for          h,s,v(r/c):       0.16 MB

     Dynamical RAM for          <psi|beta>:       0.03 MB

     Dynamical RAM for                 psi:       2.93 MB

     Dynamical RAM for                hpsi:       2.93 MB

     Dynamical RAM for                spsi:       2.93 MB

     Dynamical RAM for      wfcinit/wfcrot:       2.95 MB

     Dynamical RAM for           addusdens:      97.92 MB

     Dynamical RAM for          addusforce:      98.70 MB

     Estimated static dynamical RAM per process >      80.79 MB

     Estimated max dynamical RAM per process >     179.49 MB

     Estimated total dynamical RAM >       1.05 GB

     Initial potential from superposition of free atoms

     starting charge   37.99977, renormalised to   40.00000

     negative rho (up, down):  1.726E-03 0.000E+00
     Starting wfcs are   26 randomized atomic wfcs +    4 random wfcs

     total cpu time spent up to now is        6.1 secs

     Self-consistent Calculation

     iteration #  1     ecut=    30.00 Ry     beta= 0.70
     Davidson diagonalization with overlap
     ethr =  1.00E-02,  avg # of iterations =  8.0

     negative rho (up, down):  1.120E-03 0.000E+00

     total cpu time spent up to now is       21.3 secs

     total energy              =    -413.22012333 Ry
     estimated scf accuracy    <       1.36731604 Ry

     iteration #  2     ecut=    30.00 Ry     beta= 0.70
     Davidson diagonalization with overlap
     ethr =  3.42E-03,  avg # of iterations =  2.0

     negative rho (up, down):  1.255E-03 0.000E+00

     total cpu time spent up to now is       31.1 secs

     total energy              =    -413.60972989 Ry
     estimated scf accuracy    <       0.70809546 Ry

     iteration #  3     ecut=    30.00 Ry     beta= 0.70
     Davidson diagonalization with overlap
     ethr =  1.77E-03,  avg # of iterations =  2.0

     negative rho (up, down):  1.270E-03 0.000E+00

     total cpu time spent up to now is       40.5 secs

     total energy              =    -413.79033467 Ry
     estimated scf accuracy    <       0.04086542 Ry

     iteration #  4     ecut=    30.00 Ry     beta= 0.70
     Davidson diagonalization with overlap
     ethr =  1.02E-04,  avg # of iterations =  4.4

     negative rho (up, down):  1.313E-03 0.000E+00

     total cpu time spent up to now is       53.2 secs

     total energy              =    -413.79691152 Ry
     estimated scf accuracy    <       0.00077064 Ry

     iteration #  5     ecut=    30.00 Ry     beta= 0.70
     Davidson diagonalization with overlap
     ethr =  1.93E-06,  avg # of iterations =  7.3

     negative rho (up, down):  1.312E-03 0.000E+00

     total cpu time spent up to now is       70.9 secs

     total energy              =    -413.79706373 Ry
     estimated scf accuracy    <       0.00013064 Ry

     iteration #  6     ecut=    30.00 Ry     beta= 0.70
     Davidson diagonalization with overlap
     ethr =  3.27E-07,  avg # of iterations =  3.9

     negative rho (up, down):  1.310E-03 0.000E+00

     total cpu time spent up to now is       81.9 secs

     total energy              =    -413.79709264 Ry
     estimated scf accuracy    <       0.00002356 Ry

     iteration #  7     ecut=    30.00 Ry     beta= 0.70
     Davidson diagonalization with overlap
     ethr =  5.89E-08,  avg # of iterations =  2.0

     negative rho (up, down):  1.309E-03 0.000E+00

     total cpu time spent up to now is       91.4 secs

     total energy              =    -413.79709430 Ry
     estimated scf accuracy    <       0.00000218 Ry

     iteration #  8     ecut=    30.00 Ry     beta= 0.70
     Davidson diagonalization with overlap
     ethr =  5.45E-09,  avg # of iterations =  2.1

     negative rho (up, down):  1.309E-03 0.000E+00

     total cpu time spent up to now is      102.4 secs

     total energy              =    -413.79709490 Ry
     estimated scf accuracy    <       0.00000015 Ry

     iteration #  9     ecut=    30.00 Ry     beta= 0.70
     Davidson diagonalization with overlap
     ethr =  3.78E-10,  avg # of iterations =  2.0

     negative rho (up, down):  1.309E-03 0.000E+00

     total cpu time spent up to now is      112.5 secs

     End of self-consistent calculation

          k = 0.0000 0.0000 0.0000 (  6409 PWs)   bands (ev):

   -21.8430 -21.8322 -21.8303 -21.8249 -21.8189 -21.7981 -21.7947 -21.7884
   -21.7851 -21.7760 -13.8804 -12.8792  -6.9029  -5.8114  -4.0716  -3.7782
    -3.3171  -2.4922  -2.1986  -1.1348   0.9263   2.6127   3.0459   3.2015
     3.6232   3.9293   3.9735   4.6076   4.7318   5.5090

     occupation numbers 
     1.0000   1.0000   1.0000   1.0000   1.0000   1.0000   1.0000   1.0000
     1.0000   1.0000   1.0000   1.0000   1.0000   1.0000   1.0000   1.0000
     1.0000   1.0000   1.0000   1.0000   0.0000   0.0000   0.0000   0.0000
     0.0000   0.0000   0.0000   0.0000   0.0000   0.0000

          k = 0.0000 0.1365 0.0000 (  6391 PWs)   bands (ev):

   -21.8407 -21.8317 -21.8302 -21.8265 -21.8175 -21.7985 -21.7950 -21.7875
   -21.7863 -21.7760 -13.8070 -12.8594  -7.0642  -6.0411  -4.0236  -3.6910
    -3.2604  -2.4776  -1.9755  -1.1790   0.9900   2.6323   2.8918   2.9801
     3.2536   4.0654   4.0888   4.2306   4.6956   5.0661

     occupation numbers 
     1.0000   1.0000   1.0000   1.0000   1.0000   1.0000   1.0000   1.0000
     1.0000   1.0000   1.0000   1.0000   1.0000   1.0000   1.0000   1.0000
     1.0000   1.0000   1.0000   1.0000   0.0000   0.0000   0.0000   0.0000
     0.0000   0.0000   0.0000   0.0000   0.0000   0.0000

          k = 0.0000 0.2730 0.0000 (  6420 PWs)   bands (ev):

   -21.8370 -21.8351 -21.8280 -21.8257 -21.8145 -21.8000 -21.7956 -21.7891
   -21.7849 -21.7761 -13.6023 -12.8297  -7.4211  -6.6090  -3.8079  -3.4411
    -3.0260  -2.3660  -1.5005  -1.3502   1.2179   1.4017   2.1488   2.5908
     3.2002   3.4837   3.9828   4.4370   4.8715   5.4649

     occupation numbers 
     1.0000   1.0000   1.0000   1.0000   1.0000   1.0000   1.0000   1.0000
     1.0000   1.0000   1.0000   1.0000   1.0000   1.0000   1.0000   1.0000
     1.0000   1.0000   1.0000   1.0000   0.0000   0.0000   0.0000   0.0000
     0.0000   0.0000   0.0000   0.0000   0.0000   0.0000

          k = 0.0000 0.4095 0.0000 (  6424 PWs)   bands (ev):

   -21.8383 -21.8380 -21.8244 -21.8218 -21.8107 -21.8028 -21.7955 -21.7921
   -21.7815 -21.7767 -13.3166 -12.8678  -7.6875  -7.2258  -3.4202  -3.0741
    -2.7130  -2.3054  -1.5183  -1.0032   0.4199   1.4469   1.4669   1.7462
     2.1363   3.0926   4.3589   4.9777   5.3945   5.9495

     occupation numbers 
     1.0000   1.0000   1.0000   1.0000   1.0000   1.0000   1.0000   1.0000
     1.0000   1.0000   1.0000   1.0000   1.0000   1.0000   1.0000   1.0000
     1.0000   1.0000   1.0000   1.0000   0.0000   0.0000   0.0000   0.0000
     0.0000   0.0000   0.0000   0.0000   0.0000   0.0000

          k = 0.0000-0.5460 0.0000 (  6446 PWs)   bands (ev):

   -21.8394 -21.8394 -21.8213 -21.8213 -21.8066 -21.8066 -21.7943 -21.7943
   -21.7785 -21.7785 -13.0391 -13.0391  -7.6335  -7.6335  -3.0076  -3.0076
    -2.5027  -2.5027  -1.2013  -1.2013   0.5751   0.5751   1.4379   1.4379
     2.3544   2.3544   5.1464   5.1464   5.7671   5.7671

     occupation numbers 
     1.0000   1.0000   1.0000   1.0000   1.0000   1.0000   1.0000   1.0000
     1.0000   1.0000   1.0000   1.0000   1.0000   1.0000   1.0000   1.0000
     1.0000   1.0000   1.0000   1.0000   0.0000   0.0000   0.0000   0.0000
     0.0000   0.0000   0.0000   0.0000   0.0000   0.0000

          k = 0.1250 0.0000 0.0000 (  6407 PWs)   bands (ev):

   -21.8424 -21.8323 -21.8306 -21.8257 -21.8171 -21.7981 -21.7942 -21.7881
   -21.7854 -21.7767 -13.8237 -12.8830  -7.1219  -6.1124  -4.0153  -3.4928
    -3.2251  -2.1490  -2.1123  -1.2225   0.9808   2.6225   2.6996   3.1945
     3.2001   3.9766   4.0635   4.2822   4.6197   5.2805

     occupation numbers 
     1.0000   1.0000   1.0000   1.0000   1.0000   1.0000   1.0000   1.0000
     1.0000   1.0000   1.0000   1.0000   1.0000   1.0000   1.0000   1.0000
     1.0000   1.0000   1.0000   1.0000   0.0000   0.0000   0.0000   0.0000
     0.0000   0.0000   0.0000   0.0000   0.0000   0.0000

          k = 0.1250 0.1365 0.0000 (  6414 PWs)   bands (ev):

   -21.8403 -21.8324 -21.8300 -21.8272 -21.8158 -21.7985 -21.7947 -21.7871
   -21.7866 -21.7766 -13.7517 -12.8619  -7.2017  -6.2552  -3.9532  -3.8928
    -2.7832  -2.6317  -1.5567  -1.2250   1.0564   1.8881   2.7265   3.2452
     3.4203   3.7107   3.9761   4.1865   4.6871   5.5955

     occupation numbers 
     1.0000   1.0000   1.0000   1.0000   1.0000   1.0000   1.0000   1.0000
     1.0000   1.0000   1.0000   1.0000   1.0000   1.0000   1.0000   1.0000
     1.0000   1.0000   1.0000   1.0000   0.0000   0.0000   0.0000   0.0000
     0.0000   0.0000   0.0000   0.0000   0.0000   0.0000

          k = 0.1250 0.2730 0.0000 (  6411 PWs)   bands (ev):

   -21.8375 -21.8359 -21.8282 -21.8255 -21.8130 -21.8000 -21.7955 -21.7893
   -21.7845 -21.7764 -13.5517 -12.8275  -7.4210  -6.6695  -4.0678  -3.7559
    -2.7735  -2.4140  -1.3284  -1.2407   1.1100   1.2543   1.8266   2.8632
     3.5266   3.8483   3.9891   4.5273   4.9598   5.5455

     occupation numbers 
     1.0000   1.0000   1.0000   1.0000   1.0000   1.0000   1.0000   1.0000
     1.0000   1.0000   1.0000   1.0000   1.0000   1.0000   1.0000   1.0000
     1.0000   1.0000   1.0000   1.0000   0.0000   0.0000   0.0000   0.0000
     0.0000   0.0000   0.0000   0.0000   0.0000   0.0000

          k = 0.1250 0.4095 0.0000 (  6433 PWs)   bands (ev):

   -21.8394 -21.8393 -21.8241 -21.8216 -21.8096 -21.8027 -21.7954 -21.7921
   -21.7812 -21.7769 -13.2754 -12.8554  -7.6158  -7.1893  -3.8165  -3.4191
    -2.7340  -2.4407  -1.5619  -1.2194   0.8289   1.0119   1.8401   2.1539
     3.1551   3.2008   4.4644   4.9870   5.4788   5.6320

     occupation numbers 
     1.0000   1.0000   1.0000   1.0000   1.0000   1.0000   1.0000   1.0000
     1.0000   1.0000   1.0000   1.0000   1.0000   1.0000   1.0000   1.0000
     1.0000   1.0000   1.0000   1.0000   0.0000   0.0000   0.0000   0.0000
     0.0000   0.0000   0.0000   0.0000   0.0000   0.0000

          k = 0.1250-0.5460 0.0000 (  6436 PWs)   bands (ev):

   -21.8407 -21.8407 -21.8210 -21.8210 -21.8060 -21.8060 -21.7942 -21.7942
   -21.7784 -21.7784 -13.0120 -13.0120  -7.5563  -7.5563  -3.3351  -3.3351
    -2.7740  -2.7740  -1.4198  -1.4198   0.7754   0.7754   2.3008   2.3008
     2.5287   2.5287   5.1656   5.1656   5.7742   5.7742

     occupation numbers 
     1.0000   1.0000   1.0000   1.0000   1.0000   1.0000   1.0000   1.0000
     1.0000   1.0000   1.0000   1.0000   1.0000   1.0000   1.0000   1.0000
     1.0000   1.0000   1.0000   1.0000   0.0000   0.0000   0.0000   0.0000
     0.0000   0.0000   0.0000   0.0000   0.0000   0.0000

          k = 0.2500 0.0000 0.0000 (  6387 PWs)   bands (ev):

   -21.8407 -21.8326 -21.8314 -21.8276 -21.8126 -21.7983 -21.7930 -21.7872
   -21.7863 -21.7784 -13.6641 -12.9128  -7.5226  -6.7375  -3.7959  -2.9642
    -2.9084  -2.0432  -1.4457  -1.3077   1.1982   1.6148   2.4335   2.5756
     3.3718   3.3966   3.8481   4.3408   4.7690   5.2782

     occupation numbers 
     1.0000   1.0000   1.0000   1.0000   1.0000   1.0000   1.0000   1.0000
     1.0000   1.0000   1.0000   1.0000   1.0000   1.0000   1.0000   1.0000
     1.0000   1.0000   1.0000   1.0000   0.0000   0.0000   0.0000   0.0000
     0.0000   0.0000   0.0000   0.0000   0.0000   0.0000

          k = 0.2500 0.1365 0.0000 (  6396 PWs)   bands (ev):

   -21.8391 -21.8337 -21.8300 -21.8290 -21.8115 -21.7987 -21.7938 -21.7875
   -21.7860 -21.7780 -13.5967 -12.8871  -7.4895  -6.7541  -3.8615  -3.7322
    -2.6525  -2.2897  -1.2259  -1.1125   1.2670   1.3032   1.9491   2.9746
     3.4957   3.6825   3.9084   4.4578   4.8896   5.6496

     occupation numbers 
     1.0000   1.0000   1.0000   1.0000   1.0000   1.0000   1.0000   1.0000
     1.0000   1.0000   1.0000   1.0000   1.0000   1.0000   1.0000   1.0000
     1.0000   1.0000   1.0000   1.0000   0.0000   0.0000   0.0000   0.0000
     0.0000   0.0000   0.0000   0.0000   0.0000   0.0000

          k = 0.2500 0.2730 0.0000 (  6412 PWs)   bands (ev):

   -21.8388 -21.8379 -21.8282 -21.8254 -21.8093 -21.8001 -21.7949 -21.7900
   -21.7834 -21.7773 -13.4119 -12.8368  -7.4381  -6.8617  -4.5114  -3.6211
    -3.1786  -2.2371  -1.7467  -0.9784   1.0135   1.7262   1.7748   3.2009
     3.6638   4.1912   4.3241   4.7259   5.2076   5.2350

     occupation numbers 
     1.0000   1.0000   1.0000   1.0000   1.0000   1.0000   1.0000   1.0000
     1.0000   1.0000   1.0000   1.0000   1.0000   1.0000   1.0000   1.0000
     1.0000   1.0000   1.0000   1.0000   0.0000   0.0000   0.0000   0.0000
     0.0000   0.0000   0.0000   0.0000   0.0000   0.0000

          k = 0.2500 0.4095 0.0000 (  6423 PWs)   bands (ev):

   -21.8422 -21.8421 -21.8235 -21.8213 -21.8069 -21.8023 -21.7950 -21.7922
   -21.7805 -21.7772 -13.1649 -12.8331  -7.4255  -7.1076  -4.5838  -3.5320
    -3.4091  -2.5535  -2.3077  -1.4271   1.2065   2.2357   2.2892   2.8692
     3.6192   4.3788   4.7259   4.7605   5.5775   5.6179

     occupation numbers 
     1.0000   1.0000   1.0000   1.0000   1.0000   1.0000   1.0000   1.0000
     1.0000   1.0000   1.0000   1.0000   1.0000   1.0000   1.0000   1.0000
     1.0000   1.0000   1.0000   1.0000   0.0000   0.0000   0.0000   0.0000
     0.0000   0.0000   0.0000   0.0000   0.0000   0.0000

          k = 0.2500-0.5460 0.0000 (  6440 PWs)   bands (ev):

   -21.8438 -21.8438 -21.8205 -21.8205 -21.8047 -21.8047 -21.7939 -21.7939
   -21.7782 -21.7782 -12.9446 -12.9446  -7.3434  -7.3434  -4.1177  -4.1177
    -3.0714  -3.0714  -2.0206  -2.0206   1.8333   1.8333   2.7495   2.7495
     3.8133   3.8133   4.9421   4.9421   5.9071   5.9071

     occupation numbers 
     1.0000   1.0000   1.0000   1.0000   1.0000   1.0000   1.0000   1.0000
     1.0000   1.0000   1.0000   1.0000   1.0000   1.0000   1.0000   1.0000
     1.0000   1.0000   1.0000   1.0000   0.0000   0.0000   0.0000   0.0000
     0.0000   0.0000   0.0000   0.0000   0.0000   0.0000

          k = 0.3750 0.0000 0.0000 (  6397 PWs)   bands (ev):

   -21.8383 -21.8338 -21.8319 -21.8299 -21.8072 -21.7996 -21.7913 -21.7877
   -21.7856 -21.7808 -13.4355 -13.0101  -7.7688  -7.3316  -3.4224  -2.6248
    -2.5879  -2.0164  -1.4037  -0.5358   0.7218   1.6265   1.8589   1.9171
     2.5010   2.9547   4.1697   4.8124   5.2226   5.7513

     occupation numbers 
     1.0000   1.0000   1.0000   1.0000   1.0000   1.0000   1.0000   1.0000
     1.0000   1.0000   1.0000   1.0000   1.0000   1.0000   1.0000   1.0000
     1.0000   1.0000   1.0000   1.0000   0.0000   0.0000   0.0000   0.0000
     0.0000   0.0000   0.0000   0.0000   0.0000   0.0000

          k = 0.3750 0.1365 0.0000 (  6386 PWs)   bands (ev):

   -21.8375 -21.8351 -21.8306 -21.8305 -21.8065 -21.7998 -21.7924 -21.7889
   -21.7843 -21.7800 -13.3764 -12.9753  -7.6819  -7.2731  -3.5408  -3.3764
    -2.6725  -2.4212  -1.0848  -0.9551   1.1532   1.3850   1.8237   2.3951
     3.1572   3.4139   4.3000   4.8841   5.3335   5.6656

     occupation numbers 
     1.0000   1.0000   1.0000   1.0000   1.0000   1.0000   1.0000   1.0000
     1.0000   1.0000   1.0000   1.0000   1.0000   1.0000   1.0000   1.0000
     1.0000   1.0000   1.0000   1.0000   0.0000   0.0000   0.0000   0.0000
     0.0000   0.0000   0.0000   0.0000   0.0000   0.0000

          k = 0.3750 0.2730 0.0000 (  6396 PWs)   bands (ev):

   -21.8403 -21.8399 -21.8275 -21.8257 -21.8053 -21.8008 -21.7938 -21.7909
   -21.7819 -21.7786 -13.2190 -12.8953  -7.4539  -7.1400  -4.4914  -3.6024
    -3.3052  -2.5199  -2.1054  -1.3292   1.3828   2.3499   2.6514   2.8506
     3.6836   4.4190   4.6727   4.7792   5.5224   5.5677

     occupation numbers 
     1.0000   1.0000   1.0000   1.0000   1.0000   1.0000   1.0000   1.0000
     1.0000   1.0000   1.0000   1.0000   1.0000   1.0000   1.0000   1.0000
     1.0000   1.0000   1.0000   1.0000   0.0000   0.0000   0.0000   0.0000
     0.0000   0.0000   0.0000   0.0000   0.0000   0.0000

          k = 0.3750 0.4095 0.0000 (  6391 PWs)   bands (ev):

   -21.8449 -21.8448 -21.8226 -21.8213 -21.8044 -21.8023 -21.7940 -21.7923
   -21.7795 -21.7777 -13.0228 -12.8370  -7.2041  -7.0489  -4.9469  -4.1617
    -3.6716  -2.9955  -2.4219  -1.8968   1.9696   2.7589   3.0559   3.6804
     4.2323   4.4215   4.9227   5.1180   5.6129   5.9568

     occupation numbers 
     1.0000   1.0000   1.0000   1.0000   1.0000   1.0000   1.0000   1.0000
     1.0000   1.0000   1.0000   1.0000   1.0000   1.0000   1.0000   1.0000
     1.0000   1.0000   1.0000   1.0000   0.0000   0.0000   0.0000   0.0000
     0.0000   0.0000   0.0000   0.0000   0.0000   0.0000

          k = 0.3750-0.5460 0.0000 (  6404 PWs)   bands (ev):

   -21.8468 -21.8468 -21.8202 -21.8202 -21.8035 -21.8035 -21.7932 -21.7932
   -21.7779 -21.7779 -12.8744 -12.8744  -7.0719  -7.0719  -4.7279  -4.7279
    -3.5972  -3.5972  -2.2053  -2.2053   2.4608   2.4608   3.5914   3.5914
     4.5074   4.5074   4.9842   4.9842   6.3739   6.3740

     occupation numbers 
     1.0000   1.0000   1.0000   1.0000   1.0000   1.0000   1.0000   1.0000
     1.0000   1.0000   1.0000   1.0000   1.0000   1.0000   1.0000   1.0000
     1.0000   1.0000   1.0000   1.0000   0.0000   0.0000   0.0000   0.0000
     0.0000   0.0000   0.0000   0.0000   0.0000   0.0000

          k =-0.5000 0.0000 0.0000 (  6388 PWs)   bands (ev):

   -21.8358 -21.8358 -21.8315 -21.8315 -21.8025 -21.8025 -21.7894 -21.7894
   -21.7833 -21.7833 -13.1955 -13.1955  -7.7068  -7.7068  -2.9645  -2.9645
    -2.2145  -2.2145  -0.7711  -0.7711   0.9724   0.9724   1.9459   1.9459
     2.2453   2.2453   4.8728   4.8728   5.5025   5.5026

     occupation numbers 
     1.0000   1.0000   1.0000   1.0000   1.0000   1.0000   1.0000   1.0000
     1.0000   1.0000   1.0000   1.0000   1.0000   1.0000   1.0000   1.0000
     1.0000   1.0000   1.0000   1.0000   0.0000   0.0000   0.0000   0.0000
     0.0000   0.0000   0.0000   0.0000   0.0000   0.0000

          k =-0.5000 0.1365 0.0000 (  6370 PWs)   bands (ev):

   -21.8362 -21.8362 -21.8310 -21.8310 -21.8023 -21.8023 -21.7906 -21.7906
   -21.7822 -21.7822 -13.1483 -13.1483  -7.6157  -7.6157  -3.1307  -3.1307
    -2.8049  -2.8049  -0.9655  -0.9655   1.1940   1.1940   2.3182   2.3182
     2.8561   2.8561   4.9659   4.9659   5.5561   5.5561

     occupation numbers 
     1.0000   1.0000   1.0000   1.0000   1.0000   1.0000   1.0000   1.0000
     1.0000   1.0000   1.0000   1.0000   1.0000   1.0000   1.0000   1.0000
     1.0000   1.0000   1.0000   1.0000   0.0000   0.0000   0.0000   0.0000
     0.0000   0.0000   0.0000   0.0000   0.0000   0.0000

          k =-0.5000 0.2730 0.0000 (  6398 PWs)   bands (ev):

   -21.8409 -21.8409 -21.8265 -21.8265 -21.8024 -21.8024 -21.7922 -21.7922
   -21.7803 -21.7803 -13.0288 -13.0288  -7.3685  -7.3685  -4.0981  -4.0981
    -2.9491  -2.9491  -1.8684  -1.8684   2.0461   2.0461   3.0500   3.0500
     3.9104   3.9104   4.9734   4.9734   5.6908   5.6908

     occupation numbers 
     1.0000   1.0000   1.0000   1.0000   1.0000   1.0000   1.0000   1.0000
     1.0000   1.0000   1.0000   1.0000   1.0000   1.0000   1.0000   1.0000
     1.0000   1.0000   1.0000   1.0000   0.0000   0.0000   0.0000   0.0000
     0.0000   0.0000   0.0000   0.0000   0.0000   0.0000

          k =-0.5000 0.4095 0.0000 (  6378 PWs)   bands (ev):

   -21.8460 -21.8460 -21.8219 -21.8219 -21.8028 -21.8028 -21.7929 -21.7929
   -21.7785 -21.7785 -12.9005 -12.9005  -7.0704  -7.0704  -4.7710  -4.7710
    -3.4809  -3.4809  -2.2119  -2.2119   2.4646   2.4646   3.8354   3.8354
     4.5917   4.5917   4.9036   4.9036   6.2304   6.2304

     occupation numbers 
     1.0000   1.0000   1.0000   1.0000   1.0000   1.0000   1.0000   1.0000
     1.0000   1.0000   1.0000   1.0000   1.0000   1.0000   1.0000   1.0000
     1.0000   1.0000   1.0000   1.0000   0.0000   0.0000   0.0000   0.0000
     0.0000   0.0000   0.0000   0.0000   0.0000   0.0000

          k =-0.5000-0.5460 0.0000 (  6348 PWs)   bands (ev):

   -21.8481 -21.8481 -21.8201 -21.8201 -21.8030 -21.8030 -21.7929 -21.7929
   -21.7778 -21.7778 -12.8444 -12.8444  -6.9295  -6.9295  -4.9615  -4.9615
    -3.8568  -3.8568  -2.2186  -2.2186   2.6025   2.6025   4.0891   4.0891
     4.3516   4.3516   5.4280   5.4281   6.6360   6.6360

     occupation numbers 
     1.0000   1.0000   1.0000   1.0000   1.0000   1.0000   1.0000   1.0000
     1.0000   1.0000   1.0000   1.0000   1.0000   1.0000   1.0000   1.0000
     1.0000   1.0000   1.0000   1.0000   0.0000   0.0000   0.0000   0.0000
     0.0000   0.0000   0.0000   0.0000   0.0000   0.0000

     highest occupied, lowest unoccupied level (ev):    -0.5358    0.4199

!    total energy              =    -413.79709494 Ry
     estimated scf accuracy    <          7.5E-10 Ry

     The total energy is the sum of the following terms:
     one-electron contribution =   -1003.68467593 Ry
     hartree contribution      =     514.54373476 Ry
     xc contribution           =    -154.41511578 Ry
     ewald contribution        =     229.75896202 Ry

     convergence has been achieved in   9 iterations

     negative rho (up, down):  1.309E-03 0.000E+00

     Forces acting on atoms (cartesian axes, Ry/au):

     atom    1 type  1   force =     0.00000063   -0.00000000    0.00006364
     atom    2 type  2   force =    -0.00000063   -0.00000000    0.00046235
     atom    3 type  2   force =    -0.00000063    0.00000000   -0.00046235
     atom    4 type  1   force =     0.00000063    0.00000000   -0.00006364
     The non-local contrib.  to forces
     atom    1 type  1   force =     0.24646919    0.00000000    0.44492832
     atom    2 type  2   force =    -0.07977053    0.00000000    0.19453939
     atom    3 type  2   force =    -0.07977053    0.00000000   -0.19453939
     atom    4 type  1   force =     0.24646919    0.00000000   -0.44492832
     The ionic contribution  to forces
     atom    1 type  1   force =    -1.27654528    0.00000000  -35.72723873
     atom    2 type  2   force =     1.27654528    0.00000000  -16.03040643
     atom    3 type  2   force =     1.27654528   -0.00000000   16.03040644
     atom    4 type  1   force =    -1.27654528   -0.00000000   35.72723873
     The local contribution  to forces
     atom    1 type  1   force =     1.03383018    0.00000000   35.29010007
     atom    2 type  2   force =    -1.20562011    0.00000000   15.85857808
     atom    3 type  2   force =    -1.20562011    0.00000000  -15.85857808
     atom    4 type  1   force =     1.03383018    0.00000000  -35.29010007
     The core correction contribution to forces
     atom    1 type  1   force =    -0.00370906   -0.00000000   -0.00769777
     atom    2 type  2   force =     0.00880440    0.00000000   -0.02225106
     atom    3 type  2   force =     0.00880440   -0.00000000    0.02225106
     atom    4 type  1   force =    -0.00370906    0.00000000    0.00769777
     The Hubbard contrib.    to forces
     atom    1 type  1   force =     0.00000000    0.00000000    0.00000000
     atom    2 type  2   force =     0.00000000    0.00000000    0.00000000
     atom    3 type  2   force =     0.00000000    0.00000000    0.00000000
     atom    4 type  1   force =     0.00000000    0.00000000    0.00000000
     The SCF correction term to forces
     atom    1 type  1   force =    -0.00007930    0.00000000   -0.00002825
     atom    2 type  2   force =     0.00000543    0.00000000    0.00000238
     atom    3 type  2   force =     0.00000543   -0.00000000   -0.00000238
     atom    4 type  1   force =    -0.00007930    0.00000000    0.00002825

     Total force =     0.000660     Total SCF correction =     0.000119
     SCF correction compared to forces is large: reduce conv_thr to get better values

     Writing output data file ./tmp/SnSe_monolayer.save/

     init_run     :      4.81s CPU      5.89s WALL (       1 calls)
     electrons    :     91.13s CPU    106.50s WALL (       1 calls)
     forces       :      5.30s CPU      5.97s WALL (       1 calls)

     Called by init_run:
     wfcinit      :      1.53s CPU      2.08s WALL (       1 calls)
     wfcinit:atom :      0.02s CPU      0.01s WALL (       9 calls)
     wfcinit:wfcr :      1.47s CPU      2.03s WALL (       9 calls)
     potinit      :      0.95s CPU      1.02s WALL (       1 calls)
     hinit0       :      1.47s CPU      1.50s WALL (       1 calls)

     Called by electrons:
     c_bands      :     67.35s CPU     79.03s WALL (       9 calls)
     sum_band     :     11.47s CPU     12.57s WALL (       9 calls)
     v_of_rho     :      2.57s CPU      3.01s WALL (      10 calls)
     v_h          :      0.22s CPU      0.25s WALL (      10 calls)
     v_xc         :      2.56s CPU      3.00s WALL (      11 calls)
     newd         :      9.96s CPU     12.56s WALL (      10 calls)
     mix_rho      :      0.43s CPU      0.43s WALL (       9 calls)

     Called by c_bands:
     init_us_2    :      0.49s CPU      0.43s WALL (     180 calls)
     cegterg      :     47.87s CPU     60.26s WALL (      81 calls)

     Called by sum_band:
     sum_band:wei :      0.01s CPU      0.01s WALL (       9 calls)
     sum_band:loo :      5.61s CPU      6.45s WALL (       9 calls)
     sum_band:buf :      0.04s CPU      0.04s WALL (      81 calls)
     sum_band:ini :      0.23s CPU      0.19s WALL (      81 calls)
     sum_band:cal :      2.36s CPU      3.65s WALL (      81 calls)
     sum_band:bec :      0.00s CPU      0.00s WALL (      81 calls)
     addusdens    :      4.35s CPU      4.68s WALL (       9 calls)
     addusd:skk   :      0.01s CPU      0.02s WALL (      18 calls)
     addusd:dgemm :      1.46s CPU      1.38s WALL (      18 calls)
     addusd:qvan2 :      2.43s CPU      2.22s WALL (      18 calls)

     Called by *egterg:
     cdiaghg      :      2.26s CPU      5.28s WALL (     367 calls)
     cegterg:over :     10.79s CPU     15.36s WALL (     286 calls)
     cegterg:upda :      1.28s CPU      1.88s WALL (     286 calls)
     cegterg:last :      1.99s CPU      2.02s WALL (     178 calls)
     h_psi        :     24.88s CPU     27.50s WALL (     376 calls)
     s_psi        :      1.58s CPU      1.52s WALL (     376 calls)
     g_psi        :      0.16s CPU      0.13s WALL (     286 calls)

     Called by h_psi:
     h_psi:calbec :      7.97s CPU     12.21s WALL (     376 calls)
     vloc_psi     :     15.23s CPU     13.75s WALL (     376 calls)
     add_vuspsi   :      1.59s CPU      1.46s WALL (     376 calls)

     General routines
     calbec       :     11.00s CPU     16.84s WALL (     493 calls)
     fft          :      2.36s CPU      2.56s WALL (     139 calls)
     ffts         :      0.11s CPU      0.10s WALL (      19 calls)
     fftw         :     15.42s CPU     13.80s WALL (   15252 calls)
     interpolate  :      0.22s CPU      0.23s WALL (      10 calls)

     Parallel routines
     fft_scatt_xy :      3.09s CPU      2.79s WALL (   15410 calls)
     fft_scatt_yz :      5.68s CPU      5.27s WALL (   15410 calls)

     PWSCF        :   1m41.51s CPU   1m58.69s WALL


   This run was terminated on:  23: 4: 7  26May2026            

=------------------------------------------------------------------------------=
   JOB DONE.
=------------------------------------------------------------------------------=
