
     Program PWSCF v.6.7MaX starts on 26May2026 at 23: 6:29 

     This program is part of the open-source Quantum ESPRESSO suite
     for quantum simulation of materials; please cite
         "P. Giannozzi et al., J. Phys.:Condens. Matter 21 395502 (2009);
         "P. Giannozzi et al., J. Phys.:Condens. Matter 29 465901 (2017);
          URL http://www.quantum-espresso.org", 
     in publications or presentations arising from this work. More details at
     http://www.quantum-espresso.org/quote

     Parallel version (MPI), running on     6 processors

     MPI processes distributed on     1 nodes
     K-points division:     npool     =       3
     R & G space division:  proc/nbgrp/npool/nimage =       2
     Waiting for input...
     Reading input from standard input

     Current dimensions of program PWSCF are:
     Max number of different atomic species (ntypx) = 10
     Max number of k-points (npk) =  40000
     Max angular momentum in pseudopotentials (lmaxx) =  3

     Subspace diagonalization in iterative solution of the eigenvalue problem:
     a serial algorithm will be used

     Message from routine setup:
     using ibrav=0 with symmetry is DISCOURAGED, use correct ibrav instead

     Parallelization info
     --------------------
     sticks:   dense  smooth     PW     G-vecs:    dense   smooth      PW
     Min         814     320     99               123800    31275    5200
     Max         815     321    100               123805    31286    5201
     Sum        1629     641    199               247605    62561   10401



     bravais-lattice index     =            0
     lattice parameter (alat)  =       8.6086  a.u.
     unit-cell volume          =    2821.2214 (a.u.)^3
     number of atoms/cell      =            4
     number of atomic types    =            2
     number of electrons       =        40.00
     number of Kohn-Sham states=           30
     kinetic-energy cutoff     =      30.0000  Ry
     charge density cutoff     =     300.0000  Ry
     scf convergence threshold =      1.0E-08
     mixing beta               =       0.7000
     number of iterations used =            8  plain     mixing
     Exchange-correlation= SLA  PW   PBE  PBE
                           (   1   4   3   4   0   0   0)

     celldm(1)=   8.608647  celldm(2)=   0.000000  celldm(3)=   0.000000
     celldm(4)=   0.000000  celldm(5)=   0.000000  celldm(6)=   0.000000

     crystal axes: (cart. coord. in units of alat)
               a(1) = (   1.000000   0.000000   0.000000 )  
               a(2) = (   0.000000   0.915684   0.000000 )  
               a(3) = (   0.000000   0.000000   4.829327 )  

     reciprocal axes: (cart. coord. in units 2 pi/alat)
               b(1) = (  1.000000  0.000000  0.000000 )  
               b(2) = (  0.000000  1.092079  0.000000 )  
               b(3) = (  0.000000  0.000000  0.207068 )  


     PseudoPot. # 1 for Sn read from file:
     ../pseudo/Sn_pbe_v1.uspp.F.UPF
     MD5 check sum: 4cf58ce39ec5d5d420df3dd08604eb00
     Pseudo is Ultrasoft + core correction, Zval = 14.0
     Generated by new atomic code, or converted to UPF format
     Using radial grid of  891 points,  6 beta functions with: 
                l(1) =   0
                l(2) =   0
                l(3) =   1
                l(4) =   1
                l(5) =   2
                l(6) =   2
     Q(r) pseudized with  6 coefficients,  rinner =    1.200   1.200   1.200
                                                       1.200   1.200

     PseudoPot. # 2 for Se read from file:
     ../pseudo/Se_pbe_v1.uspp.F.UPF
     MD5 check sum: 1b3568f3a8ae88f9a2a0ad0698632c85
     Pseudo is Ultrasoft + core correction, Zval =  6.0
     Generated by new atomic code, or converted to UPF format
     Using radial grid of  877 points,  6 beta functions with: 
                l(1) =   0
                l(2) =   0
                l(3) =   1
                l(4) =   1
                l(5) =   2
                l(6) =   2
     Q(r) pseudized with  8 coefficients,  rinner =    1.300   1.300   1.300
                                                       1.300   1.300

     atomic species   valence    mass     pseudopotential
        Sn            14.00   118.71000     Sn( 1.00)
        Se             6.00    78.97100     Se( 1.00)

      4 Sym. Ops. (no inversion) found ( 3 have fractional translation)


                                    s                        frac. trans.

      isym =  1     identity                                     

 cryst.   s( 1) = (     1          0          0      )
                  (     0          1          0      )
                  (     0          0          1      )

 cart.    s( 1) = (  1.0000000  0.0000000  0.0000000 )
                  (  0.0000000  1.0000000  0.0000000 )
                  (  0.0000000  0.0000000  1.0000000 )


      isym =  2     180 deg rotation - cart. axis [1,0,0]        

 cryst.   s( 2) = (     1          0          0      )    f =( -0.5000000 )
                  (     0         -1          0      )       (  0.0000000 )
                  (     0          0         -1      )       ( -0.0000000 )

 cart.    s( 2) = (  1.0000000  0.0000000  0.0000000 )    f =( -0.5000000 )
                  (  0.0000000 -1.0000000  0.0000000 )       (  0.0000000 )
                  (  0.0000000  0.0000000 -1.0000000 )       ( -0.0000000 )


      isym =  3     inv. 180 deg rotation - cart. axis [0,0,1]   

 cryst.   s( 3) = (     1          0          0      )    f =( -0.5000000 )
                  (     0          1          0      )       (  0.5000000 )
                  (     0          0         -1      )       ( -0.0000000 )

 cart.    s( 3) = (  1.0000000  0.0000000  0.0000000 )    f =( -0.5000000 )
                  (  0.0000000  1.0000000  0.0000000 )       (  0.4578422 )
                  (  0.0000000  0.0000000 -1.0000000 )       ( -0.0000000 )


      isym =  4     inv. 180 deg rotation - cart. axis [0,1,0]   

 cryst.   s( 4) = (     1          0          0      )    f =(  0.0000000 )
                  (     0         -1          0      )       (  0.5000000 )
                  (     0          0          1      )       (  0.0000000 )

 cart.    s( 4) = (  1.0000000  0.0000000  0.0000000 )    f =(  0.0000000 )
                  (  0.0000000 -1.0000000  0.0000000 )       (  0.4578422 )
                  (  0.0000000  0.0000000  1.0000000 )       (  0.0000000 )


   Cartesian axes

     site n.     atom                  positions (alat units)
         1           Sn  tau(   1) = (   0.0995059   0.6867633   2.1094377  )
         2           Se  tau(   2) = (   0.5295331   0.2289211   2.1236398  )
         3           Se  tau(   3) = (   0.0295331   0.6867633   2.7056874  )
         4           Sn  tau(   4) = (   0.5995059   0.2289211   2.7198895  )

   Crystallographic axes

     site n.     atom                  positions (cryst. coord.)
         1           Sn  tau(   1) = (  0.0995059  0.7500000  0.4367974  )
         2           Se  tau(   2) = (  0.5295331  0.2500000  0.4397382  )
         3           Se  tau(   3) = (  0.0295331  0.7500000  0.5602618  )
         4           Sn  tau(   4) = (  0.5995059  0.2500000  0.5632026  )

     number of k points=    25
                       cart. coord. in units 2pi/alat
        k(    1) = (   0.0000000   0.0000000   0.0000000), wk =   0.0312500
        k(    2) = (   0.0000000   0.1365099   0.0000000), wk =   0.0625000
        k(    3) = (   0.0000000   0.2730198   0.0000000), wk =   0.0625000
        k(    4) = (   0.0000000   0.4095298   0.0000000), wk =   0.0625000
        k(    5) = (   0.0000000  -0.5460397   0.0000000), wk =   0.0312500
        k(    6) = (   0.1250000   0.0000000   0.0000000), wk =   0.0625000
        k(    7) = (   0.1250000   0.1365099   0.0000000), wk =   0.1250000
        k(    8) = (   0.1250000   0.2730198   0.0000000), wk =   0.1250000
        k(    9) = (   0.1250000   0.4095298   0.0000000), wk =   0.1250000
        k(   10) = (   0.1250000  -0.5460397   0.0000000), wk =   0.0625000
        k(   11) = (   0.2500000   0.0000000   0.0000000), wk =   0.0625000
        k(   12) = (   0.2500000   0.1365099   0.0000000), wk =   0.1250000
        k(   13) = (   0.2500000   0.2730198   0.0000000), wk =   0.1250000
        k(   14) = (   0.2500000   0.4095298   0.0000000), wk =   0.1250000
        k(   15) = (   0.2500000  -0.5460397   0.0000000), wk =   0.0625000
        k(   16) = (   0.3750000   0.0000000   0.0000000), wk =   0.0625000
        k(   17) = (   0.3750000   0.1365099   0.0000000), wk =   0.1250000
        k(   18) = (   0.3750000   0.2730198   0.0000000), wk =   0.1250000
        k(   19) = (   0.3750000   0.4095298   0.0000000), wk =   0.1250000
        k(   20) = (   0.3750000  -0.5460397   0.0000000), wk =   0.0625000
        k(   21) = (  -0.5000000   0.0000000   0.0000000), wk =   0.0312500
        k(   22) = (  -0.5000000   0.1365099   0.0000000), wk =   0.0625000
        k(   23) = (  -0.5000000   0.2730198   0.0000000), wk =   0.0625000
        k(   24) = (  -0.5000000   0.4095298   0.0000000), wk =   0.0625000
        k(   25) = (  -0.5000000  -0.5460397   0.0000000), wk =   0.0312500

                       cryst. coord.
        k(    1) = (   0.0000000   0.0000000   0.0000000), wk =   0.0312500
        k(    2) = (   0.0000000   0.1250000   0.0000000), wk =   0.0625000
        k(    3) = (   0.0000000   0.2500000   0.0000000), wk =   0.0625000
        k(    4) = (   0.0000000   0.3750000   0.0000000), wk =   0.0625000
        k(    5) = (   0.0000000  -0.5000000   0.0000000), wk =   0.0312500
        k(    6) = (   0.1250000   0.0000000   0.0000000), wk =   0.0625000
        k(    7) = (   0.1250000   0.1250000   0.0000000), wk =   0.1250000
        k(    8) = (   0.1250000   0.2500000   0.0000000), wk =   0.1250000
        k(    9) = (   0.1250000   0.3750000   0.0000000), wk =   0.1250000
        k(   10) = (   0.1250000  -0.5000000   0.0000000), wk =   0.0625000
        k(   11) = (   0.2500000   0.0000000   0.0000000), wk =   0.0625000
        k(   12) = (   0.2500000   0.1250000   0.0000000), wk =   0.1250000
        k(   13) = (   0.2500000   0.2500000   0.0000000), wk =   0.1250000
        k(   14) = (   0.2500000   0.3750000   0.0000000), wk =   0.1250000
        k(   15) = (   0.2500000  -0.5000000   0.0000000), wk =   0.0625000
        k(   16) = (   0.3750000   0.0000000   0.0000000), wk =   0.0625000
        k(   17) = (   0.3750000   0.1250000   0.0000000), wk =   0.1250000
        k(   18) = (   0.3750000   0.2500000   0.0000000), wk =   0.1250000
        k(   19) = (   0.3750000   0.3750000   0.0000000), wk =   0.1250000
        k(   20) = (   0.3750000  -0.5000000   0.0000000), wk =   0.0625000
        k(   21) = (  -0.5000000   0.0000000   0.0000000), wk =   0.0312500
        k(   22) = (  -0.5000000   0.1250000   0.0000000), wk =   0.0625000
        k(   23) = (  -0.5000000   0.2500000   0.0000000), wk =   0.0625000
        k(   24) = (  -0.5000000   0.3750000   0.0000000), wk =   0.0625000
        k(   25) = (  -0.5000000  -0.5000000   0.0000000), wk =   0.0312500

     Dense  grid:   247605 G-vectors     FFT dimensions: (  48,  48, 240)

     Smooth grid:    62561 G-vectors     FFT dimensions: (  32,  30, 150)

     Dynamical RAM for                 wfc:       1.79 MB

     Dynamical RAM for     wfc (w. buffer):      17.92 MB

     Dynamical RAM for           str. fact:       3.78 MB

     Dynamical RAM for           local pot:       0.00 MB

     Dynamical RAM for          nlocal pot:       4.30 MB

     Dynamical RAM for                qrad:       2.78 MB

     Dynamical RAM for          rho,v,vnew:      12.00 MB

     Dynamical RAM for               rhoin:       4.00 MB

     Dynamical RAM for            rho*nmix:      30.23 MB

     Dynamical RAM for           G-vectors:       7.32 MB

     Dynamical RAM for          h,s,v(r/c):       0.16 MB

     Dynamical RAM for          <psi|beta>:       0.03 MB

     Dynamical RAM for                 psi:       3.58 MB

     Dynamical RAM for                hpsi:       3.58 MB

     Dynamical RAM for                spsi:       3.58 MB

     Dynamical RAM for      wfcinit/wfcrot:       3.60 MB

     Dynamical RAM for           addusdens:     119.64 MB

     Dynamical RAM for          addusforce:     120.60 MB

     Estimated static dynamical RAM per process >      98.53 MB

     Estimated max dynamical RAM per process >     219.13 MB

     Estimated total dynamical RAM >       1.28 GB

     Initial potential from superposition of free atoms

     starting charge   37.99977, renormalised to   40.00000

     negative rho (up, down):  2.279E-03 0.000E+00
     Starting wfcs are   26 randomized atomic wfcs +    4 random wfcs

     total cpu time spent up to now is        7.8 secs

     Self-consistent Calculation

     iteration #  1     ecut=    30.00 Ry     beta= 0.70
     Davidson diagonalization with overlap
     ethr =  1.00E-02,  avg # of iterations =  7.8

     negative rho (up, down):  1.575E-03 0.000E+00

     total cpu time spent up to now is       30.5 secs

     total energy              =    -413.22133971 Ry
     estimated scf accuracy    <       1.36582154 Ry

     iteration #  2     ecut=    30.00 Ry     beta= 0.70
     Davidson diagonalization with overlap
     ethr =  3.41E-03,  avg # of iterations =  2.0

     negative rho (up, down):  1.730E-03 0.000E+00

     total cpu time spent up to now is       45.1 secs

     total energy              =    -413.61100988 Ry
     estimated scf accuracy    <       0.70444874 Ry

     iteration #  3     ecut=    30.00 Ry     beta= 0.70
     Davidson diagonalization with overlap
     ethr =  1.76E-03,  avg # of iterations =  2.0

     negative rho (up, down):  1.735E-03 0.000E+00

     total cpu time spent up to now is       58.5 secs

     total energy              =    -413.79040152 Ry
     estimated scf accuracy    <       0.04038428 Ry

     iteration #  4     ecut=    30.00 Ry     beta= 0.70
     Davidson diagonalization with overlap
     ethr =  1.01E-04,  avg # of iterations =  5.0

     negative rho (up, down):  1.780E-03 0.000E+00

     total cpu time spent up to now is       72.6 secs

     total energy              =    -413.79690804 Ry
     estimated scf accuracy    <       0.00076786 Ry

     iteration #  5     ecut=    30.00 Ry     beta= 0.70
     Davidson diagonalization with overlap
     ethr =  1.92E-06,  avg # of iterations =  9.5

     negative rho (up, down):  1.778E-03 0.000E+00

     total cpu time spent up to now is       96.1 secs

     total energy              =    -413.79705969 Ry
     estimated scf accuracy    <       0.00013448 Ry

     iteration #  6     ecut=    30.00 Ry     beta= 0.70
     Davidson diagonalization with overlap
     ethr =  3.36E-07,  avg # of iterations =  3.9

     negative rho (up, down):  1.775E-03 0.000E+00

     total cpu time spent up to now is      111.2 secs

     total energy              =    -413.79708930 Ry
     estimated scf accuracy    <       0.00002450 Ry

     iteration #  7     ecut=    30.00 Ry     beta= 0.70
     Davidson diagonalization with overlap
     ethr =  6.13E-08,  avg # of iterations =  2.0

     negative rho (up, down):  1.774E-03 0.000E+00

     total cpu time spent up to now is      122.0 secs

     total energy              =    -413.79709109 Ry
     estimated scf accuracy    <       0.00000221 Ry

     iteration #  8     ecut=    30.00 Ry     beta= 0.70
     Davidson diagonalization with overlap
     ethr =  5.52E-09,  avg # of iterations =  2.6

     negative rho (up, down):  1.775E-03 0.000E+00

     total cpu time spent up to now is      136.8 secs

     total energy              =    -413.79709174 Ry
     estimated scf accuracy    <       0.00000016 Ry

     iteration #  9     ecut=    30.00 Ry     beta= 0.70
     Davidson diagonalization with overlap
     ethr =  4.09E-10,  avg # of iterations =  2.0

     negative rho (up, down):  1.775E-03 0.000E+00

     total cpu time spent up to now is      149.4 secs

     End of self-consistent calculation

          k = 0.0000 0.0000 0.0000 (  7835 PWs)   bands (ev):

   -22.5413 -22.5306 -22.5286 -22.5233 -22.5173 -22.4964 -22.4930 -22.4868
   -22.4835 -22.4744 -14.5788 -13.5776  -7.6013  -6.5097  -4.7700  -4.4766
    -4.0154  -3.1905  -2.8969  -1.8331   0.2278   1.9143   2.3770   2.5079
     2.9249   2.9678   2.9869   3.6612   4.0335   4.3544

     occupation numbers 
     1.0000   1.0000   1.0000   1.0000   1.0000   1.0000   1.0000   1.0000
     1.0000   1.0000   1.0000   1.0000   1.0000   1.0000   1.0000   1.0000
     1.0000   1.0000   1.0000   1.0000   0.0000   0.0000   0.0000   0.0000
     0.0000   0.0000   0.0000   0.0000   0.0000   0.0000

          k = 0.0000 0.1365 0.0000 (  7817 PWs)   bands (ev):

   -22.5391 -22.5301 -22.5285 -22.5248 -22.5159 -22.4969 -22.4934 -22.4858
   -22.4846 -22.4744 -14.5054 -13.5577  -7.7625  -6.7394  -4.7219  -4.3893
    -3.9588  -3.1760  -2.6739  -1.8774   0.2915   1.9340   2.1934   2.2863
     2.5839   3.1106   3.1119   3.5289   3.7542   4.3648

     occupation numbers 
     1.0000   1.0000   1.0000   1.0000   1.0000   1.0000   1.0000   1.0000
     1.0000   1.0000   1.0000   1.0000   1.0000   1.0000   1.0000   1.0000
     1.0000   1.0000   1.0000   1.0000   0.0000   0.0000   0.0000   0.0000
     0.0000   0.0000   0.0000   0.0000   0.0000   0.0000

          k = 0.0000 0.2730 0.0000 (  7842 PWs)   bands (ev):

   -22.5353 -22.5334 -22.5263 -22.5240 -22.5129 -22.4984 -22.4939 -22.4874
   -22.4832 -22.4744 -14.3007 -13.5281  -8.1194  -7.3073  -4.5063  -4.1395
    -3.7244  -3.0643  -2.1988  -2.0486   0.5195   0.7033   1.4505   1.8924
     2.5019   2.8105   3.2392   3.4842   3.7588   4.7048

     occupation numbers 
     1.0000   1.0000   1.0000   1.0000   1.0000   1.0000   1.0000   1.0000
     1.0000   1.0000   1.0000   1.0000   1.0000   1.0000   1.0000   1.0000
     1.0000   1.0000   1.0000   1.0000   0.0000   0.0000   0.0000   0.0000
     0.0000   0.0000   0.0000   0.0000   0.0000   0.0000

          k = 0.0000 0.4095 0.0000 (  7852 PWs)   bands (ev):

   -22.5366 -22.5364 -22.5227 -22.5202 -22.5091 -22.5012 -22.4939 -22.4904
   -22.4799 -22.4751 -14.0150 -13.5662  -8.3859  -7.9241  -4.1186  -3.7724
    -3.4114  -3.0038  -2.2167  -1.7015  -0.2784   0.7485   0.7686   1.0478
     1.4380   2.3946   3.6908   4.0856   4.2811   5.0452

     occupation numbers 
     1.0000   1.0000   1.0000   1.0000   1.0000   1.0000   1.0000   1.0000
     1.0000   1.0000   1.0000   1.0000   1.0000   1.0000   1.0000   1.0000
     1.0000   1.0000   1.0000   1.0000   0.0000   0.0000   0.0000   0.0000
     0.0000   0.0000   0.0000   0.0000   0.0000   0.0000

          k = 0.0000-0.5460 0.0000 (  7850 PWs)   bands (ev):

   -22.5377 -22.5377 -22.5196 -22.5196 -22.5049 -22.5049 -22.4927 -22.4927
   -22.4769 -22.4769 -13.7375 -13.7375  -8.3319  -8.3319  -3.7059  -3.7059
    -3.2010  -3.2010  -1.8997  -1.8997  -0.1232  -0.1232   0.7396   0.7396
     1.6560   1.6560   4.4776   4.4776   4.9157   4.9158

     occupation numbers 
     1.0000   1.0000   1.0000   1.0000   1.0000   1.0000   1.0000   1.0000
     1.0000   1.0000   1.0000   1.0000   1.0000   1.0000   1.0000   1.0000
     1.0000   1.0000   1.0000   1.0000   0.0000   0.0000   0.0000   0.0000
     0.0000   0.0000   0.0000   0.0000   0.0000   0.0000

          k = 0.1250 0.0000 0.0000 (  7811 PWs)   bands (ev):

   -22.5407 -22.5306 -22.5290 -22.5240 -22.5155 -22.4964 -22.4926 -22.4865
   -22.4838 -22.4750 -14.5220 -13.5813  -7.8202  -6.8107  -4.7136  -4.1912
    -3.9235  -2.8473  -2.8107  -1.9208   0.2824   1.9247   2.0012   2.5017
     2.5304   3.0597   3.0877   3.5838   3.6435   4.4080

     occupation numbers 
     1.0000   1.0000   1.0000   1.0000   1.0000   1.0000   1.0000   1.0000
     1.0000   1.0000   1.0000   1.0000   1.0000   1.0000   1.0000   1.0000
     1.0000   1.0000   1.0000   1.0000   0.0000   0.0000   0.0000   0.0000
     0.0000   0.0000   0.0000   0.0000   0.0000   0.0000

          k = 0.1250 0.1365 0.0000 (  7808 PWs)   bands (ev):

   -22.5386 -22.5307 -22.5284 -22.5256 -22.5142 -22.4969 -22.4931 -22.4855
   -22.4849 -22.4749 -14.4500 -13.5602  -7.9001  -6.9535  -4.6515  -4.5912
    -3.4816  -3.3300  -2.2550  -1.9234   0.3580   1.1897   2.0282   2.5713
     2.7301   3.0118   3.1314   3.2164   3.6477   4.5338

     occupation numbers 
     1.0000   1.0000   1.0000   1.0000   1.0000   1.0000   1.0000   1.0000
     1.0000   1.0000   1.0000   1.0000   1.0000   1.0000   1.0000   1.0000
     1.0000   1.0000   1.0000   1.0000   0.0000   0.0000   0.0000   0.0000
     0.0000   0.0000   0.0000   0.0000   0.0000   0.0000

          k = 0.1250 0.2730 0.0000 (  7831 PWs)   bands (ev):

   -22.5358 -22.5342 -22.5265 -22.5239 -22.5113 -22.4984 -22.4938 -22.4877
   -22.4829 -22.4748 -14.2501 -13.5258  -8.1194  -7.3679  -4.7662  -4.4543
    -3.4719  -3.1123  -2.0267  -1.9390   0.4116   0.5559   1.1282   2.1652
     2.8438   3.1499   3.2753   3.5865   3.8316   4.6832

     occupation numbers 
     1.0000   1.0000   1.0000   1.0000   1.0000   1.0000   1.0000   1.0000
     1.0000   1.0000   1.0000   1.0000   1.0000   1.0000   1.0000   1.0000
     1.0000   1.0000   1.0000   1.0000   0.0000   0.0000   0.0000   0.0000
     0.0000   0.0000   0.0000   0.0000   0.0000   0.0000

          k = 0.1250 0.4095 0.0000 (  7855 PWs)   bands (ev):

   -22.5377 -22.5376 -22.5225 -22.5199 -22.5079 -22.5010 -22.4938 -22.4905
   -22.4796 -22.4752 -13.9737 -13.5538  -8.3142  -7.8877  -4.5148  -4.1175
    -3.4324  -3.1390  -2.2602  -1.9178   0.1305   0.3135   1.1417   1.4556
     2.4571   2.5024   3.7971   4.1490   4.3810   4.7638

     occupation numbers 
     1.0000   1.0000   1.0000   1.0000   1.0000   1.0000   1.0000   1.0000
     1.0000   1.0000   1.0000   1.0000   1.0000   1.0000   1.0000   1.0000
     1.0000   1.0000   1.0000   1.0000   0.0000   0.0000   0.0000   0.0000
     0.0000   0.0000   0.0000   0.0000   0.0000   0.0000

          k = 0.1250-0.5460 0.0000 (  7868 PWs)   bands (ev):

   -22.5390 -22.5390 -22.5194 -22.5194 -22.5044 -22.5044 -22.4926 -22.4926
   -22.4768 -22.4768 -13.7103 -13.7103  -8.2547  -8.2547  -4.0334  -4.0334
    -3.4723  -3.4723  -2.1182  -2.1182   0.0771   0.0771   1.6025   1.6025
     1.8303   1.8303   4.4885   4.4885   4.9722   4.9722

     occupation numbers 
     1.0000   1.0000   1.0000   1.0000   1.0000   1.0000   1.0000   1.0000
     1.0000   1.0000   1.0000   1.0000   1.0000   1.0000   1.0000   1.0000
     1.0000   1.0000   1.0000   1.0000   0.0000   0.0000   0.0000   0.0000
     0.0000   0.0000   0.0000   0.0000   0.0000   0.0000

          k = 0.2500 0.0000 0.0000 (  7805 PWs)   bands (ev):

   -22.5390 -22.5310 -22.5298 -22.5260 -22.5110 -22.4967 -22.4914 -22.4856
   -22.4846 -22.4768 -14.3625 -13.6112  -8.2209  -7.4358  -4.4943  -3.6625
    -3.6067  -2.7415  -2.1440  -2.0060   0.4997   0.9165   1.7352   1.8772
     2.6735   2.7213   3.1195   3.3942   3.6450   4.5044

     occupation numbers 
     1.0000   1.0000   1.0000   1.0000   1.0000   1.0000   1.0000   1.0000
     1.0000   1.0000   1.0000   1.0000   1.0000   1.0000   1.0000   1.0000
     1.0000   1.0000   1.0000   1.0000   0.0000   0.0000   0.0000   0.0000
     0.0000   0.0000   0.0000   0.0000   0.0000   0.0000

          k = 0.2500 0.1365 0.0000 (  7816 PWs)   bands (ev):

   -22.5374 -22.5320 -22.5284 -22.5273 -22.5099 -22.4971 -22.4922 -22.4858
   -22.4844 -22.4764 -14.2950 -13.5855  -8.1879  -7.4525  -4.5599  -4.4306
    -3.3508  -2.9880  -1.9243  -1.8109   0.5686   0.6049   1.2508   2.2772
     2.8118   2.9841   3.1991   3.5197   3.7576   4.6547

     occupation numbers 
     1.0000   1.0000   1.0000   1.0000   1.0000   1.0000   1.0000   1.0000
     1.0000   1.0000   1.0000   1.0000   1.0000   1.0000   1.0000   1.0000
     1.0000   1.0000   1.0000   1.0000   0.0000   0.0000   0.0000   0.0000
     0.0000   0.0000   0.0000   0.0000   0.0000   0.0000

          k = 0.2500 0.2730 0.0000 (  7852 PWs)   bands (ev):

   -22.5372 -22.5362 -22.5265 -22.5237 -22.5077 -22.4985 -22.4933 -22.4883
   -22.4818 -22.4757 -14.1102 -13.5352  -8.1364  -7.5601  -5.2098  -4.3195
    -3.8770  -2.9354  -2.4451  -1.6767   0.3151   1.0279   1.0764   2.5040
     2.9656   3.5134   3.6231   3.8714   4.1073   4.3726

     occupation numbers 
     1.0000   1.0000   1.0000   1.0000   1.0000   1.0000   1.0000   1.0000
     1.0000   1.0000   1.0000   1.0000   1.0000   1.0000   1.0000   1.0000
     1.0000   1.0000   1.0000   1.0000   0.0000   0.0000   0.0000   0.0000
     0.0000   0.0000   0.0000   0.0000   0.0000   0.0000

          k = 0.2500 0.4095 0.0000 (  7843 PWs)   bands (ev):

   -22.5405 -22.5404 -22.5218 -22.5196 -22.5053 -22.5007 -22.4933 -22.4905
   -22.4788 -22.4755 -13.8632 -13.5314  -8.1239  -7.8060  -5.2821  -4.2304
    -4.1074  -3.2518  -3.0060  -2.1255   0.5081   1.5373   1.5908   2.1709
     2.9209   3.6804   4.0191   4.0956   4.6348   4.6438

     occupation numbers 
     1.0000   1.0000   1.0000   1.0000   1.0000   1.0000   1.0000   1.0000
     1.0000   1.0000   1.0000   1.0000   1.0000   1.0000   1.0000   1.0000
     1.0000   1.0000   1.0000   1.0000   0.0000   0.0000   0.0000   0.0000
     0.0000   0.0000   0.0000   0.0000   0.0000   0.0000

          k = 0.2500-0.5460 0.0000 (  7860 PWs)   bands (ev):

   -22.5422 -22.5422 -22.5189 -22.5189 -22.5031 -22.5031 -22.4922 -22.4922
   -22.4765 -22.4765 -13.6429 -13.6429  -8.0417  -8.0417  -4.8160  -4.8160
    -3.7698  -3.7698  -2.7190  -2.7190   1.1350   1.1350   2.0511   2.0511
     3.1150   3.1150   4.2464   4.2464   5.1993   5.1993

     occupation numbers 
     1.0000   1.0000   1.0000   1.0000   1.0000   1.0000   1.0000   1.0000
     1.0000   1.0000   1.0000   1.0000   1.0000   1.0000   1.0000   1.0000
     1.0000   1.0000   1.0000   1.0000   0.0000   0.0000   0.0000   0.0000
     0.0000   0.0000   0.0000   0.0000   0.0000   0.0000

          k = 0.3750 0.0000 0.0000 (  7803 PWs)   bands (ev):

   -22.5367 -22.5322 -22.5303 -22.5282 -22.5055 -22.4979 -22.4897 -22.4860
   -22.4839 -22.4792 -14.1339 -13.7084  -8.4672  -8.0299  -4.1208  -3.3231
    -3.2862  -2.7148  -2.1020  -1.2341   0.0234   0.9281   1.1606   1.2187
     1.8026   2.2568   3.5008   3.9083   4.0987   4.8946

     occupation numbers 
     1.0000   1.0000   1.0000   1.0000   1.0000   1.0000   1.0000   1.0000
     1.0000   1.0000   1.0000   1.0000   1.0000   1.0000   1.0000   1.0000
     1.0000   1.0000   1.0000   1.0000   0.0000   0.0000   0.0000   0.0000
     0.0000   0.0000   0.0000   0.0000   0.0000   0.0000

          k = 0.3750 0.1365 0.0000 (  7804 PWs)   bands (ev):

   -22.5359 -22.5334 -22.5289 -22.5289 -22.5049 -22.4982 -22.4907 -22.4872
   -22.4827 -22.4784 -14.0748 -13.6736  -8.3803  -7.9715  -4.2391  -4.0748
    -3.3709  -3.1196  -1.7831  -1.6535   0.4549   0.6867   1.1253   1.6968
     2.4591   2.7155   3.6316   4.0120   4.2230   4.7973

     occupation numbers 
     1.0000   1.0000   1.0000   1.0000   1.0000   1.0000   1.0000   1.0000
     1.0000   1.0000   1.0000   1.0000   1.0000   1.0000   1.0000   1.0000
     1.0000   1.0000   1.0000   1.0000   0.0000   0.0000   0.0000   0.0000
     0.0000   0.0000   0.0000   0.0000   0.0000   0.0000

          k = 0.3750 0.2730 0.0000 (  7816 PWs)   bands (ev):

   -22.5387 -22.5382 -22.5259 -22.5240 -22.5037 -22.4991 -22.4921 -22.4892
   -22.4803 -22.4770 -13.9173 -13.5937  -8.1522  -7.8384  -5.1898  -4.3008
    -4.0035  -3.2183  -2.8038  -2.0275   0.6844   1.6515   1.9531   2.1525
     2.9854   3.7205   4.0066   4.0628   4.5554   4.5844

     occupation numbers 
     1.0000   1.0000   1.0000   1.0000   1.0000   1.0000   1.0000   1.0000
     1.0000   1.0000   1.0000   1.0000   1.0000   1.0000   1.0000   1.0000
     1.0000   1.0000   1.0000   1.0000   0.0000   0.0000   0.0000   0.0000
     0.0000   0.0000   0.0000   0.0000   0.0000   0.0000

          k = 0.3750 0.4095 0.0000 (  7823 PWs)   bands (ev):

   -22.5433 -22.5431 -22.5210 -22.5197 -22.5027 -22.5006 -22.4923 -22.4906
   -22.4778 -22.4761 -13.7212 -13.5354  -7.9024  -7.7472  -5.6453  -4.8600
    -4.3699  -3.6938  -3.1202  -2.5952   1.2712   2.0606   2.3575   2.9822
     3.5341   3.7227   4.2339   4.4197   4.8806   5.0795

     occupation numbers 
     1.0000   1.0000   1.0000   1.0000   1.0000   1.0000   1.0000   1.0000
     1.0000   1.0000   1.0000   1.0000   1.0000   1.0000   1.0000   1.0000
     1.0000   1.0000   1.0000   1.0000   0.0000   0.0000   0.0000   0.0000
     0.0000   0.0000   0.0000   0.0000   0.0000   0.0000

          k = 0.3750-0.5460 0.0000 (  7836 PWs)   bands (ev):

   -22.5452 -22.5452 -22.5186 -22.5186 -22.5019 -22.5019 -22.4916 -22.4916
   -22.4763 -22.4763 -13.5728 -13.5728  -7.7703  -7.7703  -5.4263  -5.4263
    -4.2955  -4.2955  -2.9037  -2.9037   1.7625   1.7625   2.8931   2.8931
     3.8093   3.8093   4.2862   4.2862   5.6750   5.6750

     occupation numbers 
     1.0000   1.0000   1.0000   1.0000   1.0000   1.0000   1.0000   1.0000
     1.0000   1.0000   1.0000   1.0000   1.0000   1.0000   1.0000   1.0000
     1.0000   1.0000   1.0000   1.0000   0.0000   0.0000   0.0000   0.0000
     0.0000   0.0000   0.0000   0.0000   0.0000   0.0000

          k =-0.5000 0.0000 0.0000 (  7804 PWs)   bands (ev):

   -22.5342 -22.5342 -22.5298 -22.5298 -22.5008 -22.5008 -22.4878 -22.4878
   -22.4817 -22.4817 -13.8939 -13.8939  -8.4051  -8.4051  -3.6628  -3.6628
    -2.9128  -2.9128  -1.4694  -1.4694   0.2741   0.2741   1.2476   1.2476
     1.5470   1.5470   4.2068   4.2068   4.6203   4.6204

     occupation numbers 
     1.0000   1.0000   1.0000   1.0000   1.0000   1.0000   1.0000   1.0000
     1.0000   1.0000   1.0000   1.0000   1.0000   1.0000   1.0000   1.0000
     1.0000   1.0000   1.0000   1.0000   0.0000   0.0000   0.0000   0.0000
     0.0000   0.0000   0.0000   0.0000   0.0000   0.0000

          k =-0.5000 0.1365 0.0000 (  7798 PWs)   bands (ev):

   -22.5346 -22.5346 -22.5294 -22.5294 -22.5007 -22.5007 -22.4890 -22.4890
   -22.4806 -22.4806 -13.8466 -13.8466  -8.3140  -8.3140  -3.8291  -3.8291
    -3.5032  -3.5032  -1.6639  -1.6639   0.4957   0.4957   1.6199   1.6199
     2.1577   2.1577   4.2970   4.2971   4.7084   4.7084

     occupation numbers 
     1.0000   1.0000   1.0000   1.0000   1.0000   1.0000   1.0000   1.0000
     1.0000   1.0000   1.0000   1.0000   1.0000   1.0000   1.0000   1.0000
     1.0000   1.0000   1.0000   1.0000   0.0000   0.0000   0.0000   0.0000
     0.0000   0.0000   0.0000   0.0000   0.0000   0.0000

          k =-0.5000 0.2730 0.0000 (  7794 PWs)   bands (ev):

   -22.5392 -22.5392 -22.5249 -22.5249 -22.5008 -22.5008 -22.4906 -22.4906
   -22.4786 -22.4786 -13.7271 -13.7271  -8.0668  -8.0668  -4.7965  -4.7965
    -3.6475  -3.6475  -2.5668  -2.5668   1.3478   1.3478   2.3517   2.3517
     3.2121   3.2121   4.2811   4.2811   4.9632   4.9632

     occupation numbers 
     1.0000   1.0000   1.0000   1.0000   1.0000   1.0000   1.0000   1.0000
     1.0000   1.0000   1.0000   1.0000   1.0000   1.0000   1.0000   1.0000
     1.0000   1.0000   1.0000   1.0000   0.0000   0.0000   0.0000   0.0000
     0.0000   0.0000   0.0000   0.0000   0.0000   0.0000

          k =-0.5000 0.4095 0.0000 (  7806 PWs)   bands (ev):

   -22.5443 -22.5443 -22.5202 -22.5202 -22.5012 -22.5012 -22.4912 -22.4912
   -22.4769 -22.4769 -13.5989 -13.5989  -7.7688  -7.7688  -5.4694  -5.4694
    -4.1792  -4.1792  -2.9103  -2.9103   1.7663   1.7663   3.1371   3.1371
     3.8937   3.8937   4.2056   4.2056   5.5388   5.5388

     occupation numbers 
     1.0000   1.0000   1.0000   1.0000   1.0000   1.0000   1.0000   1.0000
     1.0000   1.0000   1.0000   1.0000   1.0000   1.0000   1.0000   1.0000
     1.0000   1.0000   1.0000   1.0000   0.0000   0.0000   0.0000   0.0000
     0.0000   0.0000   0.0000   0.0000   0.0000   0.0000

          k =-0.5000-0.5460 0.0000 (  7764 PWs)   bands (ev):

   -22.5464 -22.5464 -22.5185 -22.5185 -22.5014 -22.5014 -22.4912 -22.4912
   -22.4761 -22.4761 -13.5428 -13.5428  -7.6278  -7.6278  -5.6598  -5.6598
    -4.5551  -4.5551  -2.9169  -2.9169   1.9042   1.9042   3.3907   3.3907
     3.6534   3.6534   4.7298   4.7298   5.9252   5.9252

     occupation numbers 
     1.0000   1.0000   1.0000   1.0000   1.0000   1.0000   1.0000   1.0000
     1.0000   1.0000   1.0000   1.0000   1.0000   1.0000   1.0000   1.0000
     1.0000   1.0000   1.0000   1.0000   0.0000   0.0000   0.0000   0.0000
     0.0000   0.0000   0.0000   0.0000   0.0000   0.0000

     highest occupied, lowest unoccupied level (ev):    -1.2341   -0.2784

!    total energy              =    -413.79709178 Ry
     estimated scf accuracy    <          7.8E-10 Ry

     The total energy is the sum of the following terms:
     one-electron contribution =   -1353.62808241 Ry
     hartree contribution      =     688.48886820 Ry
     xc contribution           =    -154.41511739 Ry
     ewald contribution        =     405.75723983 Ry

     convergence has been achieved in   9 iterations

     negative rho (up, down):  1.775E-03 0.000E+00

     Forces acting on atoms (cartesian axes, Ry/au):

     atom    1 type  1   force =    -0.00000524    0.00000000    0.00004107
     atom    2 type  2   force =     0.00000524    0.00000000    0.00046573
     atom    3 type  2   force =     0.00000524    0.00000000   -0.00046573
     atom    4 type  1   force =    -0.00000524   -0.00000000   -0.00004107
     The non-local contrib.  to forces
     atom    1 type  1   force =     0.24645601    0.00000000    0.44491247
     atom    2 type  2   force =    -0.07977122    0.00000000    0.19454666
     atom    3 type  2   force =    -0.07977122    0.00000000   -0.19454666
     atom    4 type  1   force =     0.24645601    0.00000000   -0.44491247
     The ionic contribution  to forces
     atom    1 type  1   force =    -1.27654529    0.00000000  -38.64019858
     atom    2 type  2   force =     1.27654529   -0.00000000  -17.22072956
     atom    3 type  2   force =     1.27654529   -0.00000000   17.22072956
     atom    4 type  1   force =    -1.27654529   -0.00000000   38.64019857
     The local contribution  to forces
     atom    1 type  1   force =     1.03382982    0.00000000   38.20305660
     atom    2 type  2   force =    -1.20561992    0.00000000   17.04889738
     atom    3 type  2   force =    -1.20561992    0.00000000  -17.04889739
     atom    4 type  1   force =     1.03382982    0.00000000  -38.20305660
     The core correction contribution to forces
     atom    1 type  1   force =    -0.00370948    0.00000000   -0.00769908
     atom    2 type  2   force =     0.00880237   -0.00000000   -0.02225146
     atom    3 type  2   force =     0.00880237    0.00000000    0.02225146
     atom    4 type  1   force =    -0.00370948    0.00000000    0.00769908
     The Hubbard contrib.    to forces
     atom    1 type  1   force =     0.00000000    0.00000000    0.00000000
     atom    2 type  2   force =     0.00000000    0.00000000    0.00000000
     atom    3 type  2   force =     0.00000000    0.00000000    0.00000000
     atom    4 type  1   force =     0.00000000    0.00000000    0.00000000
     The SCF correction term to forces
     atom    1 type  1   force =    -0.00007892   -0.00000000   -0.00003035
     atom    2 type  2   force =     0.00000611    0.00000000    0.00000270
     atom    3 type  2   force =     0.00000611    0.00000000   -0.00000270
     atom    4 type  1   force =    -0.00007892   -0.00000000    0.00003035

     Total force =     0.000661     Total SCF correction =     0.000120
     SCF correction compared to forces is large: reduce conv_thr to get better values

     Writing output data file ./tmp/SnSe_monolayer.save/

     init_run     :      6.63s CPU      7.01s WALL (       1 calls)
     electrons    :    115.80s CPU    141.59s WALL (       1 calls)
     forces       :      5.99s CPU      7.70s WALL (       1 calls)

     Called by init_run:
     wfcinit      :      2.57s CPU      2.48s WALL (       1 calls)
     wfcinit:atom :      0.01s CPU      0.01s WALL (       9 calls)
     wfcinit:wfcr :      2.50s CPU      2.42s WALL (       9 calls)
     potinit      :      1.06s CPU      1.15s WALL (       1 calls)
     hinit0       :      1.69s CPU      1.71s WALL (       1 calls)

     Called by electrons:
     c_bands      :     85.71s CPU    104.49s WALL (       9 calls)
     sum_band     :     14.10s CPU     16.59s WALL (       9 calls)
     v_of_rho     :      3.22s CPU      3.77s WALL (      10 calls)
     v_h          :      0.28s CPU      0.33s WALL (      10 calls)
     v_xc         :      3.22s CPU      3.77s WALL (      11 calls)
     newd         :     13.25s CPU     17.57s WALL (      10 calls)
     mix_rho      :      0.55s CPU      0.57s WALL (       9 calls)

     Called by c_bands:
     init_us_2    :      0.62s CPU      0.55s WALL (     180 calls)
     cegterg      :     63.59s CPU     83.35s WALL (      81 calls)

     Called by sum_band:
     sum_band:wei :      0.02s CPU      0.03s WALL (       9 calls)
     sum_band:loo :      7.82s CPU      9.75s WALL (       9 calls)
     sum_band:buf :      0.05s CPU      0.04s WALL (      81 calls)
     sum_band:ini :      0.29s CPU      0.24s WALL (      81 calls)
     sum_band:cal :      3.06s CPU      5.56s WALL (      81 calls)
     sum_band:bec :      0.00s CPU      0.00s WALL (      81 calls)
     addusdens    :      5.36s CPU      5.94s WALL (       9 calls)
     addusd:skk   :      0.01s CPU      0.01s WALL (      18 calls)
     addusd:dgemm :      1.78s CPU      1.78s WALL (      18 calls)
     addusd:qvan2 :      3.16s CPU      2.97s WALL (      18 calls)

     Called by *egterg:
     cdiaghg      :      4.02s CPU     10.84s WALL (     404 calls)
     cegterg:over :     13.36s CPU     20.40s WALL (     323 calls)
     cegterg:upda :      1.53s CPU      2.19s WALL (     323 calls)
     cegterg:last :      2.64s CPU      2.41s WALL (     182 calls)
     h_psi        :     35.48s CPU     39.06s WALL (     413 calls)
     s_psi        :      2.11s CPU      1.64s WALL (     413 calls)
     g_psi        :      0.21s CPU      0.17s WALL (     323 calls)

     Called by h_psi:
     h_psi:calbec :     10.52s CPU     16.18s WALL (     413 calls)
     vloc_psi     :     22.78s CPU     21.07s WALL (     413 calls)
     add_vuspsi   :      2.04s CPU      1.68s WALL (     413 calls)

     General routines
     calbec       :     15.29s CPU     24.33s WALL (     530 calls)
     fft          :      3.01s CPU      3.26s WALL (     139 calls)
     ffts         :      0.08s CPU      0.07s WALL (      19 calls)
     fftw         :     23.16s CPU     21.30s WALL (   15484 calls)
     interpolate  :      0.27s CPU      0.28s WALL (      10 calls)

     Parallel routines
     fft_scatt_xy :      4.64s CPU      4.23s WALL (   15642 calls)
     fft_scatt_yz :      7.27s CPU      7.19s WALL (   15642 calls)

     PWSCF        :   2m 9.33s CPU   2m37.25s WALL


   This run was terminated on:  23: 9: 7  26May2026            

=------------------------------------------------------------------------------=
   JOB DONE.
=------------------------------------------------------------------------------=
