
     Program PWSCF v.6.7MaX starts on 26May2026 at 22:58:39 

     This program is part of the open-source Quantum ESPRESSO suite
     for quantum simulation of materials; please cite
         "P. Giannozzi et al., J. Phys.:Condens. Matter 21 395502 (2009);
         "P. Giannozzi et al., J. Phys.:Condens. Matter 29 465901 (2017);
          URL http://www.quantum-espresso.org", 
     in publications or presentations arising from this work. More details at
     http://www.quantum-espresso.org/quote

     Parallel version (MPI), running on     6 processors

     MPI processes distributed on     1 nodes
     K-points division:     npool     =       3
     R & G space division:  proc/nbgrp/npool/nimage =       2
     Waiting for input...
     Reading input from standard input

     Current dimensions of program PWSCF are:
     Max number of different atomic species (ntypx) = 10
     Max number of k-points (npk) =  40000
     Max angular momentum in pseudopotentials (lmaxx) =  3

     Subspace diagonalization in iterative solution of the eigenvalue problem:
     a serial algorithm will be used

     Message from routine setup:
     using ibrav=0 with symmetry is DISCOURAGED, use correct ibrav instead

     Parallelization info
     --------------------
     sticks:   dense  smooth     PW     G-vecs:    dense   smooth      PW
     Min         814     320     99                67558    17059    2828
     Max         815     321    100                67563    17064    2829
     Sum        1629     641    199               135121    34123    5657



     bravais-lattice index     =            0
     lattice parameter (alat)  =       8.6086  a.u.
     unit-cell volume          =    1538.8480 (a.u.)^3
     number of atoms/cell      =            4
     number of atomic types    =            2
     number of electrons       =        40.00
     number of Kohn-Sham states=           30
     kinetic-energy cutoff     =      30.0000  Ry
     charge density cutoff     =     300.0000  Ry
     scf convergence threshold =      1.0E-08
     mixing beta               =       0.7000
     number of iterations used =            8  plain     mixing
     Exchange-correlation= SLA  PW   PBE  PBE
                           (   1   4   3   4   0   0   0)

     celldm(1)=   8.608647  celldm(2)=   0.000000  celldm(3)=   0.000000
     celldm(4)=   0.000000  celldm(5)=   0.000000  celldm(6)=   0.000000

     crystal axes: (cart. coord. in units of alat)
               a(1) = (   1.000000   0.000000   0.000000 )  
               a(2) = (   0.000000   0.915684   0.000000 )  
               a(3) = (   0.000000   0.000000   2.634178 )  

     reciprocal axes: (cart. coord. in units 2 pi/alat)
               b(1) = (  1.000000  0.000000  0.000000 )  
               b(2) = (  0.000000  1.092079  0.000000 )  
               b(3) = (  0.000000  0.000000  0.379625 )  


     PseudoPot. # 1 for Sn read from file:
     ../pseudo/Sn_pbe_v1.uspp.F.UPF
     MD5 check sum: 4cf58ce39ec5d5d420df3dd08604eb00
     Pseudo is Ultrasoft + core correction, Zval = 14.0
     Generated by new atomic code, or converted to UPF format
     Using radial grid of  891 points,  6 beta functions with: 
                l(1) =   0
                l(2) =   0
                l(3) =   1
                l(4) =   1
                l(5) =   2
                l(6) =   2
     Q(r) pseudized with  6 coefficients,  rinner =    1.200   1.200   1.200
                                                       1.200   1.200

     PseudoPot. # 2 for Se read from file:
     ../pseudo/Se_pbe_v1.uspp.F.UPF
     MD5 check sum: 1b3568f3a8ae88f9a2a0ad0698632c85
     Pseudo is Ultrasoft + core correction, Zval =  6.0
     Generated by new atomic code, or converted to UPF format
     Using radial grid of  877 points,  6 beta functions with: 
                l(1) =   0
                l(2) =   0
                l(3) =   1
                l(4) =   1
                l(5) =   2
                l(6) =   2
     Q(r) pseudized with  8 coefficients,  rinner =    1.300   1.300   1.300
                                                       1.300   1.300

     atomic species   valence    mass     pseudopotential
        Sn            14.00   118.71000     Sn( 1.00)
        Se             6.00    78.97100     Se( 1.00)

      4 Sym. Ops. (no inversion) found ( 3 have fractional translation)


                                    s                        frac. trans.

      isym =  1     identity                                     

 cryst.   s( 1) = (     1          0          0      )
                  (     0          1          0      )
                  (     0          0          1      )

 cart.    s( 1) = (  1.0000000  0.0000000  0.0000000 )
                  (  0.0000000  1.0000000  0.0000000 )
                  (  0.0000000  0.0000000  1.0000000 )


      isym =  2     180 deg rotation - cart. axis [1,0,0]        

 cryst.   s( 2) = (     1          0          0      )    f =( -0.5000000 )
                  (     0         -1          0      )       (  0.0000000 )
                  (     0          0         -1      )       (  0.0000000 )

 cart.    s( 2) = (  1.0000000  0.0000000  0.0000000 )    f =( -0.5000000 )
                  (  0.0000000 -1.0000000  0.0000000 )       (  0.0000000 )
                  (  0.0000000  0.0000000 -1.0000000 )       (  0.0000000 )


      isym =  3     inv. 180 deg rotation - cart. axis [0,0,1]   

 cryst.   s( 3) = (     1          0          0      )    f =( -0.5000000 )
                  (     0          1          0      )       (  0.5000000 )
                  (     0          0         -1      )       (  0.0000000 )

 cart.    s( 3) = (  1.0000000  0.0000000  0.0000000 )    f =( -0.5000000 )
                  (  0.0000000  1.0000000  0.0000000 )       (  0.4578422 )
                  (  0.0000000  0.0000000 -1.0000000 )       (  0.0000000 )


      isym =  4     inv. 180 deg rotation - cart. axis [0,1,0]   

 cryst.   s( 4) = (     1          0          0      )    f =(  0.0000000 )
                  (     0         -1          0      )       (  0.5000000 )
                  (     0          0          1      )       (  0.0000000 )

 cart.    s( 4) = (  1.0000000  0.0000000  0.0000000 )    f =(  0.0000000 )
                  (  0.0000000 -1.0000000  0.0000000 )       (  0.4578422 )
                  (  0.0000000  0.0000000  1.0000000 )       (  0.0000000 )


   Cartesian axes

     site n.     atom                  positions (alat units)
         1           Sn  tau(   1) = (   0.0995059   0.6867633   1.0118633  )
         2           Se  tau(   2) = (   0.5295331   0.2289211   1.0260654  )
         3           Se  tau(   3) = (   0.0295331   0.6867633   1.6081130  )
         4           Sn  tau(   4) = (   0.5995059   0.2289211   1.6223151  )

   Crystallographic axes

     site n.     atom                  positions (cryst. coord.)
         1           Sn  tau(   1) = (  0.0995059  0.7500000  0.3841286  )
         2           Se  tau(   2) = (  0.5295331  0.2500000  0.3895201  )
         3           Se  tau(   3) = (  0.0295331  0.7500000  0.6104799  )
         4           Sn  tau(   4) = (  0.5995059  0.2500000  0.6158714  )

     number of k points=    25
                       cart. coord. in units 2pi/alat
        k(    1) = (   0.0000000   0.0000000   0.0000000), wk =   0.0312500
        k(    2) = (   0.0000000   0.1365099   0.0000000), wk =   0.0625000
        k(    3) = (   0.0000000   0.2730198   0.0000000), wk =   0.0625000
        k(    4) = (   0.0000000   0.4095298   0.0000000), wk =   0.0625000
        k(    5) = (   0.0000000  -0.5460397   0.0000000), wk =   0.0312500
        k(    6) = (   0.1250000   0.0000000   0.0000000), wk =   0.0625000
        k(    7) = (   0.1250000   0.1365099   0.0000000), wk =   0.1250000
        k(    8) = (   0.1250000   0.2730198   0.0000000), wk =   0.1250000
        k(    9) = (   0.1250000   0.4095298   0.0000000), wk =   0.1250000
        k(   10) = (   0.1250000  -0.5460397   0.0000000), wk =   0.0625000
        k(   11) = (   0.2500000   0.0000000   0.0000000), wk =   0.0625000
        k(   12) = (   0.2500000   0.1365099   0.0000000), wk =   0.1250000
        k(   13) = (   0.2500000   0.2730198   0.0000000), wk =   0.1250000
        k(   14) = (   0.2500000   0.4095298   0.0000000), wk =   0.1250000
        k(   15) = (   0.2500000  -0.5460397   0.0000000), wk =   0.0625000
        k(   16) = (   0.3750000   0.0000000   0.0000000), wk =   0.0625000
        k(   17) = (   0.3750000   0.1365099   0.0000000), wk =   0.1250000
        k(   18) = (   0.3750000   0.2730198   0.0000000), wk =   0.1250000
        k(   19) = (   0.3750000   0.4095298   0.0000000), wk =   0.1250000
        k(   20) = (   0.3750000  -0.5460397   0.0000000), wk =   0.0625000
        k(   21) = (  -0.5000000   0.0000000   0.0000000), wk =   0.0312500
        k(   22) = (  -0.5000000   0.1365099   0.0000000), wk =   0.0625000
        k(   23) = (  -0.5000000   0.2730198   0.0000000), wk =   0.0625000
        k(   24) = (  -0.5000000   0.4095298   0.0000000), wk =   0.0625000
        k(   25) = (  -0.5000000  -0.5460397   0.0000000), wk =   0.0312500

                       cryst. coord.
        k(    1) = (   0.0000000   0.0000000   0.0000000), wk =   0.0312500
        k(    2) = (   0.0000000   0.1250000   0.0000000), wk =   0.0625000
        k(    3) = (   0.0000000   0.2500000   0.0000000), wk =   0.0625000
        k(    4) = (   0.0000000   0.3750000   0.0000000), wk =   0.0625000
        k(    5) = (   0.0000000  -0.5000000   0.0000000), wk =   0.0312500
        k(    6) = (   0.1250000   0.0000000   0.0000000), wk =   0.0625000
        k(    7) = (   0.1250000   0.1250000   0.0000000), wk =   0.1250000
        k(    8) = (   0.1250000   0.2500000   0.0000000), wk =   0.1250000
        k(    9) = (   0.1250000   0.3750000   0.0000000), wk =   0.1250000
        k(   10) = (   0.1250000  -0.5000000   0.0000000), wk =   0.0625000
        k(   11) = (   0.2500000   0.0000000   0.0000000), wk =   0.0625000
        k(   12) = (   0.2500000   0.1250000   0.0000000), wk =   0.1250000
        k(   13) = (   0.2500000   0.2500000   0.0000000), wk =   0.1250000
        k(   14) = (   0.2500000   0.3750000   0.0000000), wk =   0.1250000
        k(   15) = (   0.2500000  -0.5000000   0.0000000), wk =   0.0625000
        k(   16) = (   0.3750000   0.0000000   0.0000000), wk =   0.0625000
        k(   17) = (   0.3750000   0.1250000   0.0000000), wk =   0.1250000
        k(   18) = (   0.3750000   0.2500000   0.0000000), wk =   0.1250000
        k(   19) = (   0.3750000   0.3750000   0.0000000), wk =   0.1250000
        k(   20) = (   0.3750000  -0.5000000   0.0000000), wk =   0.0625000
        k(   21) = (  -0.5000000   0.0000000   0.0000000), wk =   0.0312500
        k(   22) = (  -0.5000000   0.1250000   0.0000000), wk =   0.0625000
        k(   23) = (  -0.5000000   0.2500000   0.0000000), wk =   0.0625000
        k(   24) = (  -0.5000000   0.3750000   0.0000000), wk =   0.0625000
        k(   25) = (  -0.5000000  -0.5000000   0.0000000), wk =   0.0312500

     Dense  grid:   135121 G-vectors     FFT dimensions: (  48,  48, 125)

     Smooth grid:    34123 G-vectors     FFT dimensions: (  32,  30,  80)

     Dynamical RAM for                 wfc:       0.98 MB

     Dynamical RAM for     wfc (w. buffer):       9.77 MB

     Dynamical RAM for           str. fact:       2.06 MB

     Dynamical RAM for           local pot:       0.00 MB

     Dynamical RAM for          nlocal pot:       2.35 MB

     Dynamical RAM for                qrad:       2.78 MB

     Dynamical RAM for          rho,v,vnew:       6.42 MB

     Dynamical RAM for               rhoin:       2.14 MB

     Dynamical RAM for            rho*nmix:      16.49 MB

     Dynamical RAM for           G-vectors:       4.00 MB

     Dynamical RAM for          h,s,v(r/c):       0.16 MB

     Dynamical RAM for          <psi|beta>:       0.03 MB

     Dynamical RAM for                 psi:       1.95 MB

     Dynamical RAM for                hpsi:       1.95 MB

     Dynamical RAM for                spsi:       1.95 MB

     Dynamical RAM for      wfcinit/wfcrot:       1.98 MB

     Dynamical RAM for           addusdens:      65.29 MB

     Dynamical RAM for          addusforce:      65.82 MB

     Estimated static dynamical RAM per process >      54.64 MB

     Estimated max dynamical RAM per process >     120.45 MB

     Estimated total dynamical RAM >     722.71 MB

     Initial potential from superposition of free atoms

     starting charge   37.99977, renormalised to   40.00000

     negative rho (up, down):  4.487E-04 0.000E+00
     Starting wfcs are   26 randomized atomic wfcs +    4 random wfcs

     total cpu time spent up to now is        5.1 secs

     Self-consistent Calculation

     iteration #  1     ecut=    30.00 Ry     beta= 0.70
     Davidson diagonalization with overlap
     ethr =  1.00E-02,  avg # of iterations =  7.0

     negative rho (up, down):  4.894E-05 0.000E+00

     total cpu time spent up to now is       18.1 secs

     total energy              =    -413.21766279 Ry
     estimated scf accuracy    <       1.37074949 Ry

     iteration #  2     ecut=    30.00 Ry     beta= 0.70
     Davidson diagonalization with overlap
     ethr =  3.43E-03,  avg # of iterations =  2.0

     negative rho (up, down):  1.117E-04 0.000E+00

     total cpu time spent up to now is       25.1 secs

     total energy              =    -413.60755580 Ry
     estimated scf accuracy    <       0.71448912 Ry

     iteration #  3     ecut=    30.00 Ry     beta= 0.70
     Davidson diagonalization with overlap
     ethr =  1.79E-03,  avg # of iterations =  2.0

     negative rho (up, down):  1.382E-04 0.000E+00

     total cpu time spent up to now is       32.6 secs

     total energy              =    -413.79031917 Ry
     estimated scf accuracy    <       0.04170368 Ry

     iteration #  4     ecut=    30.00 Ry     beta= 0.70
     Davidson diagonalization with overlap
     ethr =  1.04E-04,  avg # of iterations =  3.1

     negative rho (up, down):  1.800E-04 0.000E+00

     total cpu time spent up to now is       41.2 secs

     total energy              =    -413.79701806 Ry
     estimated scf accuracy    <       0.00077439 Ry

     iteration #  5     ecut=    30.00 Ry     beta= 0.70
     Davidson diagonalization with overlap
     ethr =  1.94E-06,  avg # of iterations =  7.8

     negative rho (up, down):  1.809E-04 0.000E+00

     total cpu time spent up to now is       52.6 secs

     total energy              =    -413.79717058 Ry
     estimated scf accuracy    <       0.00012375 Ry

     iteration #  6     ecut=    30.00 Ry     beta= 0.70
     Davidson diagonalization with overlap
     ethr =  3.09E-07,  avg # of iterations =  3.9

     negative rho (up, down):  1.793E-04 0.000E+00

     total cpu time spent up to now is       59.8 secs

     total energy              =    -413.79719832 Ry
     estimated scf accuracy    <       0.00002110 Ry

     iteration #  7     ecut=    30.00 Ry     beta= 0.70
     Davidson diagonalization with overlap
     ethr =  5.27E-08,  avg # of iterations =  2.0

     negative rho (up, down):  1.786E-04 0.000E+00

     total cpu time spent up to now is       66.9 secs

     total energy              =    -413.79719972 Ry
     estimated scf accuracy    <       0.00000213 Ry

     iteration #  8     ecut=    30.00 Ry     beta= 0.70
     Davidson diagonalization with overlap
     ethr =  5.32E-09,  avg # of iterations =  2.0

     negative rho (up, down):  1.787E-04 0.000E+00

     total cpu time spent up to now is       75.4 secs

     total energy              =    -413.79720029 Ry
     estimated scf accuracy    <       0.00000014 Ry

     iteration #  9     ecut=    30.00 Ry     beta= 0.70
     Davidson diagonalization with overlap
     ethr =  3.44E-10,  avg # of iterations =  2.0

     negative rho (up, down):  1.787E-04 0.000E+00

     total cpu time spent up to now is       82.7 secs

     End of self-consistent calculation

          k = 0.0000 0.0000 0.0000 (  4281 PWs)   bands (ev):

   -19.9255 -19.9148 -19.9128 -19.9075 -19.9015 -19.8806 -19.8772 -19.8710
   -19.8677 -19.8586 -11.9628 -10.9616  -4.9852  -3.8937  -2.1542  -1.8605
    -1.3994  -0.5746  -0.2809   0.7833   2.8820   4.5305   4.8571   5.1187
     5.5410   6.2079   6.6495   7.2915   7.5302   7.5770

     occupation numbers 
     1.0000   1.0000   1.0000   1.0000   1.0000   1.0000   1.0000   1.0000
     1.0000   1.0000   1.0000   1.0000   1.0000   1.0000   1.0000   1.0000
     1.0000   1.0000   1.0000   1.0000   0.0000   0.0000   0.0000   0.0000
     0.0000   0.0000   0.0000   0.0000   0.0000   0.0000

          k = 0.0000 0.1365 0.0000 (  4255 PWs)   bands (ev):

   -19.9233 -19.9143 -19.9127 -19.9090 -19.9001 -19.8811 -19.8776 -19.8700
   -19.8688 -19.8586 -11.8894 -10.9418  -5.1464  -4.1234  -2.1062  -1.7733
    -1.3427  -0.5600  -0.0580   0.7389   2.9435   4.5487   4.8095   4.8560
     5.1132   6.1440   6.3006   6.9824   7.4578   7.6401

     occupation numbers 
     1.0000   1.0000   1.0000   1.0000   1.0000   1.0000   1.0000   1.0000
     1.0000   1.0000   1.0000   1.0000   1.0000   1.0000   1.0000   1.0000
     1.0000   1.0000   1.0000   1.0000   0.0000   0.0000   0.0000   0.0000
     0.0000   0.0000   0.0000   0.0000   0.0000   0.0000

          k = 0.0000 0.2730 0.0000 (  4274 PWs)   bands (ev):

   -19.9195 -19.9176 -19.9105 -19.9082 -19.8971 -19.8826 -19.8782 -19.8716
   -19.8675 -19.8587 -11.6847 -10.9121  -5.5033  -4.6913  -1.8904  -1.5235
    -1.1082  -0.4483   0.4169   0.5675   3.1657   3.3197   4.0662   4.5083
     5.1179   5.2866   6.0304   7.3455   7.6430   8.3333

     occupation numbers 
     1.0000   1.0000   1.0000   1.0000   1.0000   1.0000   1.0000   1.0000
     1.0000   1.0000   1.0000   1.0000   1.0000   1.0000   1.0000   1.0000
     1.0000   1.0000   1.0000   1.0000   0.0000   0.0000   0.0000   0.0000
     0.0000   0.0000   0.0000   0.0000   0.0000   0.0000

          k = 0.0000 0.4095 0.0000 (  4308 PWs)   bands (ev):

   -19.9208 -19.9206 -19.9069 -19.9044 -19.8933 -19.8854 -19.8781 -19.8747
   -19.8641 -19.8593 -11.3990 -10.9502  -5.7698  -5.3081  -1.5027  -1.1564
    -0.7953  -0.3877   0.3995   0.9141   2.3380   3.3646   3.3915   3.6788
     4.0548   5.0037   6.2164   7.5062   8.4370   9.0279

     occupation numbers 
     1.0000   1.0000   1.0000   1.0000   1.0000   1.0000   1.0000   1.0000
     1.0000   1.0000   1.0000   1.0000   1.0000   1.0000   1.0000   1.0000
     1.0000   1.0000   1.0000   1.0000   0.0000   0.0000   0.0000   0.0000
     0.0000   0.0000   0.0000   0.0000   0.0000   0.0000

          k = 0.0000-0.5460 0.0000 (  4282 PWs)   bands (ev):

   -19.9219 -19.9219 -19.9038 -19.9038 -19.8891 -19.8891 -19.8769 -19.8769
   -19.8611 -19.8611 -11.1215 -11.1215  -5.7158  -5.7158  -1.0899  -1.0899
    -0.5850  -0.5850   0.7164   0.7164   2.4930   2.4930   3.3557   3.3557
     4.2857   4.2857   6.9532   6.9532   8.5151   8.5151

     occupation numbers 
     1.0000   1.0000   1.0000   1.0000   1.0000   1.0000   1.0000   1.0000
     1.0000   1.0000   1.0000   1.0000   1.0000   1.0000   1.0000   1.0000
     1.0000   1.0000   1.0000   1.0000   0.0000   0.0000   0.0000   0.0000
     0.0000   0.0000   0.0000   0.0000   0.0000   0.0000

          k = 0.1250 0.0000 0.0000 (  4265 PWs)   bands (ev):

   -19.9249 -19.9148 -19.9132 -19.9082 -19.8997 -19.8806 -19.8768 -19.8707
   -19.8680 -19.8593 -11.9061 -10.9654  -5.2041  -4.1947  -2.0979  -1.5751
    -1.3075  -0.2313  -0.1949   0.6954   2.9345   4.5324   4.6173   5.0131
     5.1179   6.1657   6.1999   7.1537   7.4164   7.7871

     occupation numbers 
     1.0000   1.0000   1.0000   1.0000   1.0000   1.0000   1.0000   1.0000
     1.0000   1.0000   1.0000   1.0000   1.0000   1.0000   1.0000   1.0000
     1.0000   1.0000   1.0000   1.0000   0.0000   0.0000   0.0000   0.0000
     0.0000   0.0000   0.0000   0.0000   0.0000   0.0000

          k = 0.1250 0.1365 0.0000 (  4266 PWs)   bands (ev):

   -19.9228 -19.9149 -19.9126 -19.9098 -19.8984 -19.8810 -19.8773 -19.8697
   -19.8692 -19.8591 -11.8341 -10.9442  -5.2840  -4.3375  -2.0358  -1.9752
    -0.8655  -0.7140   0.3607   0.6928   3.0082   3.8057   4.6443   5.0560
     5.3334   5.6289   6.1073   7.3596   7.5993   8.0908

     occupation numbers 
     1.0000   1.0000   1.0000   1.0000   1.0000   1.0000   1.0000   1.0000
     1.0000   1.0000   1.0000   1.0000   1.0000   1.0000   1.0000   1.0000
     1.0000   1.0000   1.0000   1.0000   0.0000   0.0000   0.0000   0.0000
     0.0000   0.0000   0.0000   0.0000   0.0000   0.0000

          k = 0.1250 0.2730 0.0000 (  4275 PWs)   bands (ev):

   -19.9200 -19.9184 -19.9107 -19.9081 -19.8955 -19.8826 -19.8780 -19.8719
   -19.8671 -19.8590 -11.6341 -10.9099  -5.5033  -4.7518  -2.1502  -1.8384
    -0.8558  -0.4962   0.5890   0.6771   3.0277   3.1979   3.7474   4.7737
     5.3556   5.7661   5.9978   7.2869   7.8571   8.2210

     occupation numbers 
     1.0000   1.0000   1.0000   1.0000   1.0000   1.0000   1.0000   1.0000
     1.0000   1.0000   1.0000   1.0000   1.0000   1.0000   1.0000   1.0000
     1.0000   1.0000   1.0000   1.0000   0.0000   0.0000   0.0000   0.0000
     0.0000   0.0000   0.0000   0.0000   0.0000   0.0000

          k = 0.1250 0.4095 0.0000 (  4283 PWs)   bands (ev):

   -19.9219 -19.9218 -19.9067 -19.9041 -19.8921 -19.8852 -19.8780 -19.8747
   -19.8638 -19.8594 -11.3578 -10.9378  -5.6981  -5.2716  -1.8988  -1.5015
    -0.8164  -0.5230   0.3556   0.6983   2.7486   2.9298   3.7775   4.0710
     5.0674   5.1181   6.3159   7.2012   8.4901   8.7265

     occupation numbers 
     1.0000   1.0000   1.0000   1.0000   1.0000   1.0000   1.0000   1.0000
     1.0000   1.0000   1.0000   1.0000   1.0000   1.0000   1.0000   1.0000
     1.0000   1.0000   1.0000   1.0000   0.0000   0.0000   0.0000   0.0000
     0.0000   0.0000   0.0000   0.0000   0.0000   0.0000

          k = 0.1250-0.5460 0.0000 (  4296 PWs)   bands (ev):

   -19.9232 -19.9232 -19.9036 -19.9036 -19.8886 -19.8886 -19.8768 -19.8768
   -19.8610 -19.8610 -11.0944 -11.0944  -5.6386  -5.6386  -1.4174  -1.4174
    -0.8563  -0.8563   0.4978   0.4978   2.6942   2.6942   4.2205   4.2205
     4.4556   4.4556   6.9785   6.9785   8.1926   8.1926

     occupation numbers 
     1.0000   1.0000   1.0000   1.0000   1.0000   1.0000   1.0000   1.0000
     1.0000   1.0000   1.0000   1.0000   1.0000   1.0000   1.0000   1.0000
     1.0000   1.0000   1.0000   1.0000   0.0000   0.0000   0.0000   0.0000
     0.0000   0.0000   0.0000   0.0000   0.0000   0.0000

          k = 0.2500 0.0000 0.0000 (  4263 PWs)   bands (ev):

   -19.9232 -19.9152 -19.9140 -19.9101 -19.8952 -19.8809 -19.8756 -19.8698
   -19.8689 -19.8610 -11.7465 -10.9952  -5.6049  -4.8198  -1.8785  -1.0466
    -0.9906  -0.1255   0.4721   0.6096   3.1469   3.5326   4.3513   4.4931
     5.2084   5.2896   5.8743   7.1178   7.5211   8.3911

     occupation numbers 
     1.0000   1.0000   1.0000   1.0000   1.0000   1.0000   1.0000   1.0000
     1.0000   1.0000   1.0000   1.0000   1.0000   1.0000   1.0000   1.0000
     1.0000   1.0000   1.0000   1.0000   0.0000   0.0000   0.0000   0.0000
     0.0000   0.0000   0.0000   0.0000   0.0000   0.0000

          k = 0.2500 0.1365 0.0000 (  4256 PWs)   bands (ev):

   -19.9216 -19.9162 -19.9126 -19.9115 -19.8941 -19.8813 -19.8764 -19.8701
   -19.8686 -19.8606 -11.6791 -10.9695  -5.5718  -4.8364  -1.9439  -1.8147
    -0.7348  -0.3719   0.6919   0.8048   3.2132   3.2209   3.8680   4.8780
     5.3389   5.6001   5.9067   7.2697   7.9756   8.3250

     occupation numbers 
     1.0000   1.0000   1.0000   1.0000   1.0000   1.0000   1.0000   1.0000
     1.0000   1.0000   1.0000   1.0000   1.0000   1.0000   1.0000   1.0000
     1.0000   1.0000   1.0000   1.0000   0.0000   0.0000   0.0000   0.0000
     0.0000   0.0000   0.0000   0.0000   0.0000   0.0000

          k = 0.2500 0.2730 0.0000 (  4274 PWs)   bands (ev):

   -19.9214 -19.9204 -19.9107 -19.9079 -19.8919 -19.8827 -19.8775 -19.8725
   -19.8660 -19.8599 -11.4943 -10.9192  -5.5204  -4.9440  -2.5937  -1.7035
    -1.2609  -0.3193   0.1708   0.9394   2.9382   3.6427   3.7112   5.0911
     5.5810   6.0989   6.2468   6.8849   8.3234   8.9417

     occupation numbers 
     1.0000   1.0000   1.0000   1.0000   1.0000   1.0000   1.0000   1.0000
     1.0000   1.0000   1.0000   1.0000   1.0000   1.0000   1.0000   1.0000
     1.0000   1.0000   1.0000   1.0000   0.0000   0.0000   0.0000   0.0000
     0.0000   0.0000   0.0000   0.0000   0.0000   0.0000

          k = 0.2500 0.4095 0.0000 (  4289 PWs)   bands (ev):

   -19.9247 -19.9246 -19.9060 -19.9038 -19.8895 -19.8849 -19.8775 -19.8747
   -19.8631 -19.8597 -11.2473 -10.9155  -5.5078  -5.1899  -2.6661  -1.6143
    -1.4914  -0.6357  -0.3901   0.4906   3.1294   4.1667   4.2075   4.7810
     5.5376   6.2970   6.5881   6.6758   8.0927   8.6110

     occupation numbers 
     1.0000   1.0000   1.0000   1.0000   1.0000   1.0000   1.0000   1.0000
     1.0000   1.0000   1.0000   1.0000   1.0000   1.0000   1.0000   1.0000
     1.0000   1.0000   1.0000   1.0000   0.0000   0.0000   0.0000   0.0000
     0.0000   0.0000   0.0000   0.0000   0.0000   0.0000

          k = 0.2500-0.5460 0.0000 (  4280 PWs)   bands (ev):

   -19.9263 -19.9263 -19.9031 -19.9031 -19.8872 -19.8872 -19.8764 -19.8764
   -19.8607 -19.8607 -11.0270 -11.0270  -5.4257  -5.4257  -2.2000  -2.2000
    -1.1537  -1.1537  -0.1030  -0.1030   3.7554   3.7554   4.6710   4.6710
     5.7293   5.7293   6.8206   6.8206   7.9483   7.9483

     occupation numbers 
     1.0000   1.0000   1.0000   1.0000   1.0000   1.0000   1.0000   1.0000
     1.0000   1.0000   1.0000   1.0000   1.0000   1.0000   1.0000   1.0000
     1.0000   1.0000   1.0000   1.0000   0.0000   0.0000   0.0000   0.0000
     0.0000   0.0000   0.0000   0.0000   0.0000   0.0000

          k = 0.3750 0.0000 0.0000 (  4255 PWs)   bands (ev):

   -19.9208 -19.9164 -19.9145 -19.9124 -19.8897 -19.8821 -19.8739 -19.8702
   -19.8681 -19.8634 -11.5179 -11.0925  -5.8511  -5.4139  -1.5049  -0.7070
    -0.6702  -0.0988   0.5142   1.3814   2.6399   3.5694   3.7762   3.8348
     4.4187   4.8717   6.0326   7.3347   8.0959   8.3956

     occupation numbers 
     1.0000   1.0000   1.0000   1.0000   1.0000   1.0000   1.0000   1.0000
     1.0000   1.0000   1.0000   1.0000   1.0000   1.0000   1.0000   1.0000
     1.0000   1.0000   1.0000   1.0000   0.0000   0.0000   0.0000   0.0000
     0.0000   0.0000   0.0000   0.0000   0.0000   0.0000

          k = 0.3750 0.1365 0.0000 (  4260 PWs)   bands (ev):

   -19.9201 -19.9176 -19.9131 -19.9130 -19.8891 -19.8824 -19.8750 -19.8714
   -19.8669 -19.8626 -11.4588 -11.0577  -5.7642  -5.3554  -1.6231  -1.4589
    -0.7548  -0.5035   0.8327   0.9627   3.0753   3.3031   3.7605   4.3118
     5.0737   5.3311   6.1591   7.2209   8.2073   8.6661

     occupation numbers 
     1.0000   1.0000   1.0000   1.0000   1.0000   1.0000   1.0000   1.0000
     1.0000   1.0000   1.0000   1.0000   1.0000   1.0000   1.0000   1.0000
     1.0000   1.0000   1.0000   1.0000   0.0000   0.0000   0.0000   0.0000
     0.0000   0.0000   0.0000   0.0000   0.0000   0.0000

          k = 0.3750 0.2730 0.0000 (  4274 PWs)   bands (ev):

   -19.9229 -19.9224 -19.9101 -19.9082 -19.8879 -19.8833 -19.8764 -19.8735
   -19.8645 -19.8612 -11.3014 -10.9777  -5.5361  -5.2223  -2.5737  -1.6847
    -1.3875  -0.6022  -0.1879   0.5885   3.3093   4.2784   4.5728   4.7611
     5.5999   6.3372   6.5124   6.7434   8.1192   8.4013

     occupation numbers 
     1.0000   1.0000   1.0000   1.0000   1.0000   1.0000   1.0000   1.0000
     1.0000   1.0000   1.0000   1.0000   1.0000   1.0000   1.0000   1.0000
     1.0000   1.0000   1.0000   1.0000   0.0000   0.0000   0.0000   0.0000
     0.0000   0.0000   0.0000   0.0000   0.0000   0.0000

          k = 0.3750 0.4095 0.0000 (  4275 PWs)   bands (ev):

   -19.9274 -19.9273 -19.9052 -19.9039 -19.8869 -19.8848 -19.8766 -19.8748
   -19.8621 -19.8603 -11.1052 -10.9195  -5.2864  -5.1312  -3.0292  -2.2440
    -1.7538  -1.0778  -0.5043   0.0209   3.8979   4.6778   4.9752   5.5959
     6.1456   6.3435   6.7621   7.0300   7.7073   8.6403

     occupation numbers 
     1.0000   1.0000   1.0000   1.0000   1.0000   1.0000   1.0000   1.0000
     1.0000   1.0000   1.0000   1.0000   1.0000   1.0000   1.0000   1.0000
     1.0000   1.0000   1.0000   1.0000   0.0000   0.0000   0.0000   0.0000
     0.0000   0.0000   0.0000   0.0000   0.0000   0.0000

          k = 0.3750-0.5460 0.0000 (  4268 PWs)   bands (ev):

   -19.9294 -19.9294 -19.9028 -19.9028 -19.8861 -19.8861 -19.8758 -19.8758
   -19.8605 -19.8605 -10.9568 -10.9568  -5.1542  -5.1542  -2.8102  -2.8102
    -1.6794  -1.6794  -0.2876  -0.2876   4.3846   4.3846   5.5091   5.5091
     6.4138   6.4138   6.8925   6.8925   8.3040   8.3040

     occupation numbers 
     1.0000   1.0000   1.0000   1.0000   1.0000   1.0000   1.0000   1.0000
     1.0000   1.0000   1.0000   1.0000   1.0000   1.0000   1.0000   1.0000
     1.0000   1.0000   1.0000   1.0000   0.0000   0.0000   0.0000   0.0000
     0.0000   0.0000   0.0000   0.0000   0.0000   0.0000

          k =-0.5000 0.0000 0.0000 (  4248 PWs)   bands (ev):

   -19.9184 -19.9184 -19.9140 -19.9140 -19.8850 -19.8850 -19.8720 -19.8720
   -19.8659 -19.8659 -11.2779 -11.2779  -5.7891  -5.7891  -1.0469  -1.0469
    -0.2968  -0.2968   1.1468   1.1468   2.8898   2.8898   3.8637   3.8637
     4.1807   4.1807   6.6939   6.6939   8.4022   8.4022

     occupation numbers 
     1.0000   1.0000   1.0000   1.0000   1.0000   1.0000   1.0000   1.0000
     1.0000   1.0000   1.0000   1.0000   1.0000   1.0000   1.0000   1.0000
     1.0000   1.0000   1.0000   1.0000   0.0000   0.0000   0.0000   0.0000
     0.0000   0.0000   0.0000   0.0000   0.0000   0.0000

          k =-0.5000 0.1365 0.0000 (  4250 PWs)   bands (ev):

   -19.9188 -19.9188 -19.9136 -19.9136 -19.8849 -19.8849 -19.8732 -19.8732
   -19.8648 -19.8648 -11.2307 -11.2307  -5.6980  -5.6980  -1.2131  -1.2131
    -0.8872  -0.8872   0.9521   0.9521   3.1141   3.1141   4.2456   4.2456
     4.7767   4.7767   6.7828   6.7828   8.1967   8.1967

     occupation numbers 
     1.0000   1.0000   1.0000   1.0000   1.0000   1.0000   1.0000   1.0000
     1.0000   1.0000   1.0000   1.0000   1.0000   1.0000   1.0000   1.0000
     1.0000   1.0000   1.0000   1.0000   0.0000   0.0000   0.0000   0.0000
     0.0000   0.0000   0.0000   0.0000   0.0000   0.0000

          k =-0.5000 0.2730 0.0000 (  4246 PWs)   bands (ev):

   -19.9234 -19.9234 -19.9091 -19.9091 -19.8850 -19.8850 -19.8748 -19.8748
   -19.8628 -19.8628 -11.1112 -11.1112  -5.4507  -5.4507  -2.1805  -2.1805
    -1.0314  -1.0314   0.0492   0.0492   3.9731   3.9731   4.9685   4.9685
     5.8236   5.8236   6.8315   6.8315   7.8209   7.8209

     occupation numbers 
     1.0000   1.0000   1.0000   1.0000   1.0000   1.0000   1.0000   1.0000
     1.0000   1.0000   1.0000   1.0000   1.0000   1.0000   1.0000   1.0000
     1.0000   1.0000   1.0000   1.0000   0.0000   0.0000   0.0000   0.0000
     0.0000   0.0000   0.0000   0.0000   0.0000   0.0000

          k =-0.5000 0.4095 0.0000 (  4274 PWs)   bands (ev):

   -19.9285 -19.9285 -19.9044 -19.9044 -19.8854 -19.8854 -19.8754 -19.8754
   -19.8611 -19.8611 -10.9829 -10.9829  -5.1527  -5.1527  -2.8533  -2.8533
    -1.5631  -1.5631  -0.2942  -0.2942   4.3892   4.3892   5.7542   5.7542
     6.4948   6.4948   6.8102   6.8102   8.1796   8.1796

     occupation numbers 
     1.0000   1.0000   1.0000   1.0000   1.0000   1.0000   1.0000   1.0000
     1.0000   1.0000   1.0000   1.0000   1.0000   1.0000   1.0000   1.0000
     1.0000   1.0000   1.0000   1.0000   0.0000   0.0000   0.0000   0.0000
     0.0000   0.0000   0.0000   0.0000   0.0000   0.0000

          k =-0.5000-0.5460 0.0000 (  4220 PWs)   bands (ev):

   -19.9306 -19.9306 -19.9027 -19.9027 -19.8856 -19.8856 -19.8754 -19.8754
   -19.8604 -19.8604 -10.9269 -10.9269  -5.0118  -5.0118  -3.0438  -3.0438
    -1.9390  -1.9390  -0.3009  -0.3009   4.5242   4.5242   6.0120   6.0120
     6.2592   6.2592   7.3405   7.3405   8.6668   8.6668

     occupation numbers 
     1.0000   1.0000   1.0000   1.0000   1.0000   1.0000   1.0000   1.0000
     1.0000   1.0000   1.0000   1.0000   1.0000   1.0000   1.0000   1.0000
     1.0000   1.0000   1.0000   1.0000   0.0000   0.0000   0.0000   0.0000
     0.0000   0.0000   0.0000   0.0000   0.0000   0.0000

     highest occupied, lowest unoccupied level (ev):     1.3814    2.3380

!    total energy              =    -413.79720033 Ry
     estimated scf accuracy    <          6.5E-10 Ry

     The total energy is the sum of the following terms:
     one-electron contribution =    -507.91795218 Ry
     hartree contribution      =     269.47890114 Ry
     xc contribution           =    -154.41476707 Ry
     ewald contribution        =     -20.94338222 Ry

     convergence has been achieved in   9 iterations

     negative rho (up, down):  1.787E-04 0.000E+00

     Forces acting on atoms (cartesian axes, Ry/au):

     atom    1 type  1   force =    -0.00000515    0.00000000    0.00003084
     atom    2 type  2   force =     0.00000515   -0.00000000    0.00043633
     atom    3 type  2   force =     0.00000515    0.00000000   -0.00043633
     atom    4 type  1   force =    -0.00000515    0.00000000   -0.00003084
     The non-local contrib.  to forces
     atom    1 type  1   force =     0.24645774    0.00000000    0.44455684
     atom    2 type  2   force =    -0.07982420    0.00000000    0.19457272
     atom    3 type  2   force =    -0.07982420    0.00000000   -0.19457272
     atom    4 type  1   force =     0.24645774    0.00000000   -0.44455684
     The ionic contribution  to forces
     atom    1 type  1   force =    -1.27651050   -0.00000000  -27.71678011
     atom    2 type  2   force =     1.27651050    0.00000000  -12.75695712
     atom    3 type  2   force =     1.27651050    0.00000000   12.75695712
     atom    4 type  1   force =    -1.27651050    0.00000000   27.71678011
     The local contribution  to forces
     atom    1 type  1   force =     1.03379802    0.00000000   27.27996003
     atom    2 type  2   force =    -1.20553914   -0.00000000   12.58507453
     atom    3 type  2   force =    -1.20553914   -0.00000000  -12.58507454
     atom    4 type  1   force =     1.03379802    0.00000000  -27.27996003
     The core correction contribution to forces
     atom    1 type  1   force =    -0.00370884   -0.00000000   -0.00768262
     atom    2 type  2   force =     0.00881200   -0.00000000   -0.02225665
     atom    3 type  2   force =     0.00881200   -0.00000000    0.02225665
     atom    4 type  1   force =    -0.00370884   -0.00000000    0.00768262
     The Hubbard contrib.    to forces
     atom    1 type  1   force =     0.00000000    0.00000000    0.00000000
     atom    2 type  2   force =     0.00000000    0.00000000    0.00000000
     atom    3 type  2   force =     0.00000000    0.00000000    0.00000000
     atom    4 type  1   force =     0.00000000    0.00000000    0.00000000
     The SCF correction term to forces
     atom    1 type  1   force =    -0.00008182   -0.00000000   -0.00002331
     atom    2 type  2   force =     0.00000573   -0.00000000    0.00000284
     atom    3 type  2   force =     0.00000573   -0.00000000   -0.00000284
     atom    4 type  1   force =    -0.00008182   -0.00000000    0.00002331

     Total force =     0.000619     Total SCF correction =     0.000121
     SCF correction compared to forces is large: reduce conv_thr to get better values

     Writing output data file ./tmp/SnSe_monolayer.save/

     init_run     :      3.56s CPU      4.79s WALL (       1 calls)
     electrons    :     60.09s CPU     77.68s WALL (       1 calls)
     forces       :      2.85s CPU      3.31s WALL (       1 calls)

     Called by init_run:
     wfcinit      :      1.17s CPU      2.09s WALL (       1 calls)
     wfcinit:atom :      0.01s CPU      0.01s WALL (       9 calls)
     wfcinit:wfcr :      1.14s CPU      2.06s WALL (       9 calls)
     potinit      :      0.57s CPU      0.62s WALL (       1 calls)
     hinit0       :      1.03s CPU      1.05s WALL (       1 calls)

     Called by electrons:
     c_bands      :     46.55s CPU     59.54s WALL (       9 calls)
     sum_band     :      6.77s CPU      8.34s WALL (       9 calls)
     v_of_rho     :      1.64s CPU      1.90s WALL (      10 calls)
     v_h          :      0.13s CPU      0.16s WALL (      10 calls)
     v_xc         :      1.65s CPU      1.91s WALL (      11 calls)
     newd         :      5.50s CPU      8.55s WALL (      10 calls)
     mix_rho      :      0.28s CPU      0.27s WALL (       9 calls)

     Called by c_bands:
     init_us_2    :      0.32s CPU      0.28s WALL (     180 calls)
     cegterg      :     32.20s CPU     46.16s WALL (      81 calls)

     Called by sum_band:
     sum_band:wei :      0.03s CPU      0.02s WALL (       9 calls)
     sum_band:loo :      3.53s CPU      4.68s WALL (       9 calls)
     sum_band:buf :      0.03s CPU      0.02s WALL (      81 calls)
     sum_band:ini :      0.16s CPU      0.12s WALL (      81 calls)
     sum_band:cal :      1.61s CPU      2.86s WALL (      81 calls)
     sum_band:bec :      0.00s CPU      0.01s WALL (      81 calls)
     addusdens    :      2.68s CPU      3.12s WALL (       9 calls)
     addusd:skk   :      0.00s CPU      0.03s WALL (      18 calls)
     addusd:dgemm :      0.97s CPU      1.09s WALL (      18 calls)
     addusd:qvan2 :      1.40s CPU      1.32s WALL (      18 calls)

     Called by *egterg:
     cdiaghg      :      2.37s CPU      5.29s WALL (     356 calls)
     cegterg:over :      6.88s CPU     11.61s WALL (     275 calls)
     cegterg:upda :      0.95s CPU      1.90s WALL (     275 calls)
     cegterg:last :      1.47s CPU      1.98s WALL (     177 calls)
     h_psi        :     15.70s CPU     19.27s WALL (     365 calls)
     s_psi        :      1.28s CPU      1.40s WALL (     365 calls)
     g_psi        :      0.09s CPU      0.08s WALL (     275 calls)

     Called by h_psi:
     h_psi:calbec :      5.28s CPU      9.64s WALL (     365 calls)
     vloc_psi     :      9.08s CPU      8.15s WALL (     365 calls)
     add_vuspsi   :      1.27s CPU      1.41s WALL (     365 calls)

     General routines
     calbec       :      7.66s CPU     13.55s WALL (     482 calls)
     fft          :      1.44s CPU      1.54s WALL (     139 calls)
     ffts         :      0.02s CPU      0.03s WALL (      19 calls)
     fftw         :      9.23s CPU      8.34s WALL (   15206 calls)
     interpolate  :      0.11s CPU      0.12s WALL (      10 calls)

     Parallel routines
     fft_scatt_xy :      1.70s CPU      1.58s WALL (   15364 calls)
     fft_scatt_yz :      3.40s CPU      3.15s WALL (   15364 calls)

     PWSCF        :   1m 6.80s CPU   1m26.14s WALL


   This run was terminated on:  23: 0: 5  26May2026            

=------------------------------------------------------------------------------=
   JOB DONE.
=------------------------------------------------------------------------------=
