
     Program PWSCF v.6.7MaX starts on 26May2026 at 22:55:59 

     This program is part of the open-source Quantum ESPRESSO suite
     for quantum simulation of materials; please cite
         "P. Giannozzi et al., J. Phys.:Condens. Matter 21 395502 (2009);
         "P. Giannozzi et al., J. Phys.:Condens. Matter 29 465901 (2017);
          URL http://www.quantum-espresso.org", 
     in publications or presentations arising from this work. More details at
     http://www.quantum-espresso.org/quote

     Parallel version (MPI), running on     6 processors

     MPI processes distributed on     1 nodes
     K-points division:     npool     =       3
     R & G space division:  proc/nbgrp/npool/nimage =       2
     Waiting for input...
     Reading input from standard input

     Current dimensions of program PWSCF are:
     Max number of different atomic species (ntypx) = 10
     Max number of k-points (npk) =  40000
     Max angular momentum in pseudopotentials (lmaxx) =  3

     Subspace diagonalization in iterative solution of the eigenvalue problem:
     a serial algorithm will be used

     Message from routine setup:
     using ibrav=0 with symmetry is DISCOURAGED, use correct ibrav instead

     Parallelization info
     --------------------
     sticks:   dense  smooth     PW     G-vecs:    dense   smooth      PW
     Min         814     320     99                45032    11363    1897
     Max         815     321    100                45035    11366    1898
     Sum        1629     641    199                90067    22729    3795



     bravais-lattice index     =            0
     lattice parameter (alat)  =       8.6086  a.u.
     unit-cell volume          =    1025.8987 (a.u.)^3
     number of atoms/cell      =            4
     number of atomic types    =            2
     number of electrons       =        40.00
     number of Kohn-Sham states=           30
     kinetic-energy cutoff     =      30.0000  Ry
     charge density cutoff     =     300.0000  Ry
     scf convergence threshold =      1.0E-08
     mixing beta               =       0.7000
     number of iterations used =            8  plain     mixing
     Exchange-correlation= SLA  PW   PBE  PBE
                           (   1   4   3   4   0   0   0)

     celldm(1)=   8.608647  celldm(2)=   0.000000  celldm(3)=   0.000000
     celldm(4)=   0.000000  celldm(5)=   0.000000  celldm(6)=   0.000000

     crystal axes: (cart. coord. in units of alat)
               a(1) = (   1.000000   0.000000   0.000000 )  
               a(2) = (   0.000000   0.915684   0.000000 )  
               a(3) = (   0.000000   0.000000   1.756119 )  

     reciprocal axes: (cart. coord. in units 2 pi/alat)
               b(1) = (  1.000000  0.000000  0.000000 )  
               b(2) = (  0.000000  1.092079  0.000000 )  
               b(3) = (  0.000000  0.000000  0.569437 )  


     PseudoPot. # 1 for Sn read from file:
     ../pseudo/Sn_pbe_v1.uspp.F.UPF
     MD5 check sum: 4cf58ce39ec5d5d420df3dd08604eb00
     Pseudo is Ultrasoft + core correction, Zval = 14.0
     Generated by new atomic code, or converted to UPF format
     Using radial grid of  891 points,  6 beta functions with: 
                l(1) =   0
                l(2) =   0
                l(3) =   1
                l(4) =   1
                l(5) =   2
                l(6) =   2
     Q(r) pseudized with  6 coefficients,  rinner =    1.200   1.200   1.200
                                                       1.200   1.200

     PseudoPot. # 2 for Se read from file:
     ../pseudo/Se_pbe_v1.uspp.F.UPF
     MD5 check sum: 1b3568f3a8ae88f9a2a0ad0698632c85
     Pseudo is Ultrasoft + core correction, Zval =  6.0
     Generated by new atomic code, or converted to UPF format
     Using radial grid of  877 points,  6 beta functions with: 
                l(1) =   0
                l(2) =   0
                l(3) =   1
                l(4) =   1
                l(5) =   2
                l(6) =   2
     Q(r) pseudized with  8 coefficients,  rinner =    1.300   1.300   1.300
                                                       1.300   1.300

     atomic species   valence    mass     pseudopotential
        Sn            14.00   118.71000     Sn( 1.00)
        Se             6.00    78.97100     Se( 1.00)

      4 Sym. Ops. (no inversion) found ( 3 have fractional translation)


                                    s                        frac. trans.

      isym =  1     identity                                     

 cryst.   s( 1) = (     1          0          0      )
                  (     0          1          0      )
                  (     0          0          1      )

 cart.    s( 1) = (  1.0000000  0.0000000  0.0000000 )
                  (  0.0000000  1.0000000  0.0000000 )
                  (  0.0000000  0.0000000  1.0000000 )


      isym =  2     180 deg rotation - cart. axis [1,0,0]        

 cryst.   s( 2) = (     1          0          0      )    f =( -0.5000000 )
                  (     0         -1          0      )       (  0.0000000 )
                  (     0          0         -1      )       (  0.0000000 )

 cart.    s( 2) = (  1.0000000  0.0000000  0.0000000 )    f =( -0.5000000 )
                  (  0.0000000 -1.0000000  0.0000000 )       (  0.0000000 )
                  (  0.0000000  0.0000000 -1.0000000 )       (  0.0000000 )


      isym =  3     inv. 180 deg rotation - cart. axis [0,0,1]   

 cryst.   s( 3) = (     1          0          0      )    f =( -0.5000000 )
                  (     0          1          0      )       (  0.5000000 )
                  (     0          0         -1      )       (  0.0000000 )

 cart.    s( 3) = (  1.0000000  0.0000000  0.0000000 )    f =( -0.5000000 )
                  (  0.0000000  1.0000000  0.0000000 )       (  0.4578422 )
                  (  0.0000000  0.0000000 -1.0000000 )       (  0.0000000 )


      isym =  4     inv. 180 deg rotation - cart. axis [0,1,0]   

 cryst.   s( 4) = (     1          0          0      )    f =(  0.0000000 )
                  (     0         -1          0      )       (  0.5000000 )
                  (     0          0          1      )       (  0.0000000 )

 cart.    s( 4) = (  1.0000000  0.0000000  0.0000000 )    f =(  0.0000000 )
                  (  0.0000000 -1.0000000  0.0000000 )       (  0.4578422 )
                  (  0.0000000  0.0000000  1.0000000 )       (  0.0000000 )


   Cartesian axes

     site n.     atom                  positions (alat units)
         1           Sn  tau(   1) = (   0.0995059   0.6867633   0.5728336  )
         2           Se  tau(   2) = (   0.5295331   0.2289211   0.5870357  )
         3           Se  tau(   3) = (   0.0295331   0.6867633   1.1690833  )
         4           Sn  tau(   4) = (   0.5995059   0.2289211   1.1832854  )

   Crystallographic axes

     site n.     atom                  positions (cryst. coord.)
         1           Sn  tau(   1) = (  0.0995059  0.7500000  0.3261929  )
         2           Se  tau(   2) = (  0.5295331  0.2500000  0.3342801  )
         3           Se  tau(   3) = (  0.0295331  0.7500000  0.6657199  )
         4           Sn  tau(   4) = (  0.5995059  0.2500000  0.6738071  )

     number of k points=    25
                       cart. coord. in units 2pi/alat
        k(    1) = (   0.0000000   0.0000000   0.0000000), wk =   0.0312500
        k(    2) = (   0.0000000   0.1365099   0.0000000), wk =   0.0625000
        k(    3) = (   0.0000000   0.2730198   0.0000000), wk =   0.0625000
        k(    4) = (   0.0000000   0.4095298   0.0000000), wk =   0.0625000
        k(    5) = (   0.0000000  -0.5460397   0.0000000), wk =   0.0312500
        k(    6) = (   0.1250000   0.0000000   0.0000000), wk =   0.0625000
        k(    7) = (   0.1250000   0.1365099   0.0000000), wk =   0.1250000
        k(    8) = (   0.1250000   0.2730198   0.0000000), wk =   0.1250000
        k(    9) = (   0.1250000   0.4095298   0.0000000), wk =   0.1250000
        k(   10) = (   0.1250000  -0.5460397   0.0000000), wk =   0.0625000
        k(   11) = (   0.2500000   0.0000000   0.0000000), wk =   0.0625000
        k(   12) = (   0.2500000   0.1365099   0.0000000), wk =   0.1250000
        k(   13) = (   0.2500000   0.2730198   0.0000000), wk =   0.1250000
        k(   14) = (   0.2500000   0.4095298   0.0000000), wk =   0.1250000
        k(   15) = (   0.2500000  -0.5460397   0.0000000), wk =   0.0625000
        k(   16) = (   0.3750000   0.0000000   0.0000000), wk =   0.0625000
        k(   17) = (   0.3750000   0.1365099   0.0000000), wk =   0.1250000
        k(   18) = (   0.3750000   0.2730198   0.0000000), wk =   0.1250000
        k(   19) = (   0.3750000   0.4095298   0.0000000), wk =   0.1250000
        k(   20) = (   0.3750000  -0.5460397   0.0000000), wk =   0.0625000
        k(   21) = (  -0.5000000   0.0000000   0.0000000), wk =   0.0312500
        k(   22) = (  -0.5000000   0.1365099   0.0000000), wk =   0.0625000
        k(   23) = (  -0.5000000   0.2730198   0.0000000), wk =   0.0625000
        k(   24) = (  -0.5000000   0.4095298   0.0000000), wk =   0.0625000
        k(   25) = (  -0.5000000  -0.5460397   0.0000000), wk =   0.0312500

                       cryst. coord.
        k(    1) = (   0.0000000   0.0000000   0.0000000), wk =   0.0312500
        k(    2) = (   0.0000000   0.1250000   0.0000000), wk =   0.0625000
        k(    3) = (   0.0000000   0.2500000   0.0000000), wk =   0.0625000
        k(    4) = (   0.0000000   0.3750000   0.0000000), wk =   0.0625000
        k(    5) = (   0.0000000  -0.5000000   0.0000000), wk =   0.0312500
        k(    6) = (   0.1250000   0.0000000   0.0000000), wk =   0.0625000
        k(    7) = (   0.1250000   0.1250000   0.0000000), wk =   0.1250000
        k(    8) = (   0.1250000   0.2500000   0.0000000), wk =   0.1250000
        k(    9) = (   0.1250000   0.3750000   0.0000000), wk =   0.1250000
        k(   10) = (   0.1250000  -0.5000000   0.0000000), wk =   0.0625000
        k(   11) = (   0.2500000   0.0000000   0.0000000), wk =   0.0625000
        k(   12) = (   0.2500000   0.1250000   0.0000000), wk =   0.1250000
        k(   13) = (   0.2500000   0.2500000   0.0000000), wk =   0.1250000
        k(   14) = (   0.2500000   0.3750000   0.0000000), wk =   0.1250000
        k(   15) = (   0.2500000  -0.5000000   0.0000000), wk =   0.0625000
        k(   16) = (   0.3750000   0.0000000   0.0000000), wk =   0.0625000
        k(   17) = (   0.3750000   0.1250000   0.0000000), wk =   0.1250000
        k(   18) = (   0.3750000   0.2500000   0.0000000), wk =   0.1250000
        k(   19) = (   0.3750000   0.3750000   0.0000000), wk =   0.1250000
        k(   20) = (   0.3750000  -0.5000000   0.0000000), wk =   0.0625000
        k(   21) = (  -0.5000000   0.0000000   0.0000000), wk =   0.0312500
        k(   22) = (  -0.5000000   0.1250000   0.0000000), wk =   0.0625000
        k(   23) = (  -0.5000000   0.2500000   0.0000000), wk =   0.0625000
        k(   24) = (  -0.5000000   0.3750000   0.0000000), wk =   0.0625000
        k(   25) = (  -0.5000000  -0.5000000   0.0000000), wk =   0.0312500

     Dense  grid:    90067 G-vectors     FFT dimensions: (  48,  48,  90)

     Smooth grid:    22729 G-vectors     FFT dimensions: (  32,  30,  54)

     Dynamical RAM for                 wfc:       0.65 MB

     Dynamical RAM for     wfc (w. buffer):       6.51 MB

     Dynamical RAM for           str. fact:       1.37 MB

     Dynamical RAM for           local pot:       0.00 MB

     Dynamical RAM for          nlocal pot:       1.56 MB

     Dynamical RAM for                qrad:       2.78 MB

     Dynamical RAM for          rho,v,vnew:       4.43 MB

     Dynamical RAM for               rhoin:       1.48 MB

     Dynamical RAM for            rho*nmix:      10.99 MB

     Dynamical RAM for           G-vectors:       2.66 MB

     Dynamical RAM for          h,s,v(r/c):       0.16 MB

     Dynamical RAM for          <psi|beta>:       0.03 MB

     Dynamical RAM for                 psi:       1.30 MB

     Dynamical RAM for                hpsi:       1.30 MB

     Dynamical RAM for                spsi:       1.30 MB

     Dynamical RAM for      wfcinit/wfcrot:       1.32 MB

     Dynamical RAM for           addusdens:      43.52 MB

     Dynamical RAM for          addusforce:      43.87 MB

     Estimated static dynamical RAM per process >      37.82 MB

     Estimated max dynamical RAM per process >      81.69 MB

     Estimated total dynamical RAM >     490.15 MB

     Initial potential from superposition of free atoms

     starting charge   37.99977, renormalised to   40.00000
     Starting wfcs are   26 randomized atomic wfcs +    4 random wfcs

     total cpu time spent up to now is        3.6 secs

     Self-consistent Calculation

     iteration #  1     ecut=    30.00 Ry     beta= 0.70
     Davidson diagonalization with overlap
     ethr =  1.00E-02,  avg # of iterations =  6.0

     total cpu time spent up to now is       13.0 secs

     total energy              =    -413.23017860 Ry
     estimated scf accuracy    <       1.38916258 Ry

     iteration #  2     ecut=    30.00 Ry     beta= 0.70
     Davidson diagonalization with overlap
     ethr =  3.47E-03,  avg # of iterations =  2.0

     total cpu time spent up to now is       19.8 secs

     total energy              =    -413.62985699 Ry
     estimated scf accuracy    <       0.71513803 Ry

     iteration #  3     ecut=    30.00 Ry     beta= 0.70
     Davidson diagonalization with overlap
     ethr =  1.79E-03,  avg # of iterations =  2.0

     total cpu time spent up to now is       25.4 secs

     total energy              =    -413.81243476 Ry
     estimated scf accuracy    <       0.04086240 Ry

     iteration #  4     ecut=    30.00 Ry     beta= 0.70
     Davidson diagonalization with overlap
     ethr =  1.02E-04,  avg # of iterations =  3.1

     total cpu time spent up to now is       32.1 secs

     total energy              =    -413.81913102 Ry
     estimated scf accuracy    <       0.00069856 Ry

     iteration #  5     ecut=    30.00 Ry     beta= 0.70
     Davidson diagonalization with overlap
     ethr =  1.75E-06,  avg # of iterations =  5.9

     total cpu time spent up to now is       41.8 secs

     total energy              =    -413.81926624 Ry
     estimated scf accuracy    <       0.00011776 Ry

     iteration #  6     ecut=    30.00 Ry     beta= 0.70
     Davidson diagonalization with overlap
     ethr =  2.94E-07,  avg # of iterations =  3.6

     total cpu time spent up to now is       49.3 secs

     total energy              =    -413.81929026 Ry
     estimated scf accuracy    <       0.00001982 Ry

     iteration #  7     ecut=    30.00 Ry     beta= 0.70
     Davidson diagonalization with overlap
     ethr =  4.96E-08,  avg # of iterations =  2.0

     total cpu time spent up to now is       54.6 secs

     total energy              =    -413.81929307 Ry
     estimated scf accuracy    <       0.00000185 Ry

     iteration #  8     ecut=    30.00 Ry     beta= 0.70
     Davidson diagonalization with overlap
     ethr =  4.62E-09,  avg # of iterations =  2.1

     total cpu time spent up to now is       60.2 secs

     total energy              =    -413.81929360 Ry
     estimated scf accuracy    <       0.00000021 Ry

     iteration #  9     ecut=    30.00 Ry     beta= 0.70
     Davidson diagonalization with overlap
     ethr =  5.19E-10,  avg # of iterations =  2.0

     total cpu time spent up to now is       65.0 secs

     End of self-consistent calculation

          k = 0.0000 0.0000 0.0000 (  2849 PWs)   bands (ev):

   -17.1260 -17.1158 -17.1140 -17.1083 -17.1018 -17.0805 -17.0790 -17.0720
   -17.0691 -17.0595  -9.1722  -8.1649  -2.1553  -1.0792   0.5568   0.9481
     1.3968   2.2183   2.5273   3.5597   6.4231   7.3262   7.9116   8.3167
     8.3668   9.4623   9.6998  10.2510  10.5170  10.9382

     occupation numbers 
     1.0000   1.0000   1.0000   1.0000   1.0000   1.0000   1.0000   1.0000
     1.0000   1.0000   1.0000   1.0000   1.0000   1.0000   1.0000   1.0000
     1.0000   1.0000   1.0000   1.0000   0.0000   0.0000   0.0000   0.0000
     0.0000   0.0000   0.0000   0.0000   0.0000   0.0000

          k = 0.0000 0.1365 0.0000 (  2839 PWs)   bands (ev):

   -17.1237 -17.1155 -17.1137 -17.1099 -17.1004 -17.0809 -17.0793 -17.0711
   -17.0703 -17.0595  -9.0989  -8.1458  -2.3183  -1.3082   0.6078   1.0309
     1.4609   2.2410   2.7403   3.5065   6.4691   7.3909   7.6078   7.7477
     8.4682   8.9558   9.7574   9.7979  10.5788  11.0532

     occupation numbers 
     1.0000   1.0000   1.0000   1.0000   1.0000   1.0000   1.0000   1.0000
     1.0000   1.0000   1.0000   1.0000   1.0000   1.0000   1.0000   1.0000
     1.0000   1.0000   1.0000   1.0000   0.0000   0.0000   0.0000   0.0000
     0.0000   0.0000   0.0000   0.0000   0.0000   0.0000

          k = 0.0000 0.2730 0.0000 (  2834 PWs)   bands (ev):

   -17.1201 -17.1188 -17.1114 -17.1092 -17.0972 -17.0824 -17.0798 -17.0730
   -17.0686 -17.0597  -8.8944  -8.1179  -2.6783  -1.8748   0.8310   1.2743
     1.7033   2.3560   3.2063   3.3245   6.1683   6.6345   6.8935   7.3141
     7.9319   8.4245   9.7422  10.1908  10.7312  11.4198

     occupation numbers 
     1.0000   1.0000   1.0000   1.0000   1.0000   1.0000   1.0000   1.0000
     1.0000   1.0000   1.0000   1.0000   1.0000   1.0000   1.0000   1.0000
     1.0000   1.0000   1.0000   1.0000   0.0000   0.0000   0.0000   0.0000
     0.0000   0.0000   0.0000   0.0000   0.0000   0.0000

          k = 0.0000 0.4095 0.0000 (  2864 PWs)   bands (ev):

   -17.1220 -17.1215 -17.1076 -17.1052 -17.0933 -17.0853 -17.0796 -17.0760
   -17.0654 -17.0605  -8.6089  -8.1583  -2.9470  -2.4894   1.2293   1.6373
     1.9978   2.4130   3.1716   3.6973   5.1904   6.1901   6.2662   6.8381
     7.0134   8.0653   9.9733  10.5341  11.9840  12.0408

     occupation numbers 
     1.0000   1.0000   1.0000   1.0000   1.0000   1.0000   1.0000   1.0000
     1.0000   1.0000   1.0000   1.0000   1.0000   1.0000   1.0000   1.0000
     1.0000   1.0000   1.0000   1.0000   0.0000   0.0000   0.0000   0.0000
     0.0000   0.0000   0.0000   0.0000   0.0000   0.0000

          k = 0.0000-0.5460 0.0000 (  2866 PWs)   bands (ev):

   -17.1231 -17.1231 -17.1045 -17.1045 -17.0891 -17.0891 -17.0782 -17.0782
   -17.0624 -17.0624  -8.3311  -8.3311  -2.8949  -2.8949   1.6638   1.6638
     2.2074   2.2074   3.5141   3.5141   5.3238   5.3238   6.1808   6.1808
     7.5011   7.5011  10.3723  10.3723  12.4340  12.4340

     occupation numbers 
     1.0000   1.0000   1.0000   1.0000   1.0000   1.0000   1.0000   1.0000
     1.0000   1.0000   1.0000   1.0000   1.0000   1.0000   1.0000   1.0000
     1.0000   1.0000   1.0000   1.0000   0.0000   0.0000   0.0000   0.0000
     0.0000   0.0000   0.0000   0.0000   0.0000   0.0000

          k = 0.1250 0.0000 0.0000 (  2839 PWs)   bands (ev):

   -17.1254 -17.1158 -17.1143 -17.1090 -17.1001 -17.0805 -17.0785 -17.0717
   -17.0694 -17.0601  -9.1155  -8.1694  -2.3762  -1.3785   0.6139   1.2371
     1.4886   2.5760   2.5961   3.4625   6.4540   7.3979   7.4128   7.9407
     8.3837   9.0162   9.6718  10.0044  10.7337  10.8370

     occupation numbers 
     1.0000   1.0000   1.0000   1.0000   1.0000   1.0000   1.0000   1.0000
     1.0000   1.0000   1.0000   1.0000   1.0000   1.0000   1.0000   1.0000
     1.0000   1.0000   1.0000   1.0000   0.0000   0.0000   0.0000   0.0000
     0.0000   0.0000   0.0000   0.0000   0.0000   0.0000

          k = 0.1250 0.1365 0.0000 (  2840 PWs)   bands (ev):

   -17.1232 -17.1161 -17.1136 -17.1107 -17.0987 -17.0809 -17.0790 -17.0708
   -17.0706 -17.0601  -9.0436  -8.1488  -2.4567  -1.5214   0.6797   0.8270
     1.9417   2.0910   3.1516   3.4554   6.5138   6.6405   7.4507   8.1034
     8.4321   8.4357   9.6968  10.3206  10.5530  11.0287

     occupation numbers 
     1.0000   1.0000   1.0000   1.0000   1.0000   1.0000   1.0000   1.0000
     1.0000   1.0000   1.0000   1.0000   1.0000   1.0000   1.0000   1.0000
     1.0000   1.0000   1.0000   1.0000   0.0000   0.0000   0.0000   0.0000
     0.0000   0.0000   0.0000   0.0000   0.0000   0.0000

          k = 0.1250 0.2730 0.0000 (  2855 PWs)   bands (ev):

   -17.1207 -17.1196 -17.1115 -17.1090 -17.0957 -17.0825 -17.0797 -17.0732
   -17.0683 -17.0601  -8.8439  -8.1161  -2.6781  -1.9353   0.6511   0.8887
     1.9487   2.3032   3.3743   3.4423   5.8608   6.4410   6.7730   7.6358
     8.4099   8.5686   9.7707  10.0536  10.7078  11.8399

     occupation numbers 
     1.0000   1.0000   1.0000   1.0000   1.0000   1.0000   1.0000   1.0000
     1.0000   1.0000   1.0000   1.0000   1.0000   1.0000   1.0000   1.0000
     1.0000   1.0000   1.0000   1.0000   0.0000   0.0000   0.0000   0.0000
     0.0000   0.0000   0.0000   0.0000   0.0000   0.0000

          k = 0.1250 0.4095 0.0000 (  2861 PWs)   bands (ev):

   -17.1231 -17.1228 -17.1072 -17.1049 -17.0922 -17.0852 -17.0795 -17.0760
   -17.0651 -17.0606  -8.5678  -8.1461  -2.8752  -2.4533   0.9027   1.2398
     1.9880   2.2497   3.1400   3.4791   5.6233   5.7722   6.9145   7.0689
     7.9281   8.0907  10.0211  10.0271  12.0673  12.1591

     occupation numbers 
     1.0000   1.0000   1.0000   1.0000   1.0000   1.0000   1.0000   1.0000
     1.0000   1.0000   1.0000   1.0000   1.0000   1.0000   1.0000   1.0000
     1.0000   1.0000   1.0000   1.0000   0.0000   0.0000   0.0000   0.0000
     0.0000   0.0000   0.0000   0.0000   0.0000   0.0000

          k = 0.1250-0.5460 0.0000 (  2856 PWs)   bands (ev):

   -17.1244 -17.1244 -17.1042 -17.1042 -17.0886 -17.0886 -17.0781 -17.0781
   -17.0623 -17.0623  -8.3040  -8.3040  -2.8179  -2.8179   1.3711   1.3711
     1.9132   1.9132   3.2812   3.2812   5.5616   5.5616   7.0673   7.0673
     7.5903   7.5903  10.1993  10.1993  11.7491  11.7491

     occupation numbers 
     1.0000   1.0000   1.0000   1.0000   1.0000   1.0000   1.0000   1.0000
     1.0000   1.0000   1.0000   1.0000   1.0000   1.0000   1.0000   1.0000
     1.0000   1.0000   1.0000   1.0000   0.0000   0.0000   0.0000   0.0000
     0.0000   0.0000   0.0000   0.0000   0.0000   0.0000

          k = 0.2500 0.0000 0.0000 (  2847 PWs)   bands (ev):

   -17.1237 -17.1161 -17.1151 -17.1111 -17.0955 -17.0809 -17.0772 -17.0708
   -17.0703 -17.0619  -8.9561  -8.2010  -2.7793  -2.0009   0.8364   1.7494
     1.8211   2.6791   3.2311   3.3967   6.3981   6.6038   7.1724   7.2905
     8.1105   8.3625   9.6305   9.9899  10.7943  11.3952

     occupation numbers 
     1.0000   1.0000   1.0000   1.0000   1.0000   1.0000   1.0000   1.0000
     1.0000   1.0000   1.0000   1.0000   1.0000   1.0000   1.0000   1.0000
     1.0000   1.0000   1.0000   1.0000   0.0000   0.0000   0.0000   0.0000
     0.0000   0.0000   0.0000   0.0000   0.0000   0.0000

          k = 0.2500 0.1365 0.0000 (  2838 PWs)   bands (ev):

   -17.1221 -17.1174 -17.1135 -17.1124 -17.0944 -17.0813 -17.0780 -17.0714
   -17.0696 -17.0615  -8.8888  -8.1757  -2.7461  -2.0182   0.8580   0.9048
     2.0724   2.4195   3.4655   3.5896   6.0534   6.5740   6.7678   7.7906
     8.3769   8.4007   9.7023  10.2082  10.7706  11.8828

     occupation numbers 
     1.0000   1.0000   1.0000   1.0000   1.0000   1.0000   1.0000   1.0000
     1.0000   1.0000   1.0000   1.0000   1.0000   1.0000   1.0000   1.0000
     1.0000   1.0000   1.0000   1.0000   0.0000   0.0000   0.0000   0.0000
     0.0000   0.0000   0.0000   0.0000   0.0000   0.0000

          k = 0.2500 0.2730 0.0000 (  2860 PWs)   bands (ev):

   -17.1223 -17.1216 -17.1114 -17.1087 -17.0922 -17.0828 -17.0791 -17.0738
   -17.0672 -17.0610  -8.7042  -8.1266  -2.6951  -2.1268   0.2074   1.0456
     1.5339   2.4573   2.9575   3.7213   5.8968   6.4522   6.9781   8.0742
     8.4706   9.0544   9.5562   9.9069  11.7399  12.1233

     occupation numbers 
     1.0000   1.0000   1.0000   1.0000   1.0000   1.0000   1.0000   1.0000
     1.0000   1.0000   1.0000   1.0000   1.0000   1.0000   1.0000   1.0000
     1.0000   1.0000   1.0000   1.0000   0.0000   0.0000   0.0000   0.0000
     0.0000   0.0000   0.0000   0.0000   0.0000   0.0000

          k = 0.2500 0.4095 0.0000 (  2847 PWs)   bands (ev):

   -17.1258 -17.1258 -17.1064 -17.1044 -17.0898 -17.0852 -17.0789 -17.0758
   -17.0643 -17.0609  -8.4574  -8.1244  -2.6849  -2.3723   0.1366   1.1716
     1.3068   2.1452   2.3703   3.2636   6.0960   7.0609   7.3175   7.7300
     8.4162   9.0849   9.3899  10.0455  11.3958  12.2340

     occupation numbers 
     1.0000   1.0000   1.0000   1.0000   1.0000   1.0000   1.0000   1.0000
     1.0000   1.0000   1.0000   1.0000   1.0000   1.0000   1.0000   1.0000
     1.0000   1.0000   1.0000   1.0000   0.0000   0.0000   0.0000   0.0000
     0.0000   0.0000   0.0000   0.0000   0.0000   0.0000

          k = 0.2500-0.5460 0.0000 (  2848 PWs)   bands (ev):

   -17.1275 -17.1275 -17.1035 -17.1035 -17.0876 -17.0876 -17.0776 -17.0776
   -17.0620 -17.0620  -8.2369  -8.2369  -2.6058  -2.6058   0.6030   0.6030
     1.6398   1.6398   2.6537   2.6537   6.7288   6.7288   7.6517   7.6517
     8.5412   8.5412   9.6770   9.6770  11.6504  11.6504

     occupation numbers 
     1.0000   1.0000   1.0000   1.0000   1.0000   1.0000   1.0000   1.0000
     1.0000   1.0000   1.0000   1.0000   1.0000   1.0000   1.0000   1.0000
     1.0000   1.0000   1.0000   1.0000   0.0000   0.0000   0.0000   0.0000
     0.0000   0.0000   0.0000   0.0000   0.0000   0.0000

          k = 0.3750 0.0000 0.0000 (  2819 PWs)   bands (ev):

   -17.1214 -17.1171 -17.1156 -17.1134 -17.0900 -17.0822 -17.0754 -17.0717
   -17.0691 -17.0643  -8.7275  -8.3002  -3.0266  -2.5926   1.2163   2.0597
     2.1257   2.7016   3.3133   4.1693   5.4967   6.5568   6.6576   6.9600
     7.2424   7.9977   9.8411  10.6092  11.1102  12.5131

     occupation numbers 
     1.0000   1.0000   1.0000   1.0000   1.0000   1.0000   1.0000   1.0000
     1.0000   1.0000   1.0000   1.0000   1.0000   1.0000   1.0000   1.0000
     1.0000   1.0000   1.0000   1.0000   0.0000   0.0000   0.0000   0.0000
     0.0000   0.0000   0.0000   0.0000   0.0000   0.0000

          k = 0.3750 0.1365 0.0000 (  2830 PWs)   bands (ev):

   -17.1207 -17.1187 -17.1140 -17.1138 -17.0894 -17.0825 -17.0764 -17.0728
   -17.0679 -17.0636  -8.6685  -8.2657  -2.9398  -2.5347   1.1777   1.2672
     2.0520   2.2531   3.6239   3.7617   5.9744   6.1472   7.0332   7.2141
     8.0957   8.1379   9.9286  10.2369  11.5381  12.1096

     occupation numbers 
     1.0000   1.0000   1.0000   1.0000   1.0000   1.0000   1.0000   1.0000
     1.0000   1.0000   1.0000   1.0000   1.0000   1.0000   1.0000   1.0000
     1.0000   1.0000   1.0000   1.0000   0.0000   0.0000   0.0000   0.0000
     0.0000   0.0000   0.0000   0.0000   0.0000   0.0000

          k = 0.3750 0.2730 0.0000 (  2852 PWs)   bands (ev):

   -17.1239 -17.1237 -17.1105 -17.1088 -17.0883 -17.0837 -17.0777 -17.0746
   -17.0656 -17.0623  -8.5114  -8.1865  -2.7122  -2.4032   0.2284   1.1195
     1.3718   2.1678   2.5898   3.3702   6.3562   7.3648   7.4717   7.7199
     8.4678   9.1327   9.4775  10.0424  11.4377  12.0509

     occupation numbers 
     1.0000   1.0000   1.0000   1.0000   1.0000   1.0000   1.0000   1.0000
     1.0000   1.0000   1.0000   1.0000   1.0000   1.0000   1.0000   1.0000
     1.0000   1.0000   1.0000   1.0000   0.0000   0.0000   0.0000   0.0000
     0.0000   0.0000   0.0000   0.0000   0.0000   0.0000

          k = 0.3750 0.4095 0.0000 (  2859 PWs)   bands (ev):

   -17.1287 -17.1286 -17.1055 -17.1043 -17.0876 -17.0855 -17.0777 -17.0758
   -17.0633 -17.0615  -8.3155  -8.1291  -2.4643  -2.3137  -0.2257   0.5631
     1.0564   1.7273   2.2334   2.7741   7.0547   7.6957   7.8368   8.4273
     9.0188   9.0699   9.6700   9.8017  11.4170  12.1253

     occupation numbers 
     1.0000   1.0000   1.0000   1.0000   1.0000   1.0000   1.0000   1.0000
     1.0000   1.0000   1.0000   1.0000   1.0000   1.0000   1.0000   1.0000
     1.0000   1.0000   1.0000   1.0000   0.0000   0.0000   0.0000   0.0000
     0.0000   0.0000   0.0000   0.0000   0.0000   0.0000

          k = 0.3750-0.5460 0.0000 (  2848 PWs)   bands (ev):

   -17.1306 -17.1306 -17.1030 -17.1030 -17.0868 -17.0868 -17.0767 -17.0767
   -17.0617 -17.0617  -8.1670  -8.1670  -2.3356  -2.3356  -0.0048  -0.0048
     1.1392   1.1392   2.4513   2.4513   7.4628   7.4628   8.3469   8.3469
     9.1621   9.1621   9.7005   9.7005  11.8935  11.8935

     occupation numbers 
     1.0000   1.0000   1.0000   1.0000   1.0000   1.0000   1.0000   1.0000
     1.0000   1.0000   1.0000   1.0000   1.0000   1.0000   1.0000   1.0000
     1.0000   1.0000   1.0000   1.0000   0.0000   0.0000   0.0000   0.0000
     0.0000   0.0000   0.0000   0.0000   0.0000   0.0000

          k =-0.5000 0.0000 0.0000 (  2824 PWs)   bands (ev):

   -17.1190 -17.1190 -17.1151 -17.1151 -17.0853 -17.0853 -17.0735 -17.0735
   -17.0668 -17.0668  -8.4871  -8.4871  -2.9658  -2.9658   1.6864   1.6864
     2.5002   2.5002   3.9688   3.9688   5.6963   5.6963   6.6881   6.6881
     7.4490   7.4490  10.2895  10.2895  12.5399  12.5399

     occupation numbers 
     1.0000   1.0000   1.0000   1.0000   1.0000   1.0000   1.0000   1.0000
     1.0000   1.0000   1.0000   1.0000   1.0000   1.0000   1.0000   1.0000
     1.0000   1.0000   1.0000   1.0000   0.0000   0.0000   0.0000   0.0000
     0.0000   0.0000   0.0000   0.0000   0.0000   0.0000

          k =-0.5000 0.1365 0.0000 (  2810 PWs)   bands (ev):

   -17.1197 -17.1197 -17.1144 -17.1144 -17.0852 -17.0852 -17.0745 -17.0745
   -17.0658 -17.0658  -8.4399  -8.4399  -2.8751  -2.8751   1.5618   1.5618
     1.8793   1.8793   3.7488   3.7488   6.0076   6.0076   7.2873   7.2873
     7.7271   7.7271  10.2304  10.2304  11.8675  11.8675

     occupation numbers 
     1.0000   1.0000   1.0000   1.0000   1.0000   1.0000   1.0000   1.0000
     1.0000   1.0000   1.0000   1.0000   1.0000   1.0000   1.0000   1.0000
     1.0000   1.0000   1.0000   1.0000   0.0000   0.0000   0.0000   0.0000
     0.0000   0.0000   0.0000   0.0000   0.0000   0.0000

          k =-0.5000 0.2730 0.0000 (  2838 PWs)   bands (ev):

   -17.1246 -17.1246 -17.1095 -17.1095 -17.0855 -17.0855 -17.0760 -17.0760
   -17.0639 -17.0639  -8.3208  -8.3208  -2.6290  -2.6290   0.6230   0.6230
     1.7383   1.7383   2.8247   2.8247   7.0964   7.0964   7.8450   7.8450
     8.6259   8.6259   9.7823   9.7823  11.5406  11.5406

     occupation numbers 
     1.0000   1.0000   1.0000   1.0000   1.0000   1.0000   1.0000   1.0000
     1.0000   1.0000   1.0000   1.0000   1.0000   1.0000   1.0000   1.0000
     1.0000   1.0000   1.0000   1.0000   0.0000   0.0000   0.0000   0.0000
     0.0000   0.0000   0.0000   0.0000   0.0000   0.0000

          k =-0.5000 0.4095 0.0000 (  2854 PWs)   bands (ev):

   -17.1298 -17.1298 -17.1047 -17.1047 -17.0862 -17.0862 -17.0764 -17.0764
   -17.0623 -17.0623  -8.1931  -8.1931  -2.3332  -2.3332  -0.0476  -0.0476
     1.2516   1.2516   2.4463   2.4463   7.4865   7.4865   8.6130   8.6130
     9.2435   9.2435   9.6054   9.6054  11.8164  11.8164

     occupation numbers 
     1.0000   1.0000   1.0000   1.0000   1.0000   1.0000   1.0000   1.0000
     1.0000   1.0000   1.0000   1.0000   1.0000   1.0000   1.0000   1.0000
     1.0000   1.0000   1.0000   1.0000   0.0000   0.0000   0.0000   0.0000
     0.0000   0.0000   0.0000   0.0000   0.0000   0.0000

          k =-0.5000-0.5460 0.0000 (  2812 PWs)   bands (ev):

   -17.1319 -17.1319 -17.1028 -17.1028 -17.0865 -17.0865 -17.0763 -17.0763
   -17.0616 -17.0616  -8.1372  -8.1372  -2.1940  -2.1940  -0.2376  -0.2376
     0.8839   0.8839   2.4370   2.4370   7.5421   7.5421   8.9452   8.9452
     8.9988   8.9988  10.1402  10.1402  12.0023  12.0023

     occupation numbers 
     1.0000   1.0000   1.0000   1.0000   1.0000   1.0000   1.0000   1.0000
     1.0000   1.0000   1.0000   1.0000   1.0000   1.0000   1.0000   1.0000
     1.0000   1.0000   1.0000   1.0000   0.0000   0.0000   0.0000   0.0000
     0.0000   0.0000   0.0000   0.0000   0.0000   0.0000

     highest occupied, lowest unoccupied level (ev):     4.1693    5.1904

!    total energy              =    -413.81929364 Ry
     estimated scf accuracy    <          6.9E-10 Ry

     The total energy is the sum of the following terms:
     one-electron contribution =    -230.60019431 Ry
     hartree contribution      =     134.91336339 Ry
     xc contribution           =    -154.39034780 Ry
     ewald contribution        =    -163.74211492 Ry

     convergence has been achieved in   9 iterations

     Forces acting on atoms (cartesian axes, Ry/au):

     atom    1 type  1   force =    -0.00116316    0.00000000   -0.00710061
     atom    2 type  2   force =     0.00116316   -0.00000000   -0.00444763
     atom    3 type  2   force =     0.00116316    0.00000000    0.00444763
     atom    4 type  1   force =    -0.00116316    0.00000000    0.00710061
     The non-local contrib.  to forces
     atom    1 type  1   force =     0.25201810    0.00000000    0.40555435
     atom    2 type  2   force =    -0.08341612    0.00000000    0.18273857
     atom    3 type  2   force =    -0.08341612    0.00000000   -0.18273857
     atom    4 type  1   force =     0.25201810    0.00000000   -0.40555435
     The ionic contribution  to forces
     atom    1 type  1   force =    -1.26752833    0.00000000  -15.74824197
     atom    2 type  2   force =     1.26752833   -0.00000000   -7.82760405
     atom    3 type  2   force =     1.26752833    0.00000000    7.82760405
     atom    4 type  1   force =    -1.26752833   -0.00000000   15.74824197
     The local contribution  to forces
     atom    1 type  1   force =     1.01829385    0.00000000   15.34170188
     atom    2 type  2   force =    -1.19222746    0.00000000    7.66117557
     atom    3 type  2   force =    -1.19222746    0.00000000   -7.66117557
     atom    4 type  1   force =     1.01829385    0.00000000  -15.34170188
     The core correction contribution to forces
     atom    1 type  1   force =    -0.00391308   -0.00000000   -0.00608744
     atom    2 type  2   force =     0.00925034    0.00000000   -0.02075778
     atom    3 type  2   force =     0.00925034    0.00000000    0.02075778
     atom    4 type  1   force =    -0.00391308    0.00000000    0.00608744
     The Hubbard contrib.    to forces
     atom    1 type  1   force =     0.00000000    0.00000000    0.00000000
     atom    2 type  2   force =     0.00000000    0.00000000    0.00000000
     atom    3 type  2   force =     0.00000000    0.00000000    0.00000000
     atom    4 type  1   force =     0.00000000    0.00000000    0.00000000
     The SCF correction term to forces
     atom    1 type  1   force =    -0.00005778    0.00000000   -0.00002744
     atom    2 type  2   force =     0.00000399   -0.00000000    0.00000007
     atom    3 type  2   force =     0.00000399   -0.00000000   -0.00000007
     atom    4 type  1   force =    -0.00005778   -0.00000000    0.00002744

     Total force =     0.012075     Total SCF correction =     0.000091

     Writing output data file ./tmp/SnSe_monolayer.save/

     init_run     :      2.64s CPU      3.37s WALL (       1 calls)
     electrons    :     46.50s CPU     61.49s WALL (       1 calls)
     forces       :      2.21s CPU      2.82s WALL (       1 calls)

     Called by init_run:
     wfcinit      :      1.06s CPU      1.35s WALL (       1 calls)
     wfcinit:atom :      0.01s CPU      0.01s WALL (       9 calls)
     wfcinit:wfcr :      1.03s CPU      1.32s WALL (       9 calls)
     potinit      :      0.38s CPU      0.41s WALL (       1 calls)
     hinit0       :      0.74s CPU      0.76s WALL (       1 calls)

     Called by electrons:
     c_bands      :     35.21s CPU     48.37s WALL (       9 calls)
     sum_band     :      5.36s CPU      5.96s WALL (       9 calls)
     v_of_rho     :      1.08s CPU      1.26s WALL (      10 calls)
     v_h          :      0.06s CPU      0.09s WALL (      10 calls)
     v_xc         :      1.11s CPU      1.28s WALL (      11 calls)
     newd         :      5.03s CPU      6.52s WALL (      10 calls)
     mix_rho      :      0.16s CPU      0.16s WALL (       9 calls)

     Called by c_bands:
     init_us_2    :      0.24s CPU      0.19s WALL (     180 calls)
     cegterg      :     27.47s CPU     41.53s WALL (      81 calls)

     Called by sum_band:
     sum_band:wei :      0.02s CPU      0.01s WALL (       9 calls)
     sum_band:loo :      2.92s CPU      3.30s WALL (       9 calls)
     sum_band:buf :      0.02s CPU      0.02s WALL (      81 calls)
     sum_band:ini :      0.11s CPU      0.08s WALL (      81 calls)
     sum_band:cal :      1.48s CPU      1.96s WALL (      81 calls)
     sum_band:bec :      0.00s CPU      0.00s WALL (      81 calls)
     addusdens    :      1.70s CPU      2.01s WALL (       9 calls)
     addusd:skk   :      0.00s CPU      0.01s WALL (      18 calls)
     addusd:dgemm :      0.64s CPU      0.74s WALL (      18 calls)
     addusd:qvan2 :      0.87s CPU      0.84s WALL (      18 calls)

     Called by *egterg:
     cdiaghg      :      4.31s CPU     10.56s WALL (     352 calls)
     cegterg:over :      5.90s CPU      8.67s WALL (     271 calls)
     cegterg:upda :      0.90s CPU      1.87s WALL (     271 calls)
     cegterg:last :      1.06s CPU      1.80s WALL (     172 calls)
     h_psi        :     11.28s CPU     13.55s WALL (     361 calls)
     s_psi        :      0.85s CPU      1.23s WALL (     361 calls)
     g_psi        :      0.06s CPU      0.05s WALL (     271 calls)

     Called by h_psi:
     h_psi:calbec :      4.21s CPU      6.73s WALL (     361 calls)
     vloc_psi     :      6.10s CPU      5.50s WALL (     361 calls)
     add_vuspsi   :      0.94s CPU      1.29s WALL (     361 calls)

     General routines
     calbec       :      6.02s CPU      9.48s WALL (     478 calls)
     fft          :      0.80s CPU      0.87s WALL (     139 calls)
     ffts         :      0.09s CPU      0.07s WALL (      19 calls)
     fftw         :      6.31s CPU      5.76s WALL (   14980 calls)
     interpolate  :      0.07s CPU      0.07s WALL (      10 calls)

     Parallel routines
     fft_scatt_xy :      1.14s CPU      1.03s WALL (   15138 calls)
     fft_scatt_yz :      1.93s CPU      1.82s WALL (   15138 calls)

     PWSCF        :     51.61s CPU   1m 7.98s WALL


   This run was terminated on:  22:57: 7  26May2026            

=------------------------------------------------------------------------------=
   JOB DONE.
=------------------------------------------------------------------------------=
