
     Program PWSCF v.6.7MaX starts on 26May2026 at 23: 9:13 

     This program is part of the open-source Quantum ESPRESSO suite
     for quantum simulation of materials; please cite
         "P. Giannozzi et al., J. Phys.:Condens. Matter 21 395502 (2009);
         "P. Giannozzi et al., J. Phys.:Condens. Matter 29 465901 (2017);
          URL http://www.quantum-espresso.org", 
     in publications or presentations arising from this work. More details at
     http://www.quantum-espresso.org/quote

     Parallel version (MPI), running on     6 processors

     MPI processes distributed on     1 nodes
     K-points division:     npool     =       3
     R & G space division:  proc/nbgrp/npool/nimage =       2
     Waiting for input...
     Reading input from standard input

     Current dimensions of program PWSCF are:
     Max number of different atomic species (ntypx) = 10
     Max number of k-points (npk) =  40000
     Max angular momentum in pseudopotentials (lmaxx) =  3

     Subspace diagonalization in iterative solution of the eigenvalue problem:
     a serial algorithm will be used

     Message from routine setup:
     using ibrav=0 with symmetry is DISCOURAGED, use correct ibrav instead

     Parallelization info
     --------------------
     sticks:   dense  smooth     PW     G-vecs:    dense   smooth      PW
     Min         814     320     99               135098    34099    5654
     Max         815     321    100               135105    34112    5655
     Sum        1629     641    199               270203    68211   11309



     bravais-lattice index     =            0
     lattice parameter (alat)  =       8.6086  a.u.
     unit-cell volume          =    3077.6961 (a.u.)^3
     number of atoms/cell      =            4
     number of atomic types    =            2
     number of electrons       =        40.00
     number of Kohn-Sham states=           30
     kinetic-energy cutoff     =      30.0000  Ry
     charge density cutoff     =     300.0000  Ry
     scf convergence threshold =      1.0E-08
     mixing beta               =       0.7000
     number of iterations used =            8  plain     mixing
     Exchange-correlation= SLA  PW   PBE  PBE
                           (   1   4   3   4   0   0   0)

     celldm(1)=   8.608647  celldm(2)=   0.000000  celldm(3)=   0.000000
     celldm(4)=   0.000000  celldm(5)=   0.000000  celldm(6)=   0.000000

     crystal axes: (cart. coord. in units of alat)
               a(1) = (   1.000000   0.000000   0.000000 )  
               a(2) = (   0.000000   0.915684   0.000000 )  
               a(3) = (   0.000000   0.000000   5.268357 )  

     reciprocal axes: (cart. coord. in units 2 pi/alat)
               b(1) = (  1.000000  0.000000  0.000000 )  
               b(2) = (  0.000000  1.092079  0.000000 )  
               b(3) = (  0.000000  0.000000  0.189812 )  


     PseudoPot. # 1 for Sn read from file:
     ../pseudo/Sn_pbe_v1.uspp.F.UPF
     MD5 check sum: 4cf58ce39ec5d5d420df3dd08604eb00
     Pseudo is Ultrasoft + core correction, Zval = 14.0
     Generated by new atomic code, or converted to UPF format
     Using radial grid of  891 points,  6 beta functions with: 
                l(1) =   0
                l(2) =   0
                l(3) =   1
                l(4) =   1
                l(5) =   2
                l(6) =   2
     Q(r) pseudized with  6 coefficients,  rinner =    1.200   1.200   1.200
                                                       1.200   1.200

     PseudoPot. # 2 for Se read from file:
     ../pseudo/Se_pbe_v1.uspp.F.UPF
     MD5 check sum: 1b3568f3a8ae88f9a2a0ad0698632c85
     Pseudo is Ultrasoft + core correction, Zval =  6.0
     Generated by new atomic code, or converted to UPF format
     Using radial grid of  877 points,  6 beta functions with: 
                l(1) =   0
                l(2) =   0
                l(3) =   1
                l(4) =   1
                l(5) =   2
                l(6) =   2
     Q(r) pseudized with  8 coefficients,  rinner =    1.300   1.300   1.300
                                                       1.300   1.300

     atomic species   valence    mass     pseudopotential
        Sn            14.00   118.71000     Sn( 1.00)
        Se             6.00    78.97100     Se( 1.00)

      4 Sym. Ops. (no inversion) found ( 3 have fractional translation)


                                    s                        frac. trans.

      isym =  1     identity                                     

 cryst.   s( 1) = (     1          0          0      )
                  (     0          1          0      )
                  (     0          0          1      )

 cart.    s( 1) = (  1.0000000  0.0000000  0.0000000 )
                  (  0.0000000  1.0000000  0.0000000 )
                  (  0.0000000  0.0000000  1.0000000 )


      isym =  2     180 deg rotation - cart. axis [1,0,0]        

 cryst.   s( 2) = (     1          0          0      )    f =( -0.5000000 )
                  (     0         -1          0      )       (  0.0000000 )
                  (     0          0         -1      )       (  0.0000000 )

 cart.    s( 2) = (  1.0000000  0.0000000  0.0000000 )    f =( -0.5000000 )
                  (  0.0000000 -1.0000000  0.0000000 )       (  0.0000000 )
                  (  0.0000000  0.0000000 -1.0000000 )       (  0.0000000 )


      isym =  3     inv. 180 deg rotation - cart. axis [0,0,1]   

 cryst.   s( 3) = (     1          0          0      )    f =( -0.5000000 )
                  (     0          1          0      )       (  0.5000000 )
                  (     0          0         -1      )       (  0.0000000 )

 cart.    s( 3) = (  1.0000000  0.0000000  0.0000000 )    f =( -0.5000000 )
                  (  0.0000000  1.0000000  0.0000000 )       (  0.4578422 )
                  (  0.0000000  0.0000000 -1.0000000 )       (  0.0000000 )


      isym =  4     inv. 180 deg rotation - cart. axis [0,1,0]   

 cryst.   s( 4) = (     1          0          0      )    f =(  0.0000000 )
                  (     0         -1          0      )       (  0.5000000 )
                  (     0          0          1      )       (  0.0000000 )

 cart.    s( 4) = (  1.0000000  0.0000000  0.0000000 )    f =(  0.0000000 )
                  (  0.0000000 -1.0000000  0.0000000 )       (  0.4578422 )
                  (  0.0000000  0.0000000  1.0000000 )       (  0.0000000 )


   Cartesian axes

     site n.     atom                  positions (alat units)
         1           Sn  tau(   1) = (   0.0995059   0.6867633   2.3289526  )
         2           Se  tau(   2) = (   0.5295331   0.2289211   2.3431546  )
         3           Se  tau(   3) = (   0.0295331   0.6867633   2.9252023  )
         4           Sn  tau(   4) = (   0.5995059   0.2289211   2.9394044  )

   Crystallographic axes

     site n.     atom                  positions (cryst. coord.)
         1           Sn  tau(   1) = (  0.0995059  0.7500000  0.4420643  )
         2           Se  tau(   2) = (  0.5295331  0.2500000  0.4447600  )
         3           Se  tau(   3) = (  0.0295331  0.7500000  0.5552400  )
         4           Sn  tau(   4) = (  0.5995059  0.2500000  0.5579357  )

     number of k points=    25
                       cart. coord. in units 2pi/alat
        k(    1) = (   0.0000000   0.0000000   0.0000000), wk =   0.0312500
        k(    2) = (   0.0000000   0.1365099   0.0000000), wk =   0.0625000
        k(    3) = (   0.0000000   0.2730198   0.0000000), wk =   0.0625000
        k(    4) = (   0.0000000   0.4095298   0.0000000), wk =   0.0625000
        k(    5) = (   0.0000000  -0.5460397   0.0000000), wk =   0.0312500
        k(    6) = (   0.1250000   0.0000000   0.0000000), wk =   0.0625000
        k(    7) = (   0.1250000   0.1365099   0.0000000), wk =   0.1250000
        k(    8) = (   0.1250000   0.2730198   0.0000000), wk =   0.1250000
        k(    9) = (   0.1250000   0.4095298   0.0000000), wk =   0.1250000
        k(   10) = (   0.1250000  -0.5460397   0.0000000), wk =   0.0625000
        k(   11) = (   0.2500000   0.0000000   0.0000000), wk =   0.0625000
        k(   12) = (   0.2500000   0.1365099   0.0000000), wk =   0.1250000
        k(   13) = (   0.2500000   0.2730198   0.0000000), wk =   0.1250000
        k(   14) = (   0.2500000   0.4095298   0.0000000), wk =   0.1250000
        k(   15) = (   0.2500000  -0.5460397   0.0000000), wk =   0.0625000
        k(   16) = (   0.3750000   0.0000000   0.0000000), wk =   0.0625000
        k(   17) = (   0.3750000   0.1365099   0.0000000), wk =   0.1250000
        k(   18) = (   0.3750000   0.2730198   0.0000000), wk =   0.1250000
        k(   19) = (   0.3750000   0.4095298   0.0000000), wk =   0.1250000
        k(   20) = (   0.3750000  -0.5460397   0.0000000), wk =   0.0625000
        k(   21) = (  -0.5000000   0.0000000   0.0000000), wk =   0.0312500
        k(   22) = (  -0.5000000   0.1365099   0.0000000), wk =   0.0625000
        k(   23) = (  -0.5000000   0.2730198   0.0000000), wk =   0.0625000
        k(   24) = (  -0.5000000   0.4095298   0.0000000), wk =   0.0625000
        k(   25) = (  -0.5000000  -0.5460397   0.0000000), wk =   0.0312500

                       cryst. coord.
        k(    1) = (   0.0000000   0.0000000   0.0000000), wk =   0.0312500
        k(    2) = (   0.0000000   0.1250000   0.0000000), wk =   0.0625000
        k(    3) = (   0.0000000   0.2500000   0.0000000), wk =   0.0625000
        k(    4) = (   0.0000000   0.3750000   0.0000000), wk =   0.0625000
        k(    5) = (   0.0000000  -0.5000000   0.0000000), wk =   0.0312500
        k(    6) = (   0.1250000   0.0000000   0.0000000), wk =   0.0625000
        k(    7) = (   0.1250000   0.1250000   0.0000000), wk =   0.1250000
        k(    8) = (   0.1250000   0.2500000   0.0000000), wk =   0.1250000
        k(    9) = (   0.1250000   0.3750000   0.0000000), wk =   0.1250000
        k(   10) = (   0.1250000  -0.5000000   0.0000000), wk =   0.0625000
        k(   11) = (   0.2500000   0.0000000   0.0000000), wk =   0.0625000
        k(   12) = (   0.2500000   0.1250000   0.0000000), wk =   0.1250000
        k(   13) = (   0.2500000   0.2500000   0.0000000), wk =   0.1250000
        k(   14) = (   0.2500000   0.3750000   0.0000000), wk =   0.1250000
        k(   15) = (   0.2500000  -0.5000000   0.0000000), wk =   0.0625000
        k(   16) = (   0.3750000   0.0000000   0.0000000), wk =   0.0625000
        k(   17) = (   0.3750000   0.1250000   0.0000000), wk =   0.1250000
        k(   18) = (   0.3750000   0.2500000   0.0000000), wk =   0.1250000
        k(   19) = (   0.3750000   0.3750000   0.0000000), wk =   0.1250000
        k(   20) = (   0.3750000  -0.5000000   0.0000000), wk =   0.0625000
        k(   21) = (  -0.5000000   0.0000000   0.0000000), wk =   0.0312500
        k(   22) = (  -0.5000000   0.1250000   0.0000000), wk =   0.0625000
        k(   23) = (  -0.5000000   0.2500000   0.0000000), wk =   0.0625000
        k(   24) = (  -0.5000000   0.3750000   0.0000000), wk =   0.0625000
        k(   25) = (  -0.5000000  -0.5000000   0.0000000), wk =   0.0312500

     Dense  grid:   270203 G-vectors     FFT dimensions: (  48,  48, 256)

     Smooth grid:    68211 G-vectors     FFT dimensions: (  32,  30, 160)

     Dynamical RAM for                 wfc:       1.95 MB

     Dynamical RAM for     wfc (w. buffer):      19.55 MB

     Dynamical RAM for           str. fact:       4.12 MB

     Dynamical RAM for           local pot:       0.00 MB

     Dynamical RAM for          nlocal pot:       4.69 MB

     Dynamical RAM for                qrad:       2.78 MB

     Dynamical RAM for          rho,v,vnew:      12.93 MB

     Dynamical RAM for               rhoin:       4.31 MB

     Dynamical RAM for            rho*nmix:      32.98 MB

     Dynamical RAM for           G-vectors:       7.99 MB

     Dynamical RAM for          h,s,v(r/c):       0.16 MB

     Dynamical RAM for          <psi|beta>:       0.03 MB

     Dynamical RAM for                 psi:       3.91 MB

     Dynamical RAM for                hpsi:       3.91 MB

     Dynamical RAM for                spsi:       3.91 MB

     Dynamical RAM for      wfcinit/wfcrot:       3.93 MB

     Dynamical RAM for           addusdens:     130.56 MB

     Dynamical RAM for          addusforce:     131.59 MB

     Estimated static dynamical RAM per process >     106.80 MB

     Estimated max dynamical RAM per process >     238.39 MB

     Estimated total dynamical RAM >       1.40 GB

     Initial potential from superposition of free atoms

     starting charge   37.99977, renormalised to   40.00000

     negative rho (up, down):  2.531E-03 0.000E+00
     Starting wfcs are   26 randomized atomic wfcs +    4 random wfcs

     total cpu time spent up to now is        8.7 secs

     Self-consistent Calculation

     iteration #  1     ecut=    30.00 Ry     beta= 0.70
     Davidson diagonalization with overlap
     ethr =  1.00E-02,  avg # of iterations =  8.2

     negative rho (up, down):  1.782E-03 0.000E+00

     total cpu time spent up to now is       31.3 secs

     total energy              =    -413.22157256 Ry
     estimated scf accuracy    <       1.36555677 Ry

     iteration #  2     ecut=    30.00 Ry     beta= 0.70
     Davidson diagonalization with overlap
     ethr =  3.41E-03,  avg # of iterations =  2.0

     negative rho (up, down):  1.947E-03 0.000E+00

     total cpu time spent up to now is       45.3 secs

     total energy              =    -413.61176543 Ry
     estimated scf accuracy    <       0.70253131 Ry

     iteration #  3     ecut=    30.00 Ry     beta= 0.70
     Davidson diagonalization with overlap
     ethr =  1.76E-03,  avg # of iterations =  2.0

     negative rho (up, down):  1.948E-03 0.000E+00

     total cpu time spent up to now is       59.2 secs

     total energy              =    -413.79046061 Ry
     estimated scf accuracy    <       0.03997455 Ry

     iteration #  4     ecut=    30.00 Ry     beta= 0.70
     Davidson diagonalization with overlap
     ethr =  9.99E-05,  avg # of iterations =  4.7

     negative rho (up, down):  1.990E-03 0.000E+00

     total cpu time spent up to now is       75.9 secs

     total energy              =    -413.79690622 Ry
     estimated scf accuracy    <       0.00076565 Ry

     iteration #  5     ecut=    30.00 Ry     beta= 0.70
     Davidson diagonalization with overlap
     ethr =  1.91E-06,  avg # of iterations =  9.2

     negative rho (up, down):  1.988E-03 0.000E+00

     total cpu time spent up to now is       98.5 secs

     total energy              =    -413.79706094 Ry
     estimated scf accuracy    <       0.00013244 Ry

     iteration #  6     ecut=    30.00 Ry     beta= 0.70
     Davidson diagonalization with overlap
     ethr =  3.31E-07,  avg # of iterations =  3.8

     negative rho (up, down):  1.985E-03 0.000E+00

     total cpu time spent up to now is      113.3 secs

     total energy              =    -413.79708903 Ry
     estimated scf accuracy    <       0.00002274 Ry

     iteration #  7     ecut=    30.00 Ry     beta= 0.70
     Davidson diagonalization with overlap
     ethr =  5.68E-08,  avg # of iterations =  2.5

     negative rho (up, down):  1.985E-03 0.000E+00

     total cpu time spent up to now is      126.5 secs

     total energy              =    -413.79709066 Ry
     estimated scf accuracy    <       0.00000212 Ry

     iteration #  8     ecut=    30.00 Ry     beta= 0.70
     Davidson diagonalization with overlap
     ethr =  5.31E-09,  avg # of iterations =  2.6

     negative rho (up, down):  1.985E-03 0.000E+00

     total cpu time spent up to now is      141.5 secs

     total energy              =    -413.79709131 Ry
     estimated scf accuracy    <       0.00000017 Ry

     iteration #  9     ecut=    30.00 Ry     beta= 0.70
     Davidson diagonalization with overlap
     ethr =  4.16E-10,  avg # of iterations =  2.0

     negative rho (up, down):  1.985E-03 0.000E+00

     total cpu time spent up to now is      157.9 secs

     End of self-consistent calculation

          k = 0.0000 0.0000 0.0000 (  8565 PWs)   bands (ev):

   -22.8033 -22.7925 -22.7905 -22.7852 -22.7792 -22.7583 -22.7549 -22.7487
   -22.7454 -22.7363 -14.8407 -13.8395  -7.8632  -6.7716  -5.0319  -4.7385
    -4.2773  -3.4524  -3.1589  -2.0950  -0.0341   1.6524   2.1233   2.2489
     2.6236   2.6447   2.6630   3.3307   3.7659   3.7716

     occupation numbers 
     1.0000   1.0000   1.0000   1.0000   1.0000   1.0000   1.0000   1.0000
     1.0000   1.0000   1.0000   1.0000   1.0000   1.0000   1.0000   1.0000
     1.0000   1.0000   1.0000   1.0000   0.0000   0.0000   0.0000   0.0000
     0.0000   0.0000   0.0000   0.0000   0.0000   0.0000

          k = 0.0000 0.1365 0.0000 (  8539 PWs)   bands (ev):

   -22.8010 -22.7920 -22.7904 -22.7867 -22.7778 -22.7588 -22.7553 -22.7477
   -22.7465 -22.7363 -14.7673 -13.8196  -8.0244  -7.0014  -4.9838  -4.6512
    -4.2207  -3.4379  -2.9358  -2.1393   0.0296   1.6721   1.9315   2.0252
     2.3324   2.7657   2.7719   3.2665   3.4304   3.8865

     occupation numbers 
     1.0000   1.0000   1.0000   1.0000   1.0000   1.0000   1.0000   1.0000
     1.0000   1.0000   1.0000   1.0000   1.0000   1.0000   1.0000   1.0000
     1.0000   1.0000   1.0000   1.0000   0.0000   0.0000   0.0000   0.0000
     0.0000   0.0000   0.0000   0.0000   0.0000   0.0000

          k = 0.0000 0.2730 0.0000 (  8548 PWs)   bands (ev):

   -22.7972 -22.7953 -22.7882 -22.7859 -22.7748 -22.7603 -22.7559 -22.7493
   -22.7452 -22.7364 -14.5626 -13.7900  -8.3813  -7.5692  -4.7682  -4.4014
    -3.9863  -3.3263  -2.4607  -2.3105   0.2576   0.4414   1.1886   1.6305
     2.2400   2.5546   2.9632   3.1512   3.3917   4.2090

     occupation numbers 
     1.0000   1.0000   1.0000   1.0000   1.0000   1.0000   1.0000   1.0000
     1.0000   1.0000   1.0000   1.0000   1.0000   1.0000   1.0000   1.0000
     1.0000   1.0000   1.0000   1.0000   0.0000   0.0000   0.0000   0.0000
     0.0000   0.0000   0.0000   0.0000   0.0000   0.0000

          k = 0.0000 0.4095 0.0000 (  8588 PWs)   bands (ev):

   -22.7985 -22.7983 -22.7846 -22.7821 -22.7710 -22.7631 -22.7558 -22.7524
   -22.7418 -22.7370 -14.2769 -13.8281  -8.6478  -8.1860  -4.3805  -4.0343
    -3.6733  -3.2657  -2.4786  -1.9635  -0.5403   0.4866   0.5066   0.7860
     1.1761   2.1328   3.4402   3.7681   3.9108   4.6408

     occupation numbers 
     1.0000   1.0000   1.0000   1.0000   1.0000   1.0000   1.0000   1.0000
     1.0000   1.0000   1.0000   1.0000   1.0000   1.0000   1.0000   1.0000
     1.0000   1.0000   1.0000   1.0000   0.0000   0.0000   0.0000   0.0000
     0.0000   0.0000   0.0000   0.0000   0.0000   0.0000

          k = 0.0000-0.5460 0.0000 (  8598 PWs)   bands (ev):

   -22.7997 -22.7997 -22.7815 -22.7815 -22.7669 -22.7669 -22.7546 -22.7546
   -22.7388 -22.7388 -13.9994 -13.9994  -8.5938  -8.5938  -3.9678  -3.9678
    -3.4629  -3.4629  -2.1616  -2.1616  -0.3851  -0.3851   0.4777   0.4777
     1.3941   1.3941   4.2223   4.2223   4.6176   4.6176

     occupation numbers 
     1.0000   1.0000   1.0000   1.0000   1.0000   1.0000   1.0000   1.0000
     1.0000   1.0000   1.0000   1.0000   1.0000   1.0000   1.0000   1.0000
     1.0000   1.0000   1.0000   1.0000   0.0000   0.0000   0.0000   0.0000
     0.0000   0.0000   0.0000   0.0000   0.0000   0.0000

          k = 0.1250 0.0000 0.0000 (  8525 PWs)   bands (ev):

   -22.8026 -22.7925 -22.7909 -22.7859 -22.7774 -22.7583 -22.7545 -22.7484
   -22.7457 -22.7370 -14.7839 -13.8432  -8.0821  -7.0726  -4.9755  -4.4531
    -4.1854  -3.1092  -3.0726  -2.1827   0.0205   1.6628   1.7393   2.2398
     2.2798   2.7226   2.7483   3.3165   3.3219   3.8465

     occupation numbers 
     1.0000   1.0000   1.0000   1.0000   1.0000   1.0000   1.0000   1.0000
     1.0000   1.0000   1.0000   1.0000   1.0000   1.0000   1.0000   1.0000
     1.0000   1.0000   1.0000   1.0000   0.0000   0.0000   0.0000   0.0000
     0.0000   0.0000   0.0000   0.0000   0.0000   0.0000

          k = 0.1250 0.1365 0.0000 (  8530 PWs)   bands (ev):

   -22.8005 -22.7926 -22.7903 -22.7875 -22.7761 -22.7588 -22.7550 -22.7474
   -22.7469 -22.7368 -14.7119 -13.8221  -8.1620  -7.2154  -4.9134  -4.8531
    -3.7435  -3.5919  -2.5169  -2.1853   0.0961   0.9278   1.7663   2.3155
     2.4722   2.7495   2.8143   2.8789   3.3074   3.9691

     occupation numbers 
     1.0000   1.0000   1.0000   1.0000   1.0000   1.0000   1.0000   1.0000
     1.0000   1.0000   1.0000   1.0000   1.0000   1.0000   1.0000   1.0000
     1.0000   1.0000   1.0000   1.0000   0.0000   0.0000   0.0000   0.0000
     0.0000   0.0000   0.0000   0.0000   0.0000   0.0000

          k = 0.1250 0.2730 0.0000 (  8551 PWs)   bands (ev):

   -22.7977 -22.7961 -22.7884 -22.7858 -22.7732 -22.7603 -22.7557 -22.7496
   -22.7448 -22.7367 -14.5120 -13.7877  -8.3813  -7.6298  -5.0281  -4.7162
    -3.7338  -3.3742  -2.2886  -2.2009   0.1497   0.2940   0.8663   1.9033
     2.5851   2.8880   3.0115   3.2562   3.4575   4.2475

     occupation numbers 
     1.0000   1.0000   1.0000   1.0000   1.0000   1.0000   1.0000   1.0000
     1.0000   1.0000   1.0000   1.0000   1.0000   1.0000   1.0000   1.0000
     1.0000   1.0000   1.0000   1.0000   0.0000   0.0000   0.0000   0.0000
     0.0000   0.0000   0.0000   0.0000   0.0000   0.0000

          k = 0.1250 0.4095 0.0000 (  8563 PWs)   bands (ev):

   -22.7996 -22.7995 -22.7844 -22.7819 -22.7698 -22.7629 -22.7557 -22.7524
   -22.7415 -22.7371 -14.2356 -13.8157  -8.5761  -8.1496  -4.7767  -4.3794
    -3.6943  -3.4009  -2.5221  -2.1797  -0.1314   0.0516   0.8799   1.1937
     2.1952   2.2405   3.5466   3.8432   4.0137   4.4366

     occupation numbers 
     1.0000   1.0000   1.0000   1.0000   1.0000   1.0000   1.0000   1.0000
     1.0000   1.0000   1.0000   1.0000   1.0000   1.0000   1.0000   1.0000
     1.0000   1.0000   1.0000   1.0000   0.0000   0.0000   0.0000   0.0000
     0.0000   0.0000   0.0000   0.0000   0.0000   0.0000

          k = 0.1250-0.5460 0.0000 (  8584 PWs)   bands (ev):

   -22.8010 -22.8010 -22.7813 -22.7813 -22.7663 -22.7663 -22.7545 -22.7545
   -22.7387 -22.7387 -13.9722 -13.9722  -8.5166  -8.5166  -4.2953  -4.2953
    -3.7342  -3.7342  -2.3801  -2.3801  -0.1848  -0.1848   1.3406   1.3406
     1.5684   1.5684   4.2303   4.2303   4.6880   4.6880

     occupation numbers 
     1.0000   1.0000   1.0000   1.0000   1.0000   1.0000   1.0000   1.0000
     1.0000   1.0000   1.0000   1.0000   1.0000   1.0000   1.0000   1.0000
     1.0000   1.0000   1.0000   1.0000   0.0000   0.0000   0.0000   0.0000
     0.0000   0.0000   0.0000   0.0000   0.0000   0.0000

          k = 0.2500 0.0000 0.0000 (  8509 PWs)   bands (ev):

   -22.8010 -22.7929 -22.7917 -22.7879 -22.7729 -22.7586 -22.7533 -22.7475
   -22.7466 -22.7387 -14.6244 -13.8731  -8.4828  -7.6977  -4.7562  -3.9245
    -3.8686  -3.0034  -2.4059  -2.2679   0.2379   0.6546   1.4733   1.6153
     2.4116   2.4648   2.8494   3.0623   3.2741   4.0759

     occupation numbers 
     1.0000   1.0000   1.0000   1.0000   1.0000   1.0000   1.0000   1.0000
     1.0000   1.0000   1.0000   1.0000   1.0000   1.0000   1.0000   1.0000
     1.0000   1.0000   1.0000   1.0000   0.0000   0.0000   0.0000   0.0000
     0.0000   0.0000   0.0000   0.0000   0.0000   0.0000

          k = 0.2500 0.1365 0.0000 (  8522 PWs)   bands (ev):

   -22.7993 -22.7940 -22.7903 -22.7892 -22.7718 -22.7590 -22.7541 -22.7478
   -22.7463 -22.7383 -14.5569 -13.8474  -8.4498  -7.7144  -4.8218  -4.6925
    -3.6127  -3.2499  -2.1862  -2.0728   0.3067   0.3430   0.9889   2.0154
     2.5530   2.7222   2.9367   3.1899   3.3824   4.1832

     occupation numbers 
     1.0000   1.0000   1.0000   1.0000   1.0000   1.0000   1.0000   1.0000
     1.0000   1.0000   1.0000   1.0000   1.0000   1.0000   1.0000   1.0000
     1.0000   1.0000   1.0000   1.0000   0.0000   0.0000   0.0000   0.0000
     0.0000   0.0000   0.0000   0.0000   0.0000   0.0000

          k = 0.2500 0.2730 0.0000 (  8554 PWs)   bands (ev):

   -22.7991 -22.7981 -22.7884 -22.7856 -22.7696 -22.7604 -22.7552 -22.7502
   -22.7437 -22.7376 -14.3721 -13.7971  -8.3983  -7.8220  -5.4717  -4.5814
    -4.1389  -3.1973  -2.7070  -1.9386   0.0532   0.7659   0.8145   2.2422
     2.7038   3.2608   3.3600   3.5584   3.7319   4.0682

     occupation numbers 
     1.0000   1.0000   1.0000   1.0000   1.0000   1.0000   1.0000   1.0000
     1.0000   1.0000   1.0000   1.0000   1.0000   1.0000   1.0000   1.0000
     1.0000   1.0000   1.0000   1.0000   0.0000   0.0000   0.0000   0.0000
     0.0000   0.0000   0.0000   0.0000   0.0000   0.0000

          k = 0.2500 0.4095 0.0000 (  8571 PWs)   bands (ev):

   -22.8024 -22.8023 -22.7837 -22.7815 -22.7672 -22.7626 -22.7552 -22.7524
   -22.7408 -22.7374 -14.1251 -13.7933  -8.3858  -8.0679  -5.5440  -4.4923
    -4.3693  -3.5137  -3.2679  -2.3874   0.2462   1.2754   1.3289   1.9091
     2.6589   3.4184   3.7552   3.8449   4.2897   4.3132

     occupation numbers 
     1.0000   1.0000   1.0000   1.0000   1.0000   1.0000   1.0000   1.0000
     1.0000   1.0000   1.0000   1.0000   1.0000   1.0000   1.0000   1.0000
     1.0000   1.0000   1.0000   1.0000   0.0000   0.0000   0.0000   0.0000
     0.0000   0.0000   0.0000   0.0000   0.0000   0.0000

          k = 0.2500-0.5460 0.0000 (  8568 PWs)   bands (ev):

   -22.8041 -22.8041 -22.7808 -22.7808 -22.7650 -22.7650 -22.7541 -22.7541
   -22.7384 -22.7384 -13.9048 -13.9048  -8.3036  -8.3036  -5.0779  -5.0779
    -4.0317  -4.0317  -2.9809  -2.9809   0.8731   0.8731   1.7893   1.7893
     2.8531   2.8531   3.9846   3.9846   4.9392   4.9393

     occupation numbers 
     1.0000   1.0000   1.0000   1.0000   1.0000   1.0000   1.0000   1.0000
     1.0000   1.0000   1.0000   1.0000   1.0000   1.0000   1.0000   1.0000
     1.0000   1.0000   1.0000   1.0000   0.0000   0.0000   0.0000   0.0000
     0.0000   0.0000   0.0000   0.0000   0.0000   0.0000

          k = 0.3750 0.0000 0.0000 (  8521 PWs)   bands (ev):

   -22.7986 -22.7941 -22.7922 -22.7901 -22.7674 -22.7598 -22.7516 -22.7480
   -22.7458 -22.7411 -14.3958 -13.9703  -8.7291  -8.2919  -4.3827  -3.5850
    -3.5481  -2.9767  -2.3640  -1.4960  -0.2385   0.6662   0.8987   0.9568
     1.5407   1.9949   3.2502   3.5874   3.7256   4.4863

     occupation numbers 
     1.0000   1.0000   1.0000   1.0000   1.0000   1.0000   1.0000   1.0000
     1.0000   1.0000   1.0000   1.0000   1.0000   1.0000   1.0000   1.0000
     1.0000   1.0000   1.0000   1.0000   0.0000   0.0000   0.0000   0.0000
     0.0000   0.0000   0.0000   0.0000   0.0000   0.0000

          k = 0.3750 0.1365 0.0000 (  8522 PWs)   bands (ev):

   -22.7978 -22.7954 -22.7908 -22.7908 -22.7668 -22.7601 -22.7527 -22.7491
   -22.7446 -22.7403 -14.3367 -13.9355  -8.6422  -8.2334  -4.5010  -4.3367
    -3.6328  -3.3815  -2.0450  -1.9154   0.1930   0.4248   0.8634   1.4349
     2.1972   2.4536   3.3810   3.6983   3.8525   4.4426

     occupation numbers 
     1.0000   1.0000   1.0000   1.0000   1.0000   1.0000   1.0000   1.0000
     1.0000   1.0000   1.0000   1.0000   1.0000   1.0000   1.0000   1.0000
     1.0000   1.0000   1.0000   1.0000   0.0000   0.0000   0.0000   0.0000
     0.0000   0.0000   0.0000   0.0000   0.0000   0.0000

          k = 0.3750 0.2730 0.0000 (  8534 PWs)   bands (ev):

   -22.8006 -22.8002 -22.7878 -22.7860 -22.7656 -22.7610 -22.7541 -22.7512
   -22.7422 -22.7389 -14.1792 -13.8556  -8.4141  -8.1003  -5.4517  -4.5627
    -4.2654  -3.4802  -3.0657  -2.2894   0.4225   1.3896   1.6912   1.8906
     2.7235   3.4585   3.7560   3.7957   4.2035   4.2515

     occupation numbers 
     1.0000   1.0000   1.0000   1.0000   1.0000   1.0000   1.0000   1.0000
     1.0000   1.0000   1.0000   1.0000   1.0000   1.0000   1.0000   1.0000
     1.0000   1.0000   1.0000   1.0000   0.0000   0.0000   0.0000   0.0000
     0.0000   0.0000   0.0000   0.0000   0.0000   0.0000

          k = 0.3750 0.4095 0.0000 (  8543 PWs)   bands (ev):

   -22.8052 -22.8050 -22.7829 -22.7816 -22.7647 -22.7625 -22.7542 -22.7525
   -22.7398 -22.7380 -13.9831 -13.7973  -8.1644  -8.0091  -5.9072  -5.1219
    -4.6318  -3.9558  -3.3822  -2.8571   1.0093   1.7987   2.0956   2.7203
     3.2723   3.4607   3.9734   4.1578   4.6123   4.7670

     occupation numbers 
     1.0000   1.0000   1.0000   1.0000   1.0000   1.0000   1.0000   1.0000
     1.0000   1.0000   1.0000   1.0000   1.0000   1.0000   1.0000   1.0000
     1.0000   1.0000   1.0000   1.0000   0.0000   0.0000   0.0000   0.0000
     0.0000   0.0000   0.0000   0.0000   0.0000   0.0000

          k = 0.3750-0.5460 0.0000 (  8532 PWs)   bands (ev):

   -22.8071 -22.8071 -22.7805 -22.7805 -22.7638 -22.7638 -22.7535 -22.7535
   -22.7382 -22.7382 -13.8346 -13.8346  -8.0322  -8.0322  -5.6882  -5.6882
    -4.5575  -4.5575  -3.1656  -3.1656   1.5006   1.5006   2.6312   2.6312
     3.5474   3.5474   4.0243   4.0243   5.4085   5.4086

     occupation numbers 
     1.0000   1.0000   1.0000   1.0000   1.0000   1.0000   1.0000   1.0000
     1.0000   1.0000   1.0000   1.0000   1.0000   1.0000   1.0000   1.0000
     1.0000   1.0000   1.0000   1.0000   0.0000   0.0000   0.0000   0.0000
     0.0000   0.0000   0.0000   0.0000   0.0000   0.0000

          k =-0.5000 0.0000 0.0000 (  8516 PWs)   bands (ev):

   -22.7961 -22.7961 -22.7917 -22.7917 -22.7627 -22.7627 -22.7497 -22.7497
   -22.7436 -22.7436 -14.1558 -14.1558  -8.6670  -8.6670  -3.9247  -3.9247
    -3.1747  -3.1747  -1.7313  -1.7313   0.0122   0.0122   0.9857   0.9857
     1.2851   1.2851   3.9547   3.9547   4.3107   4.3108

     occupation numbers 
     1.0000   1.0000   1.0000   1.0000   1.0000   1.0000   1.0000   1.0000
     1.0000   1.0000   1.0000   1.0000   1.0000   1.0000   1.0000   1.0000
     1.0000   1.0000   1.0000   1.0000   0.0000   0.0000   0.0000   0.0000
     0.0000   0.0000   0.0000   0.0000   0.0000   0.0000

          k =-0.5000 0.1365 0.0000 (  8478 PWs)   bands (ev):

   -22.7965 -22.7965 -22.7913 -22.7913 -22.7626 -22.7626 -22.7509 -22.7509
   -22.7425 -22.7425 -14.1085 -14.1085  -8.5759  -8.5759  -4.0910  -4.0910
    -3.7651  -3.7651  -1.9258  -1.9258   0.2338   0.2338   1.3580   1.3580
     1.8958   1.8958   4.0431   4.0431   4.4089   4.4089

     occupation numbers 
     1.0000   1.0000   1.0000   1.0000   1.0000   1.0000   1.0000   1.0000
     1.0000   1.0000   1.0000   1.0000   1.0000   1.0000   1.0000   1.0000
     1.0000   1.0000   1.0000   1.0000   0.0000   0.0000   0.0000   0.0000
     0.0000   0.0000   0.0000   0.0000   0.0000   0.0000

          k =-0.5000 0.2730 0.0000 (  8506 PWs)   bands (ev):

   -22.8011 -22.8011 -22.7868 -22.7868 -22.7627 -22.7627 -22.7525 -22.7525
   -22.7405 -22.7405 -13.9890 -13.9890  -8.3287  -8.3287  -5.0584  -5.0584
    -3.9094  -3.9094  -2.8287  -2.8287   1.0859   1.0859   2.0898   2.0898
     2.9502   2.9502   4.0200   4.0200   4.6977   4.6979

     occupation numbers 
     1.0000   1.0000   1.0000   1.0000   1.0000   1.0000   1.0000   1.0000
     1.0000   1.0000   1.0000   1.0000   1.0000   1.0000   1.0000   1.0000
     1.0000   1.0000   1.0000   1.0000   0.0000   0.0000   0.0000   0.0000
     0.0000   0.0000   0.0000   0.0000   0.0000   0.0000

          k =-0.5000 0.4095 0.0000 (  8526 PWs)   bands (ev):

   -22.8062 -22.8062 -22.7822 -22.7822 -22.7631 -22.7631 -22.7531 -22.7531
   -22.7388 -22.7388 -13.8608 -13.8608  -8.0307  -8.0307  -5.7313  -5.7313
    -4.4412  -4.4412  -3.1722  -3.1722   1.5044   1.5044   2.8752   2.8752
     3.6318   3.6318   3.9438   3.9438   5.2803   5.2803

     occupation numbers 
     1.0000   1.0000   1.0000   1.0000   1.0000   1.0000   1.0000   1.0000
     1.0000   1.0000   1.0000   1.0000   1.0000   1.0000   1.0000   1.0000
     1.0000   1.0000   1.0000   1.0000   0.0000   0.0000   0.0000   0.0000
     0.0000   0.0000   0.0000   0.0000   0.0000   0.0000

          k =-0.5000-0.5460 0.0000 (  8444 PWs)   bands (ev):

   -22.8083 -22.8083 -22.7804 -22.7804 -22.7633 -22.7633 -22.7531 -22.7531
   -22.7380 -22.7380 -13.8047 -13.8047  -7.8897  -7.8897  -5.9217  -5.9217
    -4.8171  -4.8171  -3.1789  -3.1789   1.6423   1.6423   3.1288   3.1288
     3.3915   3.3915   4.4679   4.4679   5.6619   5.6619

     occupation numbers 
     1.0000   1.0000   1.0000   1.0000   1.0000   1.0000   1.0000   1.0000
     1.0000   1.0000   1.0000   1.0000   1.0000   1.0000   1.0000   1.0000
     1.0000   1.0000   1.0000   1.0000   0.0000   0.0000   0.0000   0.0000
     0.0000   0.0000   0.0000   0.0000   0.0000   0.0000

     highest occupied, lowest unoccupied level (ev):    -1.4960   -0.5403

!    total energy              =    -413.79709135 Ry
     estimated scf accuracy    <          8.2E-10 Ry

     The total energy is the sum of the following terms:
     one-electron contribution =   -1531.51536729 Ry
     hartree contribution      =     777.04747408 Ry
     xc contribution           =    -154.41509977 Ry
     ewald contribution        =     495.08590164 Ry

     convergence has been achieved in   9 iterations

     negative rho (up, down):  1.985E-03 0.000E+00

     Forces acting on atoms (cartesian axes, Ry/au):

     atom    1 type  1   force =     0.00000217    0.00000000    0.00008016
     atom    2 type  2   force =    -0.00000217   -0.00000000    0.00046599
     atom    3 type  2   force =    -0.00000217    0.00000000   -0.00046599
     atom    4 type  1   force =     0.00000217    0.00000000   -0.00008016
     The non-local contrib.  to forces
     atom    1 type  1   force =     0.24647033    0.00000000    0.44494724
     atom    2 type  2   force =    -0.07977217    0.00000000    0.19454420
     atom    3 type  2   force =    -0.07977217    0.00000000   -0.19454420
     atom    4 type  1   force =     0.24647033    0.00000000   -0.44494724
     The ionic contribution  to forces
     atom    1 type  1   force =    -1.27654529   -0.00000000  -39.73255854
     atom    2 type  2   force =     1.27654529    0.00000000  -17.66710073
     atom    3 type  2   force =     1.27654529   -0.00000000   17.66710073
     atom    4 type  1   force =    -1.27654529   -0.00000000   39.73255853
     The local contribution  to forces
     atom    1 type  1   force =     1.03382642    0.00000000   39.29540757
     atom    2 type  2   force =    -1.20561915   -0.00000000   17.49526708
     atom    3 type  2   force =    -1.20561915    0.00000000  -17.49526709
     atom    4 type  1   force =     1.03382642    0.00000000  -39.29540757
     The core correction contribution to forces
     atom    1 type  1   force =    -0.00370930    0.00000000   -0.00769717
     atom    2 type  2   force =     0.00880246    0.00000000   -0.02224872
     atom    3 type  2   force =     0.00880246   -0.00000000    0.02224872
     atom    4 type  1   force =    -0.00370930    0.00000000    0.00769717
     The Hubbard contrib.    to forces
     atom    1 type  1   force =     0.00000000    0.00000000    0.00000000
     atom    2 type  2   force =     0.00000000    0.00000000    0.00000000
     atom    3 type  2   force =     0.00000000    0.00000000    0.00000000
     atom    4 type  1   force =     0.00000000    0.00000000    0.00000000
     The SCF correction term to forces
     atom    1 type  1   force =    -0.00007532    0.00000000   -0.00001895
     atom    2 type  2   force =     0.00000608    0.00000000    0.00000416
     atom    3 type  2   force =     0.00000608    0.00000000   -0.00000416
     atom    4 type  1   force =    -0.00007532    0.00000000    0.00001895

     Total force =     0.000669     Total SCF correction =     0.000110
     SCF correction compared to forces is large: reduce conv_thr to get better values

     Writing output data file ./tmp/SnSe_monolayer.save/

     init_run     :      6.97s CPU      8.38s WALL (       1 calls)
     electrons    :    124.20s CPU    149.25s WALL (       1 calls)
     forces       :      6.34s CPU      7.63s WALL (       1 calls)

     Called by init_run:
     wfcinit      :      2.37s CPU      2.86s WALL (       1 calls)
     wfcinit:atom :      0.02s CPU      0.02s WALL (       9 calls)
     wfcinit:wfcr :      2.29s CPU      2.78s WALL (       9 calls)
     potinit      :      1.18s CPU      1.27s WALL (       1 calls)
     hinit0       :      1.78s CPU      1.81s WALL (       1 calls)

     Called by electrons:
     c_bands      :     92.77s CPU    110.90s WALL (       9 calls)
     sum_band     :     15.85s CPU     18.13s WALL (       9 calls)
     v_of_rho     :      3.47s CPU      4.06s WALL (      10 calls)
     v_h          :      0.30s CPU      0.35s WALL (      10 calls)
     v_xc         :      3.51s CPU      4.07s WALL (      11 calls)
     newd         :     12.87s CPU     17.73s WALL (      10 calls)
     mix_rho      :      0.61s CPU      0.62s WALL (       9 calls)

     Called by c_bands:
     init_us_2    :      0.72s CPU      0.63s WALL (     180 calls)
     cegterg      :     70.71s CPU     89.55s WALL (      81 calls)

     Called by sum_band:
     sum_band:wei :      0.02s CPU      0.01s WALL (       9 calls)
     sum_band:loo :      8.51s CPU     10.25s WALL (       9 calls)
     sum_band:buf :      0.06s CPU      0.05s WALL (      81 calls)
     sum_band:ini :      0.32s CPU      0.27s WALL (      81 calls)
     sum_band:cal :      3.62s CPU      5.93s WALL (      81 calls)
     sum_band:bec :      0.00s CPU      0.00s WALL (      81 calls)
     addusdens    :      6.04s CPU      6.66s WALL (       9 calls)
     addusd:skk   :      0.01s CPU      0.03s WALL (      18 calls)
     addusd:dgemm :      1.92s CPU      1.88s WALL (      18 calls)
     addusd:qvan2 :      3.47s CPU      3.35s WALL (      18 calls)

     Called by *egterg:
     cdiaghg      :      3.55s CPU      7.85s WALL (     412 calls)
     cegterg:over :     15.26s CPU     22.71s WALL (     331 calls)
     cegterg:upda :      1.71s CPU      2.37s WALL (     331 calls)
     cegterg:last :      2.74s CPU      2.45s WALL (     179 calls)
     h_psi        :     39.42s CPU     44.10s WALL (     421 calls)
     s_psi        :      2.32s CPU      1.77s WALL (     421 calls)
     g_psi        :      0.22s CPU      0.18s WALL (     331 calls)

     Called by h_psi:
     h_psi:calbec :     13.07s CPU     19.70s WALL (     421 calls)
     vloc_psi     :     23.97s CPU     22.50s WALL (     421 calls)
     add_vuspsi   :      2.23s CPU      1.75s WALL (     421 calls)

     General routines
     calbec       :     18.02s CPU     26.92s WALL (     538 calls)
     fft          :      3.32s CPU      3.58s WALL (     139 calls)
     ffts         :      0.06s CPU      0.07s WALL (      19 calls)
     fftw         :     23.98s CPU     22.35s WALL (   15482 calls)
     interpolate  :      0.30s CPU      0.31s WALL (      10 calls)

     Parallel routines
     fft_scatt_xy :      5.29s CPU      4.93s WALL (   15640 calls)
     fft_scatt_yz :      6.98s CPU      6.96s WALL (   15640 calls)

     PWSCF        :   2m18.01s CPU   2m45.86s WALL


   This run was terminated on:  23:11:58  26May2026            

=------------------------------------------------------------------------------=
   JOB DONE.
=------------------------------------------------------------------------------=
