
     Program PWSCF v.6.7MaX starts on 26May2026 at 23: 4:12 

     This program is part of the open-source Quantum ESPRESSO suite
     for quantum simulation of materials; please cite
         "P. Giannozzi et al., J. Phys.:Condens. Matter 21 395502 (2009);
         "P. Giannozzi et al., J. Phys.:Condens. Matter 29 465901 (2017);
          URL http://www.quantum-espresso.org", 
     in publications or presentations arising from this work. More details at
     http://www.quantum-espresso.org/quote

     Parallel version (MPI), running on     6 processors

     MPI processes distributed on     1 nodes
     K-points division:     npool     =       3
     R & G space division:  proc/nbgrp/npool/nimage =       2
     Waiting for input...
     Reading input from standard input

     Current dimensions of program PWSCF are:
     Max number of different atomic species (ntypx) = 10
     Max number of k-points (npk) =  40000
     Max angular momentum in pseudopotentials (lmaxx) =  3

     Subspace diagonalization in iterative solution of the eigenvalue problem:
     a serial algorithm will be used

     Message from routine setup:
     using ibrav=0 with symmetry is DISCOURAGED, use correct ibrav instead

     Parallelization info
     --------------------
     sticks:   dense  smooth     PW     G-vecs:    dense   smooth      PW
     Min         814     320     99               112608    28411    4707
     Max         815     321    100               112613    28420    4708
     Sum        1629     641    199               225221    56831    9415



     bravais-lattice index     =            0
     lattice parameter (alat)  =       8.6086  a.u.
     unit-cell volume          =    2564.7467 (a.u.)^3
     number of atoms/cell      =            4
     number of atomic types    =            2
     number of electrons       =        40.00
     number of Kohn-Sham states=           30
     kinetic-energy cutoff     =      30.0000  Ry
     charge density cutoff     =     300.0000  Ry
     scf convergence threshold =      1.0E-08
     mixing beta               =       0.7000
     number of iterations used =            8  plain     mixing
     Exchange-correlation= SLA  PW   PBE  PBE
                           (   1   4   3   4   0   0   0)

     celldm(1)=   8.608647  celldm(2)=   0.000000  celldm(3)=   0.000000
     celldm(4)=   0.000000  celldm(5)=   0.000000  celldm(6)=   0.000000

     crystal axes: (cart. coord. in units of alat)
               a(1) = (   1.000000   0.000000   0.000000 )  
               a(2) = (   0.000000   0.915684   0.000000 )  
               a(3) = (   0.000000   0.000000   4.390297 )  

     reciprocal axes: (cart. coord. in units 2 pi/alat)
               b(1) = (  1.000000  0.000000  0.000000 )  
               b(2) = (  0.000000  1.092079  0.000000 )  
               b(3) = (  0.000000  0.000000  0.227775 )  


     PseudoPot. # 1 for Sn read from file:
     ../pseudo/Sn_pbe_v1.uspp.F.UPF
     MD5 check sum: 4cf58ce39ec5d5d420df3dd08604eb00
     Pseudo is Ultrasoft + core correction, Zval = 14.0
     Generated by new atomic code, or converted to UPF format
     Using radial grid of  891 points,  6 beta functions with: 
                l(1) =   0
                l(2) =   0
                l(3) =   1
                l(4) =   1
                l(5) =   2
                l(6) =   2
     Q(r) pseudized with  6 coefficients,  rinner =    1.200   1.200   1.200
                                                       1.200   1.200

     PseudoPot. # 2 for Se read from file:
     ../pseudo/Se_pbe_v1.uspp.F.UPF
     MD5 check sum: 1b3568f3a8ae88f9a2a0ad0698632c85
     Pseudo is Ultrasoft + core correction, Zval =  6.0
     Generated by new atomic code, or converted to UPF format
     Using radial grid of  877 points,  6 beta functions with: 
                l(1) =   0
                l(2) =   0
                l(3) =   1
                l(4) =   1
                l(5) =   2
                l(6) =   2
     Q(r) pseudized with  8 coefficients,  rinner =    1.300   1.300   1.300
                                                       1.300   1.300

     atomic species   valence    mass     pseudopotential
        Sn            14.00   118.71000     Sn( 1.00)
        Se             6.00    78.97100     Se( 1.00)

      4 Sym. Ops. (no inversion) found ( 3 have fractional translation)


                                    s                        frac. trans.

      isym =  1     identity                                     

 cryst.   s( 1) = (     1          0          0      )
                  (     0          1          0      )
                  (     0          0          1      )

 cart.    s( 1) = (  1.0000000  0.0000000  0.0000000 )
                  (  0.0000000  1.0000000  0.0000000 )
                  (  0.0000000  0.0000000  1.0000000 )


      isym =  2     180 deg rotation - cart. axis [1,0,0]        

 cryst.   s( 2) = (     1          0          0      )    f =( -0.5000000 )
                  (     0         -1          0      )       (  0.0000000 )
                  (     0          0         -1      )       (  0.0000000 )

 cart.    s( 2) = (  1.0000000  0.0000000  0.0000000 )    f =( -0.5000000 )
                  (  0.0000000 -1.0000000  0.0000000 )       (  0.0000000 )
                  (  0.0000000  0.0000000 -1.0000000 )       (  0.0000000 )


      isym =  3     inv. 180 deg rotation - cart. axis [0,0,1]   

 cryst.   s( 3) = (     1          0          0      )    f =( -0.5000000 )
                  (     0          1          0      )       (  0.5000000 )
                  (     0          0         -1      )       (  0.0000000 )

 cart.    s( 3) = (  1.0000000  0.0000000  0.0000000 )    f =( -0.5000000 )
                  (  0.0000000  1.0000000  0.0000000 )       (  0.4578422 )
                  (  0.0000000  0.0000000 -1.0000000 )       (  0.0000000 )


      isym =  4     inv. 180 deg rotation - cart. axis [0,1,0]   

 cryst.   s( 4) = (     1          0          0      )    f =(  0.0000000 )
                  (     0         -1          0      )       (  0.5000000 )
                  (     0          0          1      )       (  0.0000000 )

 cart.    s( 4) = (  1.0000000  0.0000000  0.0000000 )    f =(  0.0000000 )
                  (  0.0000000 -1.0000000  0.0000000 )       (  0.4578422 )
                  (  0.0000000  0.0000000  1.0000000 )       (  0.0000000 )


   Cartesian axes

     site n.     atom                  positions (alat units)
         1           Sn  tau(   1) = (   0.0995059   0.6867633   1.8899228  )
         2           Se  tau(   2) = (   0.5295331   0.2289211   1.9041249  )
         3           Se  tau(   3) = (   0.0295331   0.6867633   2.4861725  )
         4           Sn  tau(   4) = (   0.5995059   0.2289211   2.5003746  )

   Crystallographic axes

     site n.     atom                  positions (cryst. coord.)
         1           Sn  tau(   1) = (  0.0995059  0.7500000  0.4304772  )
         2           Se  tau(   2) = (  0.5295331  0.2500000  0.4337121  )
         3           Se  tau(   3) = (  0.0295331  0.7500000  0.5662879  )
         4           Sn  tau(   4) = (  0.5995059  0.2500000  0.5695228  )

     number of k points=    25
                       cart. coord. in units 2pi/alat
        k(    1) = (   0.0000000   0.0000000   0.0000000), wk =   0.0312500
        k(    2) = (   0.0000000   0.1365099   0.0000000), wk =   0.0625000
        k(    3) = (   0.0000000   0.2730198   0.0000000), wk =   0.0625000
        k(    4) = (   0.0000000   0.4095298   0.0000000), wk =   0.0625000
        k(    5) = (   0.0000000  -0.5460397   0.0000000), wk =   0.0312500
        k(    6) = (   0.1250000   0.0000000   0.0000000), wk =   0.0625000
        k(    7) = (   0.1250000   0.1365099   0.0000000), wk =   0.1250000
        k(    8) = (   0.1250000   0.2730198   0.0000000), wk =   0.1250000
        k(    9) = (   0.1250000   0.4095298   0.0000000), wk =   0.1250000
        k(   10) = (   0.1250000  -0.5460397   0.0000000), wk =   0.0625000
        k(   11) = (   0.2500000   0.0000000   0.0000000), wk =   0.0625000
        k(   12) = (   0.2500000   0.1365099   0.0000000), wk =   0.1250000
        k(   13) = (   0.2500000   0.2730198   0.0000000), wk =   0.1250000
        k(   14) = (   0.2500000   0.4095298   0.0000000), wk =   0.1250000
        k(   15) = (   0.2500000  -0.5460397   0.0000000), wk =   0.0625000
        k(   16) = (   0.3750000   0.0000000   0.0000000), wk =   0.0625000
        k(   17) = (   0.3750000   0.1365099   0.0000000), wk =   0.1250000
        k(   18) = (   0.3750000   0.2730198   0.0000000), wk =   0.1250000
        k(   19) = (   0.3750000   0.4095298   0.0000000), wk =   0.1250000
        k(   20) = (   0.3750000  -0.5460397   0.0000000), wk =   0.0625000
        k(   21) = (  -0.5000000   0.0000000   0.0000000), wk =   0.0312500
        k(   22) = (  -0.5000000   0.1365099   0.0000000), wk =   0.0625000
        k(   23) = (  -0.5000000   0.2730198   0.0000000), wk =   0.0625000
        k(   24) = (  -0.5000000   0.4095298   0.0000000), wk =   0.0625000
        k(   25) = (  -0.5000000  -0.5460397   0.0000000), wk =   0.0312500

                       cryst. coord.
        k(    1) = (   0.0000000   0.0000000   0.0000000), wk =   0.0312500
        k(    2) = (   0.0000000   0.1250000   0.0000000), wk =   0.0625000
        k(    3) = (   0.0000000   0.2500000   0.0000000), wk =   0.0625000
        k(    4) = (   0.0000000   0.3750000   0.0000000), wk =   0.0625000
        k(    5) = (   0.0000000  -0.5000000   0.0000000), wk =   0.0312500
        k(    6) = (   0.1250000   0.0000000   0.0000000), wk =   0.0625000
        k(    7) = (   0.1250000   0.1250000   0.0000000), wk =   0.1250000
        k(    8) = (   0.1250000   0.2500000   0.0000000), wk =   0.1250000
        k(    9) = (   0.1250000   0.3750000   0.0000000), wk =   0.1250000
        k(   10) = (   0.1250000  -0.5000000   0.0000000), wk =   0.0625000
        k(   11) = (   0.2500000   0.0000000   0.0000000), wk =   0.0625000
        k(   12) = (   0.2500000   0.1250000   0.0000000), wk =   0.1250000
        k(   13) = (   0.2500000   0.2500000   0.0000000), wk =   0.1250000
        k(   14) = (   0.2500000   0.3750000   0.0000000), wk =   0.1250000
        k(   15) = (   0.2500000  -0.5000000   0.0000000), wk =   0.0625000
        k(   16) = (   0.3750000   0.0000000   0.0000000), wk =   0.0625000
        k(   17) = (   0.3750000   0.1250000   0.0000000), wk =   0.1250000
        k(   18) = (   0.3750000   0.2500000   0.0000000), wk =   0.1250000
        k(   19) = (   0.3750000   0.3750000   0.0000000), wk =   0.1250000
        k(   20) = (   0.3750000  -0.5000000   0.0000000), wk =   0.0625000
        k(   21) = (  -0.5000000   0.0000000   0.0000000), wk =   0.0312500
        k(   22) = (  -0.5000000   0.1250000   0.0000000), wk =   0.0625000
        k(   23) = (  -0.5000000   0.2500000   0.0000000), wk =   0.0625000
        k(   24) = (  -0.5000000   0.3750000   0.0000000), wk =   0.0625000
        k(   25) = (  -0.5000000  -0.5000000   0.0000000), wk =   0.0312500

     Dense  grid:   225221 G-vectors     FFT dimensions: (  48,  48, 216)

     Smooth grid:    56831 G-vectors     FFT dimensions: (  32,  30, 135)

     Dynamical RAM for                 wfc:       1.63 MB

     Dynamical RAM for     wfc (w. buffer):      16.29 MB

     Dynamical RAM for           str. fact:       3.44 MB

     Dynamical RAM for           local pot:       0.00 MB

     Dynamical RAM for          nlocal pot:       3.91 MB

     Dynamical RAM for                qrad:       2.78 MB

     Dynamical RAM for          rho,v,vnew:      10.85 MB

     Dynamical RAM for               rhoin:       3.62 MB

     Dynamical RAM for            rho*nmix:      27.49 MB

     Dynamical RAM for           G-vectors:       6.66 MB

     Dynamical RAM for          h,s,v(r/c):       0.16 MB

     Dynamical RAM for          <psi|beta>:       0.03 MB

     Dynamical RAM for                 psi:       3.26 MB

     Dynamical RAM for                hpsi:       3.26 MB

     Dynamical RAM for                spsi:       3.26 MB

     Dynamical RAM for      wfcinit/wfcrot:       3.28 MB

     Dynamical RAM for           addusdens:     108.82 MB

     Dynamical RAM for          addusforce:     109.69 MB

     Estimated static dynamical RAM per process >      89.68 MB

     Estimated max dynamical RAM per process >     199.37 MB

     Estimated total dynamical RAM >       1.17 GB

     Initial potential from superposition of free atoms

     starting charge   37.99977, renormalised to   40.00000

     negative rho (up, down):  2.022E-03 0.000E+00
     Starting wfcs are   26 randomized atomic wfcs +    4 random wfcs

     total cpu time spent up to now is        7.4 secs

     Self-consistent Calculation

     iteration #  1     ecut=    30.00 Ry     beta= 0.70
     Davidson diagonalization with overlap
     ethr =  1.00E-02,  avg # of iterations =  7.9

     negative rho (up, down):  1.367E-03 0.000E+00

     total cpu time spent up to now is       26.4 secs

     total energy              =    -413.22105551 Ry
     estimated scf accuracy    <       1.36616078 Ry

     iteration #  2     ecut=    30.00 Ry     beta= 0.70
     Davidson diagonalization with overlap
     ethr =  3.42E-03,  avg # of iterations =  2.1

     negative rho (up, down):  1.512E-03 0.000E+00

     total cpu time spent up to now is       39.3 secs

     total energy              =    -413.61065168 Ry
     estimated scf accuracy    <       0.70527307 Ry

     iteration #  3     ecut=    30.00 Ry     beta= 0.70
     Davidson diagonalization with overlap
     ethr =  1.76E-03,  avg # of iterations =  2.0

     negative rho (up, down):  1.521E-03 0.000E+00

     total cpu time spent up to now is       50.2 secs

     total energy              =    -413.79037648 Ry
     estimated scf accuracy    <       0.04053977 Ry

     iteration #  4     ecut=    30.00 Ry     beta= 0.70
     Davidson diagonalization with overlap
     ethr =  1.01E-04,  avg # of iterations =  4.8

     negative rho (up, down):  1.565E-03 0.000E+00

     total cpu time spent up to now is       63.2 secs

     total energy              =    -413.79690957 Ry
     estimated scf accuracy    <       0.00076654 Ry

     iteration #  5     ecut=    30.00 Ry     beta= 0.70
     Davidson diagonalization with overlap
     ethr =  1.92E-06,  avg # of iterations =  8.2

     negative rho (up, down):  1.564E-03 0.000E+00

     total cpu time spent up to now is       80.3 secs

     total energy              =    -413.79706197 Ry
     estimated scf accuracy    <       0.00012772 Ry

     iteration #  6     ecut=    30.00 Ry     beta= 0.70
     Davidson diagonalization with overlap
     ethr =  3.19E-07,  avg # of iterations =  3.8

     negative rho (up, down):  1.561E-03 0.000E+00

     total cpu time spent up to now is       94.0 secs

     total energy              =    -413.79708975 Ry
     estimated scf accuracy    <       0.00002167 Ry

     iteration #  7     ecut=    30.00 Ry     beta= 0.70
     Davidson diagonalization with overlap
     ethr =  5.42E-08,  avg # of iterations =  2.0

     negative rho (up, down):  1.561E-03 0.000E+00

     total cpu time spent up to now is      103.2 secs

     total energy              =    -413.79709123 Ry
     estimated scf accuracy    <       0.00000212 Ry

     iteration #  8     ecut=    30.00 Ry     beta= 0.70
     Davidson diagonalization with overlap
     ethr =  5.30E-09,  avg # of iterations =  2.3

     negative rho (up, down):  1.561E-03 0.000E+00

     total cpu time spent up to now is      113.9 secs

     total energy              =    -413.79709185 Ry
     estimated scf accuracy    <       0.00000016 Ry

     iteration #  9     ecut=    30.00 Ry     beta= 0.70
     Davidson diagonalization with overlap
     ethr =  3.96E-10,  avg # of iterations =  2.0

     negative rho (up, down):  1.561E-03 0.000E+00

     total cpu time spent up to now is      125.9 secs

     End of self-consistent calculation

          k = 0.0000 0.0000 0.0000 (  7147 PWs)   bands (ev):

   -22.2271 -22.2164 -22.2144 -22.2091 -22.2031 -22.1822 -22.1788 -22.1726
   -22.1693 -22.1602 -14.2646 -13.2634  -7.2871  -6.1955  -4.4557  -4.1623
    -3.7012  -2.8763  -2.5827  -1.5189   0.5419   2.2285   2.6787   2.8193
     3.2391   3.3973   3.4160   4.0660   4.3477   5.0459

     occupation numbers 
     1.0000   1.0000   1.0000   1.0000   1.0000   1.0000   1.0000   1.0000
     1.0000   1.0000   1.0000   1.0000   1.0000   1.0000   1.0000   1.0000
     1.0000   1.0000   1.0000   1.0000   0.0000   0.0000   0.0000   0.0000
     0.0000   0.0000   0.0000   0.0000   0.0000   0.0000

          k = 0.0000 0.1365 0.0000 (  7097 PWs)   bands (ev):

   -22.2248 -22.2159 -22.2143 -22.2106 -22.2017 -22.1827 -22.1792 -22.1716
   -22.1704 -22.1602 -14.1912 -13.2435  -7.4483  -6.4252  -4.4077  -4.0751
    -3.6446  -2.8618  -2.3597  -1.5631   0.6056   2.2482   2.5076   2.5989
     2.8847   3.5376   3.5392   3.8439   4.1543   4.6815

     occupation numbers 
     1.0000   1.0000   1.0000   1.0000   1.0000   1.0000   1.0000   1.0000
     1.0000   1.0000   1.0000   1.0000   1.0000   1.0000   1.0000   1.0000
     1.0000   1.0000   1.0000   1.0000   0.0000   0.0000   0.0000   0.0000
     0.0000   0.0000   0.0000   0.0000   0.0000   0.0000

          k = 0.0000 0.2730 0.0000 (  7132 PWs)   bands (ev):

   -22.2211 -22.2192 -22.2121 -22.2098 -22.1987 -22.1842 -22.1797 -22.1732
   -22.1690 -22.1602 -13.9864 -13.2139  -7.8052  -6.9931  -4.1920  -3.8252
    -3.4102  -2.7501  -1.8846  -1.7344   0.8336   1.0175   1.7647   2.2066
     2.8161   3.1146   3.5728   3.8999   4.2325   5.0711

     occupation numbers 
     1.0000   1.0000   1.0000   1.0000   1.0000   1.0000   1.0000   1.0000
     1.0000   1.0000   1.0000   1.0000   1.0000   1.0000   1.0000   1.0000
     1.0000   1.0000   1.0000   1.0000   0.0000   0.0000   0.0000   0.0000
     0.0000   0.0000   0.0000   0.0000   0.0000   0.0000

          k = 0.0000 0.4095 0.0000 (  7126 PWs)   bands (ev):

   -22.2224 -22.2221 -22.2085 -22.2059 -22.1948 -22.1870 -22.1797 -22.1762
   -22.1657 -22.1609 -13.7008 -13.2519  -8.0717  -7.6099  -3.8044  -3.4582
    -3.0972  -2.6895  -1.9025  -1.3873   0.0358   1.0627   1.0827   1.3620
     1.7522   2.7087   3.9907   4.4780   4.7581   5.4752

     occupation numbers 
     1.0000   1.0000   1.0000   1.0000   1.0000   1.0000   1.0000   1.0000
     1.0000   1.0000   1.0000   1.0000   1.0000   1.0000   1.0000   1.0000
     1.0000   1.0000   1.0000   1.0000   0.0000   0.0000   0.0000   0.0000
     0.0000   0.0000   0.0000   0.0000   0.0000   0.0000

          k = 0.0000-0.5460 0.0000 (  7142 PWs)   bands (ev):

   -22.2235 -22.2235 -22.2054 -22.2054 -22.1907 -22.1907 -22.1785 -22.1785
   -22.1627 -22.1627 -13.4233 -13.4233  -8.0177  -8.0177  -3.3917  -3.3917
    -2.8868  -2.8868  -1.5855  -1.5855   0.1910   0.1910   1.0538   1.0538
     1.9702   1.9702   4.7794   4.7794   5.2890   5.2891

     occupation numbers 
     1.0000   1.0000   1.0000   1.0000   1.0000   1.0000   1.0000   1.0000
     1.0000   1.0000   1.0000   1.0000   1.0000   1.0000   1.0000   1.0000
     1.0000   1.0000   1.0000   1.0000   0.0000   0.0000   0.0000   0.0000
     0.0000   0.0000   0.0000   0.0000   0.0000   0.0000

          k = 0.1250 0.0000 0.0000 (  7131 PWs)   bands (ev):

   -22.2265 -22.2164 -22.2148 -22.2098 -22.2013 -22.1822 -22.1784 -22.1723
   -22.1696 -22.1609 -14.2078 -13.2671  -7.5060  -6.4965  -4.3994  -3.8770
    -3.6093  -2.5331  -2.4965  -1.6066   0.5965   2.2387   2.3154   2.8160
     2.8292   3.4744   3.5126   3.8980   4.0551   4.8814

     occupation numbers 
     1.0000   1.0000   1.0000   1.0000   1.0000   1.0000   1.0000   1.0000
     1.0000   1.0000   1.0000   1.0000   1.0000   1.0000   1.0000   1.0000
     1.0000   1.0000   1.0000   1.0000   0.0000   0.0000   0.0000   0.0000
     0.0000   0.0000   0.0000   0.0000   0.0000   0.0000

          k = 0.1250 0.1365 0.0000 (  7110 PWs)   bands (ev):

   -22.2244 -22.2165 -22.2142 -22.2114 -22.2000 -22.1826 -22.1789 -22.1713
   -22.1707 -22.1607 -14.1358 -13.2460  -7.5859  -6.6393  -4.3373  -4.2770
    -3.1674  -3.0158  -1.9408  -1.6091   0.6721   1.5039   2.3424   2.8756
     3.0399   3.3263   3.5149   3.6389   4.0855   5.1502

     occupation numbers 
     1.0000   1.0000   1.0000   1.0000   1.0000   1.0000   1.0000   1.0000
     1.0000   1.0000   1.0000   1.0000   1.0000   1.0000   1.0000   1.0000
     1.0000   1.0000   1.0000   1.0000   0.0000   0.0000   0.0000   0.0000
     0.0000   0.0000   0.0000   0.0000   0.0000   0.0000

          k = 0.1250 0.2730 0.0000 (  7117 PWs)   bands (ev):

   -22.2216 -22.2200 -22.2123 -22.2097 -22.1971 -22.1841 -22.1796 -22.1735
   -22.1687 -22.1606 -13.9358 -13.2116  -7.8052  -7.0537  -4.4520  -4.1401
    -3.1576  -2.7981  -1.7125  -1.6248   0.7259   0.8700   1.4424   2.4793
     3.1521   3.4641   3.5946   3.9978   4.3133   5.1013

     occupation numbers 
     1.0000   1.0000   1.0000   1.0000   1.0000   1.0000   1.0000   1.0000
     1.0000   1.0000   1.0000   1.0000   1.0000   1.0000   1.0000   1.0000
     1.0000   1.0000   1.0000   1.0000   0.0000   0.0000   0.0000   0.0000
     0.0000   0.0000   0.0000   0.0000   0.0000   0.0000

          k = 0.1250 0.4095 0.0000 (  7143 PWs)   bands (ev):

   -22.2235 -22.2234 -22.2083 -22.2057 -22.1937 -22.1868 -22.1796 -22.1763
   -22.1654 -22.1610 -13.6595 -13.2396  -8.0000  -7.5735  -4.2006  -3.8033
    -3.1182  -2.8248  -1.9460  -1.6036   0.4447   0.6277   1.4559   1.7698
     2.7711   2.8166   4.0967   4.5221   4.8528   5.1515

     occupation numbers 
     1.0000   1.0000   1.0000   1.0000   1.0000   1.0000   1.0000   1.0000
     1.0000   1.0000   1.0000   1.0000   1.0000   1.0000   1.0000   1.0000
     1.0000   1.0000   1.0000   1.0000   0.0000   0.0000   0.0000   0.0000
     0.0000   0.0000   0.0000   0.0000   0.0000   0.0000

          k = 0.1250-0.5460 0.0000 (  7144 PWs)   bands (ev):

   -22.2248 -22.2248 -22.2051 -22.2051 -22.1902 -22.1902 -22.1784 -22.1784
   -22.1625 -22.1625 -13.3961 -13.3961  -7.9404  -7.9404  -3.7192  -3.7192
    -3.1581  -3.1581  -1.8040  -1.8040   0.3913   0.3913   1.9166   1.9166
     2.1445   2.1445   4.7943   4.7943   5.3258   5.3258

     occupation numbers 
     1.0000   1.0000   1.0000   1.0000   1.0000   1.0000   1.0000   1.0000
     1.0000   1.0000   1.0000   1.0000   1.0000   1.0000   1.0000   1.0000
     1.0000   1.0000   1.0000   1.0000   0.0000   0.0000   0.0000   0.0000
     0.0000   0.0000   0.0000   0.0000   0.0000   0.0000

          k = 0.2500 0.0000 0.0000 (  7099 PWs)   bands (ev):

   -22.2248 -22.2168 -22.2155 -22.2117 -22.1968 -22.1825 -22.1772 -22.1714
   -22.1704 -22.1626 -14.0483 -13.2970  -7.9067  -7.1216  -4.1801  -3.3483
    -3.2925  -2.4273  -1.8298  -1.6918   0.8139   1.2307   2.0494   2.1914
     2.9877   3.0262   3.4460   3.8079   4.1240   4.8729

     occupation numbers 
     1.0000   1.0000   1.0000   1.0000   1.0000   1.0000   1.0000   1.0000
     1.0000   1.0000   1.0000   1.0000   1.0000   1.0000   1.0000   1.0000
     1.0000   1.0000   1.0000   1.0000   0.0000   0.0000   0.0000   0.0000
     0.0000   0.0000   0.0000   0.0000   0.0000   0.0000

          k = 0.2500 0.1365 0.0000 (  7108 PWs)   bands (ev):

   -22.2232 -22.2178 -22.2142 -22.2131 -22.1957 -22.1829 -22.1780 -22.1716
   -22.1702 -22.1622 -13.9808 -13.2712  -7.8736  -7.1383  -4.2457  -4.1164
    -3.0366  -2.6738  -1.6101  -1.4967   0.8827   0.9191   1.5650   2.5911
     3.1204   3.2983   3.5163   3.9302   4.2410   5.1445

     occupation numbers 
     1.0000   1.0000   1.0000   1.0000   1.0000   1.0000   1.0000   1.0000
     1.0000   1.0000   1.0000   1.0000   1.0000   1.0000   1.0000   1.0000
     1.0000   1.0000   1.0000   1.0000   0.0000   0.0000   0.0000   0.0000
     0.0000   0.0000   0.0000   0.0000   0.0000   0.0000

          k = 0.2500 0.2730 0.0000 (  7130 PWs)   bands (ev):

   -22.2230 -22.2220 -22.2123 -22.2095 -22.1934 -22.1842 -22.1791 -22.1741
   -22.1676 -22.1615 -13.7960 -13.2210  -7.8222  -7.2459  -4.8956  -4.0053
    -3.5627  -2.6212  -2.1309  -1.3625   0.6293   1.3421   1.3906   2.8177
     3.2798   3.8170   3.9386   4.2534   4.5904   4.7399

     occupation numbers 
     1.0000   1.0000   1.0000   1.0000   1.0000   1.0000   1.0000   1.0000
     1.0000   1.0000   1.0000   1.0000   1.0000   1.0000   1.0000   1.0000
     1.0000   1.0000   1.0000   1.0000   0.0000   0.0000   0.0000   0.0000
     0.0000   0.0000   0.0000   0.0000   0.0000   0.0000

          k = 0.2500 0.4095 0.0000 (  7137 PWs)   bands (ev):

   -22.2263 -22.2262 -22.2076 -22.2054 -22.1911 -22.1865 -22.1791 -22.1763
   -22.1646 -22.1613 -13.5490 -13.2172  -7.8096  -7.4917  -4.9679  -3.9162
    -3.7932  -2.9376  -2.6918  -1.8113   0.8223   1.8515   1.9050   2.4851
     3.2351   3.9946   4.3363   4.3947   5.0532   5.0685

     occupation numbers 
     1.0000   1.0000   1.0000   1.0000   1.0000   1.0000   1.0000   1.0000
     1.0000   1.0000   1.0000   1.0000   1.0000   1.0000   1.0000   1.0000
     1.0000   1.0000   1.0000   1.0000   0.0000   0.0000   0.0000   0.0000
     0.0000   0.0000   0.0000   0.0000   0.0000   0.0000

          k = 0.2500-0.5460 0.0000 (  7148 PWs)   bands (ev):

   -22.2279 -22.2279 -22.2047 -22.2047 -22.1888 -22.1888 -22.1780 -22.1780
   -22.1623 -22.1623 -13.3287 -13.3287  -7.7275  -7.7275  -4.5018  -4.5018
    -3.4555  -3.4555  -2.4048  -2.4048   1.4492   1.4492   2.3653   2.3653
     3.4292   3.4292   4.5597   4.5597   5.5150   5.5150

     occupation numbers 
     1.0000   1.0000   1.0000   1.0000   1.0000   1.0000   1.0000   1.0000
     1.0000   1.0000   1.0000   1.0000   1.0000   1.0000   1.0000   1.0000
     1.0000   1.0000   1.0000   1.0000   0.0000   0.0000   0.0000   0.0000
     0.0000   0.0000   0.0000   0.0000   0.0000   0.0000

          k = 0.3750 0.0000 0.0000 (  7097 PWs)   bands (ev):

   -22.2224 -22.2180 -22.2161 -22.2140 -22.1913 -22.1837 -22.1755 -22.1718
   -22.1697 -22.1650 -13.8197 -13.3942  -8.1529  -7.7157  -3.8065  -3.0089
    -2.9720  -2.4006  -1.7878  -0.9199   0.3376   1.2422   1.4748   1.5329
     2.1168   2.5708   3.8010   4.3057   4.5799   5.3097

     occupation numbers 
     1.0000   1.0000   1.0000   1.0000   1.0000   1.0000   1.0000   1.0000
     1.0000   1.0000   1.0000   1.0000   1.0000   1.0000   1.0000   1.0000
     1.0000   1.0000   1.0000   1.0000   0.0000   0.0000   0.0000   0.0000
     0.0000   0.0000   0.0000   0.0000   0.0000   0.0000

          k = 0.3750 0.1365 0.0000 (  7094 PWs)   bands (ev):

   -22.2217 -22.2192 -22.2147 -22.2146 -22.1907 -22.1839 -22.1765 -22.1730
   -22.1685 -22.1642 -13.7606 -13.3594  -8.0661  -7.6573  -3.9249  -3.7605
    -3.0567  -2.8054  -1.4689  -1.3393   0.7691   1.0009   1.4395   2.0110
     2.7732   3.0297   3.9316   4.3978   4.6997   5.1964

     occupation numbers 
     1.0000   1.0000   1.0000   1.0000   1.0000   1.0000   1.0000   1.0000
     1.0000   1.0000   1.0000   1.0000   1.0000   1.0000   1.0000   1.0000
     1.0000   1.0000   1.0000   1.0000   0.0000   0.0000   0.0000   0.0000
     0.0000   0.0000   0.0000   0.0000   0.0000   0.0000

          k = 0.3750 0.2730 0.0000 (  7110 PWs)   bands (ev):

   -22.2245 -22.2240 -22.2117 -22.2098 -22.1895 -22.1849 -22.1779 -22.1750
   -22.1661 -22.1628 -13.6031 -13.2795  -7.8380  -7.5242  -4.8756  -3.9866
    -3.6893  -2.9041  -2.4896  -1.7133   0.9986   1.9657   2.2672   2.4666
     3.2995   4.0347   4.3060   4.3842   4.9960   5.0000

     occupation numbers 
     1.0000   1.0000   1.0000   1.0000   1.0000   1.0000   1.0000   1.0000
     1.0000   1.0000   1.0000   1.0000   1.0000   1.0000   1.0000   1.0000
     1.0000   1.0000   1.0000   1.0000   0.0000   0.0000   0.0000   0.0000
     0.0000   0.0000   0.0000   0.0000   0.0000   0.0000

          k = 0.3750 0.4095 0.0000 (  7117 PWs)   bands (ev):

   -22.2291 -22.2289 -22.2068 -22.2055 -22.1885 -22.1864 -22.1781 -22.1764
   -22.1636 -22.1619 -13.4070 -13.2212  -7.5882  -7.4330  -5.3311  -4.5458
    -4.0557  -3.3796  -2.8060  -2.2810   1.5854   2.3748   2.6717   3.2963
     3.8483   4.0369   4.5448   4.7339   5.2069   5.4653

     occupation numbers 
     1.0000   1.0000   1.0000   1.0000   1.0000   1.0000   1.0000   1.0000
     1.0000   1.0000   1.0000   1.0000   1.0000   1.0000   1.0000   1.0000
     1.0000   1.0000   1.0000   1.0000   0.0000   0.0000   0.0000   0.0000
     0.0000   0.0000   0.0000   0.0000   0.0000   0.0000

          k = 0.3750-0.5460 0.0000 (  7100 PWs)   bands (ev):

   -22.2310 -22.2310 -22.2044 -22.2044 -22.1876 -22.1876 -22.1774 -22.1774
   -22.1620 -22.1620 -13.2585 -13.2585  -7.4561  -7.4561  -5.1121  -5.1121
    -3.9813  -3.9813  -2.5895  -2.5895   2.0766   2.0766   3.2073   3.2073
     4.1233   4.1233   4.6003   4.6003   5.9899   5.9900

     occupation numbers 
     1.0000   1.0000   1.0000   1.0000   1.0000   1.0000   1.0000   1.0000
     1.0000   1.0000   1.0000   1.0000   1.0000   1.0000   1.0000   1.0000
     1.0000   1.0000   1.0000   1.0000   0.0000   0.0000   0.0000   0.0000
     0.0000   0.0000   0.0000   0.0000   0.0000   0.0000

          k =-0.5000 0.0000 0.0000 (  7068 PWs)   bands (ev):

   -22.2199 -22.2199 -22.2156 -22.2156 -22.1866 -22.1866 -22.1736 -22.1736
   -22.1675 -22.1675 -13.5797 -13.5797  -8.0909  -8.0909  -3.3486  -3.3486
    -2.5986  -2.5986  -1.1552  -1.1552   0.5883   0.5883   1.5618   1.5618
     1.8611   1.8611   4.5067   4.5067   5.0068   5.0071

     occupation numbers 
     1.0000   1.0000   1.0000   1.0000   1.0000   1.0000   1.0000   1.0000
     1.0000   1.0000   1.0000   1.0000   1.0000   1.0000   1.0000   1.0000
     1.0000   1.0000   1.0000   1.0000   0.0000   0.0000   0.0000   0.0000
     0.0000   0.0000   0.0000   0.0000   0.0000   0.0000

          k =-0.5000 0.1365 0.0000 (  7070 PWs)   bands (ev):

   -22.2204 -22.2204 -22.2152 -22.2152 -22.1865 -22.1865 -22.1747 -22.1747
   -22.1664 -22.1664 -13.5324 -13.5324  -7.9998  -7.9998  -3.5149  -3.5149
    -3.1890  -3.1890  -1.3497  -1.3497   0.8099   0.8099   1.9340   1.9340
     2.4720   2.4720   4.5987   4.5987   5.0809   5.0810

     occupation numbers 
     1.0000   1.0000   1.0000   1.0000   1.0000   1.0000   1.0000   1.0000
     1.0000   1.0000   1.0000   1.0000   1.0000   1.0000   1.0000   1.0000
     1.0000   1.0000   1.0000   1.0000   0.0000   0.0000   0.0000   0.0000
     0.0000   0.0000   0.0000   0.0000   0.0000   0.0000

          k =-0.5000 0.2730 0.0000 (  7094 PWs)   bands (ev):

   -22.2250 -22.2250 -22.2107 -22.2107 -22.1865 -22.1865 -22.1764 -22.1764
   -22.1644 -22.1644 -13.4129 -13.4129  -7.7526  -7.7526  -4.4823  -4.4823
    -3.3333  -3.3333  -2.2525  -2.2525   1.6619   1.6619   2.6659   2.6659
     3.5263   3.5263   4.5932   4.5932   5.2867   5.2867

     occupation numbers 
     1.0000   1.0000   1.0000   1.0000   1.0000   1.0000   1.0000   1.0000
     1.0000   1.0000   1.0000   1.0000   1.0000   1.0000   1.0000   1.0000
     1.0000   1.0000   1.0000   1.0000   0.0000   0.0000   0.0000   0.0000
     0.0000   0.0000   0.0000   0.0000   0.0000   0.0000

          k =-0.5000 0.4095 0.0000 (  7106 PWs)   bands (ev):

   -22.2301 -22.2301 -22.2060 -22.2060 -22.1870 -22.1870 -22.1770 -22.1770
   -22.1627 -22.1627 -13.2847 -13.2847  -7.4545  -7.4545  -5.1551  -5.1551
    -3.8650  -3.8650  -2.5961  -2.5961   2.0804   2.0804   3.4513   3.4513
     4.2077   4.2077   4.5197   4.5197   5.8487   5.8488

     occupation numbers 
     1.0000   1.0000   1.0000   1.0000   1.0000   1.0000   1.0000   1.0000
     1.0000   1.0000   1.0000   1.0000   1.0000   1.0000   1.0000   1.0000
     1.0000   1.0000   1.0000   1.0000   0.0000   0.0000   0.0000   0.0000
     0.0000   0.0000   0.0000   0.0000   0.0000   0.0000

          k =-0.5000-0.5460 0.0000 (  7068 PWs)   bands (ev):

   -22.2322 -22.2322 -22.2043 -22.2043 -22.1872 -22.1872 -22.1770 -22.1770
   -22.1619 -22.1619 -13.2286 -13.2286  -7.3136  -7.3136  -5.3456  -5.3456
    -4.2409  -4.2409  -2.6027  -2.6027   2.2184   2.2184   3.7049   3.7049
     3.9675   3.9675   5.0440   5.0440   6.2426   6.2428

     occupation numbers 
     1.0000   1.0000   1.0000   1.0000   1.0000   1.0000   1.0000   1.0000
     1.0000   1.0000   1.0000   1.0000   1.0000   1.0000   1.0000   1.0000
     1.0000   1.0000   1.0000   1.0000   0.0000   0.0000   0.0000   0.0000
     0.0000   0.0000   0.0000   0.0000   0.0000   0.0000

     highest occupied, lowest unoccupied level (ev):    -0.9199    0.0358

!    total energy              =    -413.79709189 Ry
     estimated scf accuracy    <          7.4E-10 Ry

     The total energy is the sum of the following terms:
     one-electron contribution =   -1177.48994373 Ry
     hartree contribution      =     600.88167174 Ry
     xc contribution           =    -154.41511168 Ry
     ewald contribution        =     317.22629178 Ry

     convergence has been achieved in   9 iterations

     negative rho (up, down):  1.561E-03 0.000E+00

     Forces acting on atoms (cartesian axes, Ry/au):

     atom    1 type  1   force =    -0.00000174    0.00000000    0.00006429
     atom    2 type  2   force =     0.00000174    0.00000000    0.00046792
     atom    3 type  2   force =     0.00000174    0.00000000   -0.00046792
     atom    4 type  1   force =    -0.00000174    0.00000000   -0.00006429
     The non-local contrib.  to forces
     atom    1 type  1   force =     0.24645994    0.00000000    0.44493097
     atom    2 type  2   force =    -0.07977103    0.00000000    0.19455029
     atom    3 type  2   force =    -0.07977103    0.00000000   -0.19455029
     atom    4 type  1   force =     0.24645994    0.00000000   -0.44493097
     The ionic contribution  to forces
     atom    1 type  1   force =    -1.27654529    0.00000000  -37.32936663
     atom    2 type  2   force =     1.27654529    0.00000000  -16.68508416
     atom    3 type  2   force =     1.27654529   -0.00000000   16.68508416
     atom    4 type  1   force =    -1.27654529   -0.00000000   37.32936663
     The local contribution  to forces
     atom    1 type  1   force =     1.03383198    0.00000000   36.89221612
     atom    2 type  2   force =    -1.20562062    0.00000000   16.51324729
     atom    3 type  2   force =    -1.20562062    0.00000000  -16.51324730
     atom    4 type  1   force =     1.03383198    0.00000000  -36.89221612
     The core correction contribution to forces
     atom    1 type  1   force =    -0.00370888    0.00000000   -0.00769866
     atom    2 type  2   force =     0.00880208   -0.00000000   -0.02224985
     atom    3 type  2   force =     0.00880208   -0.00000000    0.02224985
     atom    4 type  1   force =    -0.00370888   -0.00000000    0.00769866
     The Hubbard contrib.    to forces
     atom    1 type  1   force =     0.00000000    0.00000000    0.00000000
     atom    2 type  2   force =     0.00000000    0.00000000    0.00000000
     atom    3 type  2   force =     0.00000000    0.00000000    0.00000000
     atom    4 type  1   force =     0.00000000    0.00000000    0.00000000
     The SCF correction term to forces
     atom    1 type  1   force =    -0.00007919    0.00000000   -0.00001750
     atom    2 type  2   force =     0.00000631   -0.00000000    0.00000435
     atom    3 type  2   force =     0.00000631   -0.00000000   -0.00000435
     atom    4 type  1   force =    -0.00007919    0.00000000    0.00001750

     Total force =     0.000668     Total SCF correction =     0.000115
     SCF correction compared to forces is large: reduce conv_thr to get better values

     Writing output data file ./tmp/SnSe_monolayer.save/

     init_run     :      6.41s CPU      7.00s WALL (       1 calls)
     electrons    :    103.33s CPU    118.55s WALL (       1 calls)
     forces       :      6.46s CPU      6.61s WALL (       1 calls)

     Called by init_run:
     wfcinit      :      2.13s CPU      2.56s WALL (       1 calls)
     wfcinit:atom :      0.02s CPU      0.01s WALL (       9 calls)
     wfcinit:wfcr :      2.06s CPU      2.51s WALL (       9 calls)
     potinit      :      0.94s CPU      1.02s WALL (       1 calls)
     hinit0       :      1.56s CPU      1.58s WALL (       1 calls)

     Called by electrons:
     c_bands      :     78.65s CPU     88.88s WALL (       9 calls)
     sum_band     :     12.65s CPU     13.63s WALL (       9 calls)
     v_of_rho     :      2.86s CPU      3.35s WALL (      10 calls)
     v_h          :      0.24s CPU      0.27s WALL (      10 calls)
     v_xc         :      2.88s CPU      3.38s WALL (      11 calls)
     newd         :     10.21s CPU     13.79s WALL (      10 calls)
     mix_rho      :      0.48s CPU      0.49s WALL (       9 calls)

     Called by c_bands:
     init_us_2    :      0.59s CPU      0.50s WALL (     180 calls)
     cegterg      :     53.82s CPU     65.07s WALL (      81 calls)

     Called by sum_band:
     sum_band:wei :      0.00s CPU      0.00s WALL (       9 calls)
     sum_band:loo :      6.99s CPU      7.48s WALL (       9 calls)
     sum_band:buf :      0.05s CPU      0.04s WALL (      81 calls)
     sum_band:ini :      0.26s CPU      0.21s WALL (      81 calls)
     sum_band:cal :      3.01s CPU      4.09s WALL (      81 calls)
     sum_band:bec :      0.00s CPU      0.00s WALL (      81 calls)
     addusdens    :      4.69s CPU      5.25s WALL (       9 calls)
     addusd:skk   :      0.01s CPU      0.01s WALL (      18 calls)
     addusd:dgemm :      1.62s CPU      1.90s WALL (      18 calls)
     addusd:qvan2 :      2.72s CPU      2.55s WALL (      18 calls)

     Called by *egterg:
     cdiaghg      :      2.93s CPU      6.76s WALL (     392 calls)
     cegterg:over :     11.16s CPU     15.89s WALL (     311 calls)
     cegterg:upda :      1.47s CPU      1.90s WALL (     311 calls)
     cegterg:last :      2.30s CPU      2.14s WALL (     179 calls)
     h_psi        :     29.09s CPU     31.20s WALL (     401 calls)
     s_psi        :      1.84s CPU      1.52s WALL (     401 calls)
     g_psi        :      0.19s CPU      0.15s WALL (     311 calls)

     Called by h_psi:
     h_psi:calbec :      8.92s CPU     12.72s WALL (     401 calls)
     vloc_psi     :     18.14s CPU     16.85s WALL (     401 calls)
     add_vuspsi   :      1.90s CPU      1.52s WALL (     401 calls)

     General routines
     calbec       :     13.06s CPU     17.81s WALL (     518 calls)
     fft          :      2.64s CPU      2.86s WALL (     139 calls)
     ffts         :      0.13s CPU      0.10s WALL (      19 calls)
     fftw         :     18.37s CPU     16.88s WALL (   15386 calls)
     interpolate  :      0.26s CPU      0.28s WALL (      10 calls)

     Parallel routines
     fft_scatt_xy :      3.86s CPU      3.55s WALL (   15544 calls)
     fft_scatt_yz :      5.54s CPU      5.38s WALL (   15544 calls)

     PWSCF        :   1m56.62s CPU   2m12.64s WALL


   This run was terminated on:  23: 6:24  26May2026            

=------------------------------------------------------------------------------=
   JOB DONE.
=------------------------------------------------------------------------------=
