
     Program PWSCF v.6.7MaX starts on  5May2026 at 17:38:40 

     This program is part of the open-source Quantum ESPRESSO suite
     for quantum simulation of materials; please cite
         "P. Giannozzi et al., J. Phys.:Condens. Matter 21 395502 (2009);
         "P. Giannozzi et al., J. Phys.:Condens. Matter 29 465901 (2017);
          URL http://www.quantum-espresso.org", 
     in publications or presentations arising from this work. More details at
     http://www.quantum-espresso.org/quote

     Parallel version (MPI), running on     4 processors

     MPI processes distributed on     1 nodes
     R & G space division:  proc/nbgrp/npool/nimage =       4
     Waiting for input...
     Reading input from standard input

     Current dimensions of program PWSCF are:
     Max number of different atomic species (ntypx) = 10
     Max number of k-points (npk) =  40000
     Max angular momentum in pseudopotentials (lmaxx) =  3

     Subspace diagonalization in iterative solution of the eigenvalue problem:
     one sub-group per band group will be used
     scalapack distributed-memory algorithm (size of sub-group:  2*  2 procs)


     Parallelization info
     --------------------
     sticks:   dense  smooth     PW     G-vecs:    dense   smooth      PW
     Min        1012     403    122                31267     7917    1319
     Max        1014     405    124                31268     7918    1320
     Sum        4053    1617    491               125071    31669    5279



     bravais-lattice index     =            8
     lattice parameter (alat)  =      21.4862  a.u.
     unit-cell volume          =    1425.7436 (a.u.)^3
     number of atoms/cell      =            8
     number of atomic types    =            2
     number of electrons       =        80.00
     number of Kohn-Sham states=           50
     kinetic-energy cutoff     =      30.0000  Ry
     charge density cutoff     =     300.0000  Ry
     scf convergence threshold =      1.0E-08
     mixing beta               =       0.7000
     number of iterations used =            8  plain     mixing
     Exchange-correlation= SLA  PW   PBE  PBE
                           (   1   4   3   4   0   0   0)

     celldm(1)=  21.486186  celldm(2)=   0.368162  celldm(3)=   0.390413
     celldm(4)=   0.000000  celldm(5)=   0.000000  celldm(6)=   0.000000

     crystal axes: (cart. coord. in units of alat)
               a(1) = (   1.000000   0.000000   0.000000 )  
               a(2) = (   0.000000   0.368162   0.000000 )  
               a(3) = (   0.000000   0.000000   0.390413 )  

     reciprocal axes: (cart. coord. in units 2 pi/alat)
               b(1) = (  1.000000  0.000000  0.000000 )  
               b(2) = (  0.000000  2.716197  0.000000 )  
               b(3) = (  0.000000  0.000000  2.561388 )  


     PseudoPot. # 1 for Sn read from file:
     ../pseudo/Sn_pbe_v1.uspp.F.UPF
     MD5 check sum: 4cf58ce39ec5d5d420df3dd08604eb00
     Pseudo is Ultrasoft + core correction, Zval = 14.0
     Generated by new atomic code, or converted to UPF format
     Using radial grid of  891 points,  6 beta functions with: 
                l(1) =   0
                l(2) =   0
                l(3) =   1
                l(4) =   1
                l(5) =   2
                l(6) =   2
     Q(r) pseudized with  6 coefficients,  rinner =    1.200   1.200   1.200
                                                       1.200   1.200

     PseudoPot. # 2 for Se read from file:
     ../pseudo/Se_pbe_v1.uspp.F.UPF
     MD5 check sum: 1b3568f3a8ae88f9a2a0ad0698632c85
     Pseudo is Ultrasoft + core correction, Zval =  6.0
     Generated by new atomic code, or converted to UPF format
     Using radial grid of  877 points,  6 beta functions with: 
                l(1) =   0
                l(2) =   0
                l(3) =   1
                l(4) =   1
                l(5) =   2
                l(6) =   2
     Q(r) pseudized with  8 coefficients,  rinner =    1.300   1.300   1.300
                                                       1.300   1.300

     atomic species   valence    mass     pseudopotential
        Sn            14.00   118.71000     Sn( 1.00)
        Se             6.00    78.97100     Se( 1.00)

      8 Sym. Ops., with inversion, found ( 6 have fractional translation)


                                    s                        frac. trans.

      isym =  1     identity                                     

 cryst.   s( 1) = (     1          0          0      )
                  (     0          1          0      )
                  (     0          0          1      )

 cart.    s( 1) = (  1.0000000  0.0000000  0.0000000 )
                  (  0.0000000  1.0000000  0.0000000 )
                  (  0.0000000  0.0000000  1.0000000 )


      isym =  2     180 deg rotation - cart. axis [0,0,1]        

 cryst.   s( 2) = (    -1          0          0      )    f =(  0.5000000 )
                  (     0         -1          0      )       (  0.0000000 )
                  (     0          0          1      )       (  0.5000000 )

 cart.    s( 2) = ( -1.0000000  0.0000000  0.0000000 )    f =(  0.5000000 )
                  (  0.0000000 -1.0000000  0.0000000 )       (  0.0000000 )
                  (  0.0000000  0.0000000  1.0000000 )       (  0.1952067 )


      isym =  3     180 deg rotation - cart. axis [0,1,0]        

 cryst.   s( 3) = (    -1          0          0      )    f =(  0.0000000 )
                  (     0          1          0      )       ( -0.5000000 )
                  (     0          0         -1      )       (  0.0000000 )

 cart.    s( 3) = ( -1.0000000  0.0000000  0.0000000 )    f =(  0.0000000 )
                  (  0.0000000  1.0000000  0.0000000 )       ( -0.1840809 )
                  (  0.0000000  0.0000000 -1.0000000 )       (  0.0000000 )


      isym =  4     180 deg rotation - cart. axis [1,0,0]        

 cryst.   s( 4) = (     1          0          0      )    f =(  0.5000000 )
                  (     0         -1          0      )       (  0.5000000 )
                  (     0          0         -1      )       (  0.5000000 )

 cart.    s( 4) = (  1.0000000  0.0000000  0.0000000 )    f =(  0.5000000 )
                  (  0.0000000 -1.0000000  0.0000000 )       (  0.1840809 )
                  (  0.0000000  0.0000000 -1.0000000 )       (  0.1952067 )


      isym =  5     inversion                                    

 cryst.   s( 5) = (    -1          0          0      )
                  (     0         -1          0      )
                  (     0          0         -1      )

 cart.    s( 5) = ( -1.0000000  0.0000000  0.0000000 )
                  (  0.0000000 -1.0000000  0.0000000 )
                  (  0.0000000  0.0000000 -1.0000000 )


      isym =  6     inv. 180 deg rotation - cart. axis [0,0,1]   

 cryst.   s( 6) = (     1          0          0      )    f =(  0.5000000 )
                  (     0          1          0      )       (  0.0000000 )
                  (     0          0         -1      )       (  0.5000000 )

 cart.    s( 6) = (  1.0000000  0.0000000  0.0000000 )    f =(  0.5000000 )
                  (  0.0000000  1.0000000  0.0000000 )       (  0.0000000 )
                  (  0.0000000  0.0000000 -1.0000000 )       (  0.1952067 )


      isym =  7     inv. 180 deg rotation - cart. axis [0,1,0]   

 cryst.   s( 7) = (     1          0          0      )    f =(  0.0000000 )
                  (     0         -1          0      )       (  0.5000000 )
                  (     0          0          1      )       (  0.0000000 )

 cart.    s( 7) = (  1.0000000  0.0000000  0.0000000 )    f =(  0.0000000 )
                  (  0.0000000 -1.0000000  0.0000000 )       (  0.1840809 )
                  (  0.0000000  0.0000000  1.0000000 )       (  0.0000000 )


      isym =  8     inv. 180 deg rotation - cart. axis [1,0,0]   

 cryst.   s( 8) = (    -1          0          0      )    f =(  0.5000000 )
                  (     0          1          0      )       ( -0.5000000 )
                  (     0          0          1      )       (  0.5000000 )

 cart.    s( 8) = ( -1.0000000  0.0000000  0.0000000 )    f =(  0.5000000 )
                  (  0.0000000  1.0000000  0.0000000 )       ( -0.1840809 )
                  (  0.0000000  0.0000000  1.0000000 )       (  0.1952067 )


     point group D_2h (mmm) 
     there are  8 classes
     the character table:

       E     C2    C2'   C2''  i     s_v   s_v'  s_v''
A_g    1.00  1.00  1.00  1.00  1.00  1.00  1.00  1.00
B_1g   1.00  1.00 -1.00 -1.00  1.00  1.00 -1.00 -1.00
B_2g   1.00 -1.00  1.00 -1.00  1.00 -1.00  1.00 -1.00
B_3g   1.00 -1.00 -1.00  1.00  1.00 -1.00 -1.00  1.00
A_u    1.00  1.00  1.00  1.00 -1.00 -1.00 -1.00 -1.00
B_1u   1.00  1.00 -1.00 -1.00 -1.00 -1.00  1.00  1.00
B_2u   1.00 -1.00  1.00 -1.00 -1.00  1.00 -1.00  1.00
B_3u   1.00 -1.00 -1.00  1.00 -1.00  1.00  1.00 -1.00

     the symmetry operations in each class and the name of the first element:

     E        1
          identity                                               
     C2       2
          180 deg rotation - cart. axis [0,0,1]                  
     C2'      4
          180 deg rotation - cart. axis [1,0,0]                  
     C2''     3
          180 deg rotation - cart. axis [0,1,0]                  
     i        5
          inversion                                              
     s_v      6
          inv. 180 deg rotation - cart. axis [0,0,1]             
     s_v'     8
          inv. 180 deg rotation - cart. axis [1,0,0]             
     s_v''    7
          inv. 180 deg rotation - cart. axis [0,1,0]             

   Cartesian axes

     site n.     atom                  positions (alat units)
         1           Se  tau(   1) = (   0.8555000   0.0920405   0.1884916  )
         2           Sn  tau(   2) = (   0.1187000   0.0920405   0.0385728  )
         3           Se  tau(   3) = (   0.6445000   0.2761214   0.3836983  )
         4           Sn  tau(   4) = (   0.3813000   0.2761214   0.2337795  )
         5           Se  tau(   5) = (   0.3555000   0.0920405   0.0067151  )
         6           Sn  tau(   6) = (   0.6187000   0.0920405   0.1566338  )
         7           Se  tau(   7) = (   0.1445000   0.2761214   0.2019218  )
         8           Sn  tau(   8) = (   0.8813000   0.2761214   0.3518405  )

   Crystallographic axes

     site n.     atom                  positions (cryst. coord.)
         1           Se  tau(   1) = (  0.8555000  0.2500000  0.4828000  )
         2           Sn  tau(   2) = (  0.1187000  0.2500000  0.0988000  )
         3           Se  tau(   3) = (  0.6445000  0.7500000  0.9828000  )
         4           Sn  tau(   4) = (  0.3813000  0.7500000  0.5988000  )
         5           Se  tau(   5) = (  0.3555000  0.2500000  0.0172000  )
         6           Sn  tau(   6) = (  0.6187000  0.2500000  0.4012000  )
         7           Se  tau(   7) = (  0.1445000  0.7500000  0.5172000  )
         8           Sn  tau(   8) = (  0.8813000  0.7500000  0.9012000  )

     number of k points=    32
                       cart. coord. in units 2pi/alat
        k(    1) = (   0.0000000   0.0000000   0.0000000), wk =   0.0277778
        k(    2) = (   0.0000000   0.0000000   0.4268979), wk =   0.0555556
        k(    3) = (   0.0000000   0.0000000   0.8537959), wk =   0.0555556
        k(    4) = (   0.0000000   0.0000000  -1.2806938), wk =   0.0277778
        k(    5) = (   0.0000000   0.4526995   0.0000000), wk =   0.0555556
        k(    6) = (   0.0000000   0.4526995   0.4268979), wk =   0.1111111
        k(    7) = (   0.0000000   0.4526995   0.8537959), wk =   0.1111111
        k(    8) = (   0.0000000   0.4526995  -1.2806938), wk =   0.0555556
        k(    9) = (   0.0000000   0.9053989   0.0000000), wk =   0.0555556
        k(   10) = (   0.0000000   0.9053989   0.4268979), wk =   0.1111111
        k(   11) = (   0.0000000   0.9053989   0.8537959), wk =   0.1111111
        k(   12) = (   0.0000000   0.9053989  -1.2806938), wk =   0.0555556
        k(   13) = (   0.0000000  -1.3580984   0.0000000), wk =   0.0277778
        k(   14) = (   0.0000000  -1.3580984   0.4268979), wk =   0.0555556
        k(   15) = (   0.0000000  -1.3580984   0.8537959), wk =   0.0555556
        k(   16) = (   0.0000000  -1.3580984  -1.2806938), wk =   0.0277778
        k(   17) = (  -0.5000000   0.0000000   0.0000000), wk =   0.0277778
        k(   18) = (  -0.5000000   0.0000000   0.4268979), wk =   0.0555556
        k(   19) = (  -0.5000000   0.0000000   0.8537959), wk =   0.0555556
        k(   20) = (  -0.5000000   0.0000000  -1.2806938), wk =   0.0277778
        k(   21) = (  -0.5000000   0.4526995   0.0000000), wk =   0.0555556
        k(   22) = (  -0.5000000   0.4526995   0.4268979), wk =   0.1111111
        k(   23) = (  -0.5000000   0.4526995   0.8537959), wk =   0.1111111
        k(   24) = (  -0.5000000   0.4526995  -1.2806938), wk =   0.0555556
        k(   25) = (  -0.5000000   0.9053989   0.0000000), wk =   0.0555556
        k(   26) = (  -0.5000000   0.9053989   0.4268979), wk =   0.1111111
        k(   27) = (  -0.5000000   0.9053989   0.8537959), wk =   0.1111111
        k(   28) = (  -0.5000000   0.9053989  -1.2806938), wk =   0.0555556
        k(   29) = (  -0.5000000  -1.3580984   0.0000000), wk =   0.0277778
        k(   30) = (  -0.5000000  -1.3580984   0.4268979), wk =   0.0555556
        k(   31) = (  -0.5000000  -1.3580984   0.8537959), wk =   0.0555556
        k(   32) = (  -0.5000000  -1.3580984  -1.2806938), wk =   0.0277778

                       cryst. coord.
        k(    1) = (   0.0000000   0.0000000   0.0000000), wk =   0.0277778
        k(    2) = (   0.0000000   0.0000000   0.1666667), wk =   0.0555556
        k(    3) = (   0.0000000   0.0000000   0.3333333), wk =   0.0555556
        k(    4) = (   0.0000000   0.0000000  -0.5000000), wk =   0.0277778
        k(    5) = (   0.0000000   0.1666667   0.0000000), wk =   0.0555556
        k(    6) = (   0.0000000   0.1666667   0.1666667), wk =   0.1111111
        k(    7) = (   0.0000000   0.1666667   0.3333333), wk =   0.1111111
        k(    8) = (   0.0000000   0.1666667  -0.5000000), wk =   0.0555556
        k(    9) = (   0.0000000   0.3333333   0.0000000), wk =   0.0555556
        k(   10) = (   0.0000000   0.3333333   0.1666667), wk =   0.1111111
        k(   11) = (   0.0000000   0.3333333   0.3333333), wk =   0.1111111
        k(   12) = (   0.0000000   0.3333333  -0.5000000), wk =   0.0555556
        k(   13) = (   0.0000000  -0.5000000   0.0000000), wk =   0.0277778
        k(   14) = (   0.0000000  -0.5000000   0.1666667), wk =   0.0555556
        k(   15) = (   0.0000000  -0.5000000   0.3333333), wk =   0.0555556
        k(   16) = (   0.0000000  -0.5000000  -0.5000000), wk =   0.0277778
        k(   17) = (  -0.5000000   0.0000000   0.0000000), wk =   0.0277778
        k(   18) = (  -0.5000000   0.0000000   0.1666667), wk =   0.0555556
        k(   19) = (  -0.5000000   0.0000000   0.3333333), wk =   0.0555556
        k(   20) = (  -0.5000000   0.0000000  -0.5000000), wk =   0.0277778
        k(   21) = (  -0.5000000   0.1666667   0.0000000), wk =   0.0555556
        k(   22) = (  -0.5000000   0.1666667   0.1666667), wk =   0.1111111
        k(   23) = (  -0.5000000   0.1666667   0.3333333), wk =   0.1111111
        k(   24) = (  -0.5000000   0.1666667  -0.5000000), wk =   0.0555556
        k(   25) = (  -0.5000000   0.3333333   0.0000000), wk =   0.0555556
        k(   26) = (  -0.5000000   0.3333333   0.1666667), wk =   0.1111111
        k(   27) = (  -0.5000000   0.3333333   0.3333333), wk =   0.1111111
        k(   28) = (  -0.5000000   0.3333333  -0.5000000), wk =   0.0555556
        k(   29) = (  -0.5000000  -0.5000000   0.0000000), wk =   0.0277778
        k(   30) = (  -0.5000000  -0.5000000   0.1666667), wk =   0.0555556
        k(   31) = (  -0.5000000  -0.5000000   0.3333333), wk =   0.0555556
        k(   32) = (  -0.5000000  -0.5000000  -0.5000000), wk =   0.0277778

     Dense  grid:   125071 G-vectors     FFT dimensions: ( 120,  48,  48)

     Smooth grid:    31669 G-vectors     FFT dimensions: (  80,  30,  30)

     Dynamical RAM for                 wfc:       0.75 MB

     Dynamical RAM for     wfc (w. buffer):      24.90 MB

     Dynamical RAM for           str. fact:       0.95 MB

     Dynamical RAM for           local pot:       0.00 MB

     Dynamical RAM for          nlocal pot:       2.17 MB

     Dynamical RAM for                qrad:       2.78 MB

     Dynamical RAM for          rho,v,vnew:       3.01 MB

     Dynamical RAM for               rhoin:       1.00 MB

     Dynamical RAM for            rho*nmix:       7.63 MB

     Dynamical RAM for           G-vectors:       1.85 MB

     Dynamical RAM for          h,s,v(r/c):       0.11 MB

     Dynamical RAM for          <psi|beta>:       0.11 MB

     Dynamical RAM for                 psi:       1.51 MB

     Dynamical RAM for                hpsi:       1.51 MB

     Dynamical RAM for                spsi:       1.51 MB

     Dynamical RAM for      wfcinit/wfcrot:       1.63 MB

     Dynamical RAM for           addusdens:      90.65 MB

     Dynamical RAM for          addusforce:      93.77 MB

     Estimated static dynamical RAM per process >      48.38 MB

     Estimated max dynamical RAM per process >     142.15 MB

     Estimated total dynamical RAM >     568.58 MB

     Initial potential from superposition of free atoms

     starting charge   75.99954, renormalised to   80.00000
     Starting wfcs are   52 randomized atomic wfcs

     total cpu time spent up to now is        6.3 secs

     Self-consistent Calculation

     iteration #  1     ecut=    30.00 Ry     beta= 0.70
     Davidson diagonalization with overlap
     ethr =  1.00E-02,  avg # of iterations =  3.7

     total cpu time spent up to now is       30.5 secs

     total energy              =    -826.53050306 Ry
     estimated scf accuracy    <       2.64523482 Ry

     iteration #  2     ecut=    30.00 Ry     beta= 0.70
     Davidson diagonalization with overlap
     ethr =  3.31E-03,  avg # of iterations =  2.0

     total cpu time spent up to now is       49.5 secs

     total energy              =    -827.32192849 Ry
     estimated scf accuracy    <       1.10951358 Ry

     iteration #  3     ecut=    30.00 Ry     beta= 0.70
     Davidson diagonalization with overlap
     ethr =  1.39E-03,  avg # of iterations =  2.0

     total cpu time spent up to now is       67.6 secs

     total energy              =    -827.59948442 Ry
     estimated scf accuracy    <       0.06046170 Ry

     iteration #  4     ecut=    30.00 Ry     beta= 0.70
     Davidson diagonalization with overlap
     ethr =  7.56E-05,  avg # of iterations =  3.4

     total cpu time spent up to now is       86.6 secs

     total energy              =    -827.61027374 Ry
     estimated scf accuracy    <       0.00296957 Ry

     iteration #  5     ecut=    30.00 Ry     beta= 0.70
     Davidson diagonalization with overlap
     ethr =  3.71E-06,  avg # of iterations =  5.0

     total cpu time spent up to now is      113.1 secs

     total energy              =    -827.61095149 Ry
     estimated scf accuracy    <       0.00080732 Ry

     iteration #  6     ecut=    30.00 Ry     beta= 0.70
     Davidson diagonalization with overlap
     ethr =  1.01E-06,  avg # of iterations =  3.2

     total cpu time spent up to now is      130.6 secs

     total energy              =    -827.61114462 Ry
     estimated scf accuracy    <       0.00004506 Ry

     iteration #  7     ecut=    30.00 Ry     beta= 0.70
     Davidson diagonalization with overlap
     ethr =  5.63E-08,  avg # of iterations =  4.9

     total cpu time spent up to now is      154.5 secs

     total energy              =    -827.61116722 Ry
     estimated scf accuracy    <       0.00000271 Ry

     iteration #  8     ecut=    30.00 Ry     beta= 0.70
     Davidson diagonalization with overlap
     ethr =  3.39E-09,  avg # of iterations =  2.2

     total cpu time spent up to now is      171.4 secs

     total energy              =    -827.61116804 Ry
     estimated scf accuracy    <       0.00000045 Ry

     iteration #  9     ecut=    30.00 Ry     beta= 0.70
     Davidson diagonalization with overlap
     ethr =  5.63E-10,  avg # of iterations =  2.0

     total cpu time spent up to now is      188.3 secs

     End of self-consistent calculation

          k = 0.0000 0.0000 0.0000 (  3931 PWs)   bands (ev):

   -13.2644 -13.2526 -13.2493 -13.2468 -13.2467 -13.2427 -13.2397 -13.2358
   -13.2315 -13.2307 -13.2301 -13.2230 -13.2156 -13.2091 -13.1946 -13.1894
   -13.1847 -13.1808 -13.1731 -13.1639  -5.7449  -5.3947  -4.6572  -4.1571
     0.8106   1.9484   2.5400   3.0756   3.2311   4.6646   4.7029   4.7776
     5.1834   5.2398   5.8124   6.3125   6.5373   6.9896   7.4018   7.5708
     8.8500  10.9522  11.1005  11.1332  11.3581  11.4517  12.3352  12.6303
    12.7035  12.7434

     occupation numbers 
     1.0000   1.0000   1.0000   1.0000   1.0000   1.0000   1.0000   1.0000
     1.0000   1.0000   1.0000   1.0000   1.0000   1.0000   1.0000   1.0000
     1.0000   1.0000   1.0000   1.0000   1.0000   1.0000   1.0000   1.0000
     1.0000   1.0000   1.0000   1.0000   1.0000   1.0000   1.0000   1.0000
     1.0000   1.0000   1.0000   1.0000   1.0000   1.0000   1.0000   1.0000
     0.0000   0.0000   0.0000   0.0000   0.0000   0.0000   0.0000   0.0000
     0.0000   0.0000

          k = 0.0000 0.0000 0.4269 (  3931 PWs)   bands (ev):

   -13.2628 -13.2512 -13.2495 -13.2481 -13.2459 -13.2448 -13.2403 -13.2367
   -13.2309 -13.2288 -13.2265 -13.2233 -13.2147 -13.2097 -13.1946 -13.1887
   -13.1858 -13.1816 -13.1724 -13.1645  -5.6267  -5.2864  -4.6437  -4.1890
     0.4460   1.7102   1.9313   2.6888   3.2172   4.8196   4.8455   5.3362
     5.3467   5.9071   5.9292   6.5194   6.5935   7.1001   7.4481   7.5881
     8.9720  10.0951  10.7266  10.9031  11.1424  11.4583  11.9020  12.0702
    12.5330  12.7689

     occupation numbers 
     1.0000   1.0000   1.0000   1.0000   1.0000   1.0000   1.0000   1.0000
     1.0000   1.0000   1.0000   1.0000   1.0000   1.0000   1.0000   1.0000
     1.0000   1.0000   1.0000   1.0000   1.0000   1.0000   1.0000   1.0000
     1.0000   1.0000   1.0000   1.0000   1.0000   1.0000   1.0000   1.0000
     1.0000   1.0000   1.0000   1.0000   1.0000   1.0000   1.0000   1.0000
     0.0000   0.0000   0.0000   0.0000   0.0000   0.0000   0.0000   0.0000
     0.0000   0.0000

          k = 0.0000 0.0000 0.8538 (  3938 PWs)   bands (ev):

   -13.2588 -13.2509 -13.2504 -13.2486 -13.2483 -13.2449 -13.2414 -13.2391
   -13.2290 -13.2245 -13.2227 -13.2201 -13.2139 -13.2117 -13.1938 -13.1883
   -13.1870 -13.1833 -13.1707 -13.1661  -5.3108  -4.9949  -4.6874  -4.3295
    -0.0231   0.8105   1.3645   1.9823   3.6449   5.0253   5.3399   5.7850
     6.1146   6.1257   6.3727   6.6097   6.8459   7.4427   7.5935   8.1007
     8.9980   9.5570   9.5826   9.7395  10.4732  10.5777  11.0931  11.2240
    11.9943  12.1204

     occupation numbers 
     1.0000   1.0000   1.0000   1.0000   1.0000   1.0000   1.0000   1.0000
     1.0000   1.0000   1.0000   1.0000   1.0000   1.0000   1.0000   1.0000
     1.0000   1.0000   1.0000   1.0000   1.0000   1.0000   1.0000   1.0000
     1.0000   1.0000   1.0000   1.0000   1.0000   1.0000   1.0000   1.0000
     1.0000   1.0000   1.0000   1.0000   1.0000   1.0000   1.0000   1.0000
     0.0000   0.0000   0.0000   0.0000   0.0000   0.0000   0.0000   0.0000
     0.0000   0.0000

          k = 0.0000 0.0000-1.2807 (  3962 PWs)   bands (ev):

   -13.2542 -13.2542 -13.2510 -13.2510 -13.2458 -13.2458 -13.2412 -13.2412
   -13.2266 -13.2266 -13.2163 -13.2163 -13.2150 -13.2150 -13.1914 -13.1914
   -13.1851 -13.1851 -13.1684 -13.1684  -4.9301  -4.9301  -4.6254  -4.6254
     0.0659   0.0659   1.4334   1.4334   4.3918   4.3918   5.9311   5.9311
     6.3081   6.3081   6.6806   6.6806   7.2617   7.2617   7.7980   7.7980
     9.3232   9.3232   9.6527   9.6527   9.7902   9.7902  10.7617  10.7617
    11.2263  11.2263

     occupation numbers 
     1.0000   1.0000   1.0000   1.0000   1.0000   1.0000   1.0000   1.0000
     1.0000   1.0000   1.0000   1.0000   1.0000   1.0000   1.0000   1.0000
     1.0000   1.0000   1.0000   1.0000   1.0000   1.0000   1.0000   1.0000
     1.0000   1.0000   1.0000   1.0000   1.0000   1.0000   1.0000   1.0000
     1.0000   1.0000   1.0000   1.0000   1.0000   1.0000   1.0000   1.0000
     0.0000   0.0000   0.0000   0.0000   0.0000   0.0000   0.0000   0.0000
     0.0000   0.0000

          k = 0.0000 0.4527 0.0000 (  3940 PWs)   bands (ev):

   -13.2584 -13.2505 -13.2489 -13.2461 -13.2446 -13.2442 -13.2437 -13.2385
   -13.2343 -13.2280 -13.2267 -13.2251 -13.2118 -13.2102 -13.1916 -13.1911
   -13.1842 -13.1827 -13.1731 -13.1660  -5.5967  -5.2692  -4.5953  -4.1685
     0.6094   1.5558   2.3405   2.3701   3.2415   4.6352   4.9632   5.0888
     5.1750   5.4001   6.1264   6.3957   6.5262   7.4140   7.4279   7.4291
     9.0709   9.9289  10.8654  11.1296  11.2222  11.4509  11.8189  11.8720
    12.5555  13.1388

     occupation numbers 
     1.0000   1.0000   1.0000   1.0000   1.0000   1.0000   1.0000   1.0000
     1.0000   1.0000   1.0000   1.0000   1.0000   1.0000   1.0000   1.0000
     1.0000   1.0000   1.0000   1.0000   1.0000   1.0000   1.0000   1.0000
     1.0000   1.0000   1.0000   1.0000   1.0000   1.0000   1.0000   1.0000
     1.0000   1.0000   1.0000   1.0000   1.0000   1.0000   1.0000   1.0000
     0.0000   0.0000   0.0000   0.0000   0.0000   0.0000   0.0000   0.0000
     0.0000   0.0000

          k = 0.0000 0.4527 0.4269 (  3956 PWs)   bands (ev):

   -13.2580 -13.2506 -13.2503 -13.2456 -13.2451 -13.2445 -13.2430 -13.2406
   -13.2336 -13.2268 -13.2252 -13.2226 -13.2125 -13.2094 -13.1921 -13.1901
   -13.1848 -13.1837 -13.1726 -13.1664  -5.4829  -5.1661  -4.5805  -4.1907
     0.4169   1.5342   1.8463   2.2901   3.3530   4.1014   4.3258   5.4227
     5.5931   5.9109   6.0314   6.3517   7.0717   7.2032   7.5522   7.6544
     9.1850   9.6449  10.1426  10.1817  11.1831  11.3149  11.8781  12.0796
    12.5652  12.9668

     occupation numbers 
     1.0000   1.0000   1.0000   1.0000   1.0000   1.0000   1.0000   1.0000
     1.0000   1.0000   1.0000   1.0000   1.0000   1.0000   1.0000   1.0000
     1.0000   1.0000   1.0000   1.0000   1.0000   1.0000   1.0000   1.0000
     1.0000   1.0000   1.0000   1.0000   1.0000   1.0000   1.0000   1.0000
     1.0000   1.0000   1.0000   1.0000   1.0000   1.0000   1.0000   1.0000
     0.0000   0.0000   0.0000   0.0000   0.0000   0.0000   0.0000   0.0000
     0.0000   0.0000

          k = 0.0000 0.4527 0.8538 (  3945 PWs)   bands (ev):

   -13.2577 -13.2543 -13.2497 -13.2471 -13.2453 -13.2447 -13.2438 -13.2416
   -13.2313 -13.2276 -13.2197 -13.2170 -13.2131 -13.2096 -13.1913 -13.1885
   -13.1866 -13.1854 -13.1711 -13.1675  -5.1825  -4.8924  -4.6138  -4.3014
     0.1279   0.9281   1.4477   1.9229   3.7932   4.0954   4.2797   5.3108
     5.4686   5.8016   6.2095   6.6205   7.0339   7.3124   7.3999   7.6194
     9.1867   9.4915   9.9494  10.2738  10.7651  11.1151  11.3052  12.3518
    12.6224  12.9049

     occupation numbers 
     1.0000   1.0000   1.0000   1.0000   1.0000   1.0000   1.0000   1.0000
     1.0000   1.0000   1.0000   1.0000   1.0000   1.0000   1.0000   1.0000
     1.0000   1.0000   1.0000   1.0000   1.0000   1.0000   1.0000   1.0000
     1.0000   1.0000   1.0000   1.0000   1.0000   1.0000   1.0000   1.0000
     1.0000   1.0000   1.0000   1.0000   1.0000   1.0000   1.0000   1.0000
     0.0000   0.0000   0.0000   0.0000   0.0000   0.0000   0.0000   0.0000
     0.0000   0.0000

          k = 0.0000 0.4527-1.2807 (  3944 PWs)   bands (ev):

   -13.2570 -13.2570 -13.2482 -13.2482 -13.2466 -13.2466 -13.2420 -13.2420
   -13.2291 -13.2291 -13.2152 -13.2152 -13.2120 -13.2120 -13.1891 -13.1891
   -13.1869 -13.1869 -13.1692 -13.1692  -4.8297  -4.8297  -4.5563  -4.5563
     0.2526   0.2526   1.5392   1.5392   4.3070   4.3070   4.7848   4.7848
     5.3267   5.3267   6.2957   6.2957   7.1479   7.1479   7.5556   7.5556
     9.2800   9.2800  10.0911  10.0911  11.2593  11.2593  11.7221  11.7221
    12.2948  12.2948

     occupation numbers 
     1.0000   1.0000   1.0000   1.0000   1.0000   1.0000   1.0000   1.0000
     1.0000   1.0000   1.0000   1.0000   1.0000   1.0000   1.0000   1.0000
     1.0000   1.0000   1.0000   1.0000   1.0000   1.0000   1.0000   1.0000
     1.0000   1.0000   1.0000   1.0000   1.0000   1.0000   1.0000   1.0000
     1.0000   1.0000   1.0000   1.0000   1.0000   1.0000   1.0000   1.0000
     0.0000   0.0000   0.0000   0.0000   0.0000   0.0000   0.0000   0.0000
     0.0000   0.0000

          k = 0.0000 0.9054 0.0000 (  3964 PWs)   bands (ev):

   -13.2551 -13.2525 -13.2518 -13.2498 -13.2413 -13.2412 -13.2395 -13.2355
   -13.2332 -13.2307 -13.2258 -13.2166 -13.2145 -13.2064 -13.1958 -13.1940
   -13.1847 -13.1783 -13.1728 -13.1705  -5.1936  -4.9485  -4.5078  -4.2990
     0.2647   1.0176   1.1502   1.6786   3.7031   4.9717   5.3130   5.4430
     5.5139   5.7680   6.3580   6.5076   6.8491   7.1981   7.3288   7.9133
     8.6735   9.5507   9.8464   9.8706  10.1042  10.6282  10.6769  11.5185
    11.8998  12.2770

     occupation numbers 
     1.0000   1.0000   1.0000   1.0000   1.0000   1.0000   1.0000   1.0000
     1.0000   1.0000   1.0000   1.0000   1.0000   1.0000   1.0000   1.0000
     1.0000   1.0000   1.0000   1.0000   1.0000   1.0000   1.0000   1.0000
     1.0000   1.0000   1.0000   1.0000   1.0000   1.0000   1.0000   1.0000
     1.0000   1.0000   1.0000   1.0000   1.0000   1.0000   1.0000   1.0000
     0.0000   0.0000   0.0000   0.0000   0.0000   0.0000   0.0000   0.0000
     0.0000   0.0000

          k = 0.0000 0.9054 0.4269 (  3958 PWs)   bands (ev):

   -13.2585 -13.2556 -13.2532 -13.2513 -13.2421 -13.2388 -13.2386 -13.2352
   -13.2318 -13.2303 -13.2239 -13.2152 -13.2146 -13.2064 -13.1951 -13.1935
   -13.1847 -13.1791 -13.1724 -13.1704  -5.0968  -4.8636  -4.4835  -4.2879
     0.3394   1.1582   1.2315   1.6069   3.8368   3.9321   4.2983   5.1351
     5.5233   5.8409   6.1388   6.4913   6.6528   7.1568   7.2962   7.3772
     9.1189   9.5081   9.6896  10.0194  10.8091  11.3545  11.5185  12.0208
    12.4959  12.8363

     occupation numbers 
     1.0000   1.0000   1.0000   1.0000   1.0000   1.0000   1.0000   1.0000
     1.0000   1.0000   1.0000   1.0000   1.0000   1.0000   1.0000   1.0000
     1.0000   1.0000   1.0000   1.0000   1.0000   1.0000   1.0000   1.0000
     1.0000   1.0000   1.0000   1.0000   1.0000   1.0000   1.0000   1.0000
     1.0000   1.0000   1.0000   1.0000   1.0000   1.0000   1.0000   1.0000
     0.0000   0.0000   0.0000   0.0000   0.0000   0.0000   0.0000   0.0000
     0.0000   0.0000

          k = 0.0000 0.9054 0.8538 (  3965 PWs)   bands (ev):

   -13.2637 -13.2616 -13.2565 -13.2554 -13.2409 -13.2376 -13.2363 -13.2350
   -13.2299 -13.2295 -13.2195 -13.2146 -13.2116 -13.2069 -13.1937 -13.1927
   -13.1842 -13.1808 -13.1715 -13.1702  -4.8528  -4.6509  -4.4730  -4.3017
     0.5070   1.1413   1.4841   1.5839   3.2537   3.6320   4.0738   4.3209
     4.8135   5.2026   5.5160   5.9067   6.2229   6.4870   6.9825   7.2687
     9.0701  10.7103  11.0516  11.2273  11.7023  11.7027  12.5132  12.6818
    13.0215  13.1346

     occupation numbers 
     1.0000   1.0000   1.0000   1.0000   1.0000   1.0000   1.0000   1.0000
     1.0000   1.0000   1.0000   1.0000   1.0000   1.0000   1.0000   1.0000
     1.0000   1.0000   1.0000   1.0000   1.0000   1.0000   1.0000   1.0000
     1.0000   1.0000   1.0000   1.0000   1.0000   1.0000   1.0000   1.0000
     1.0000   1.0000   1.0000   1.0000   1.0000   1.0000   1.0000   1.0000
     0.0000   0.0000   0.0000   0.0000   0.0000   0.0000   0.0000   0.0000
     0.0000   0.0000

          k = 0.0000 0.9054-1.2807 (  3958 PWs)   bands (ev):

   -13.2652 -13.2652 -13.2579 -13.2579 -13.2390 -13.2390 -13.2351 -13.2351
   -13.2290 -13.2290 -13.2159 -13.2159 -13.2084 -13.2084 -13.1926 -13.1926
   -13.1826 -13.1826 -13.1706 -13.1706  -4.5961  -4.5961  -4.4248  -4.4248
     0.7587   0.7587   1.6654   1.6654   3.4409   3.4409   3.8587   3.8587
     4.7529   4.7529   5.4207   5.4207   6.0380   6.0380   6.9422   6.9422
    10.0436  10.0436  11.6706  11.6706  12.7856  12.7856  12.8423  12.8423
    12.9953  12.9953

     occupation numbers 
     1.0000   1.0000   1.0000   1.0000   1.0000   1.0000   1.0000   1.0000
     1.0000   1.0000   1.0000   1.0000   1.0000   1.0000   1.0000   1.0000
     1.0000   1.0000   1.0000   1.0000   1.0000   1.0000   1.0000   1.0000
     1.0000   1.0000   1.0000   1.0000   1.0000   1.0000   1.0000   1.0000
     1.0000   1.0000   1.0000   1.0000   1.0000   1.0000   1.0000   1.0000
     0.0000   0.0000   0.0000   0.0000   0.0000   0.0000   0.0000   0.0000
     0.0000   0.0000

          k = 0.0000-1.3581 0.0000 (  3994 PWs)   bands (ev):

   -13.2568 -13.2568 -13.2528 -13.2528 -13.2381 -13.2381 -13.2362 -13.2362
   -13.2272 -13.2272 -13.2235 -13.2235 -13.2060 -13.2060 -13.2012 -13.2012
   -13.1768 -13.1768 -13.1742 -13.1742  -4.6804  -4.6804  -4.6169  -4.6169
     0.3596   0.3596   1.0563   1.0563   4.4860   4.4860   5.8510   5.8510
     5.8661   5.8661   6.3783   6.3783   7.1095   7.1095   7.3083   7.3083
     9.1111   9.1111   9.5462   9.5462   9.8214   9.8214  10.6279  10.6279
    11.3374  11.3374

     occupation numbers 
     1.0000   1.0000   1.0000   1.0000   1.0000   1.0000   1.0000   1.0000
     1.0000   1.0000   1.0000   1.0000   1.0000   1.0000   1.0000   1.0000
     1.0000   1.0000   1.0000   1.0000   1.0000   1.0000   1.0000   1.0000
     1.0000   1.0000   1.0000   1.0000   1.0000   1.0000   1.0000   1.0000
     1.0000   1.0000   1.0000   1.0000   1.0000   1.0000   1.0000   1.0000
     0.0000   0.0000   0.0000   0.0000   0.0000   0.0000   0.0000   0.0000
     0.0000   0.0000

          k = 0.0000-1.3581 0.4269 (  3980 PWs)   bands (ev):

   -13.2601 -13.2601 -13.2552 -13.2552 -13.2379 -13.2379 -13.2343 -13.2343
   -13.2268 -13.2268 -13.2222 -13.2222 -13.2068 -13.2068 -13.1993 -13.1993
   -13.1776 -13.1776 -13.1734 -13.1734  -4.6205  -4.6205  -4.5644  -4.5644
     0.5224   0.5224   1.1555   1.1555   4.3397   4.3397   4.6836   4.6836
     5.3968   5.3968   6.2253   6.2253   6.5254   6.5254   7.4503   7.4503
     8.9837   8.9837  10.1643  10.1643  11.0851  11.0851  11.6285  11.6285
    12.2892  12.2892

     occupation numbers 
     1.0000   1.0000   1.0000   1.0000   1.0000   1.0000   1.0000   1.0000
     1.0000   1.0000   1.0000   1.0000   1.0000   1.0000   1.0000   1.0000
     1.0000   1.0000   1.0000   1.0000   1.0000   1.0000   1.0000   1.0000
     1.0000   1.0000   1.0000   1.0000   1.0000   1.0000   1.0000   1.0000
     1.0000   1.0000   1.0000   1.0000   1.0000   1.0000   1.0000   1.0000
     0.0000   0.0000   0.0000   0.0000   0.0000   0.0000   0.0000   0.0000
     0.0000   0.0000

          k = 0.0000-1.3581 0.8538 (  3958 PWs)   bands (ev):

   -13.2665 -13.2665 -13.2600 -13.2600 -13.2374 -13.2374 -13.2317 -13.2317
   -13.2258 -13.2258 -13.2200 -13.2200 -13.2069 -13.2069 -13.1965 -13.1965
   -13.1784 -13.1784 -13.1725 -13.1725  -4.4912  -4.4912  -4.4568  -4.4568
     0.9502   0.9502   1.3624   1.3624   3.4456   3.4456   3.9830   3.9830
     4.6948   4.6948   5.5273   5.5273   5.7406   5.7406   6.9360   6.9360
    10.0284  10.0284  11.5344  11.5344  12.5159  12.5159  12.6278  12.6278
    12.8950  12.8950

     occupation numbers 
     1.0000   1.0000   1.0000   1.0000   1.0000   1.0000   1.0000   1.0000
     1.0000   1.0000   1.0000   1.0000   1.0000   1.0000   1.0000   1.0000
     1.0000   1.0000   1.0000   1.0000   1.0000   1.0000   1.0000   1.0000
     1.0000   1.0000   1.0000   1.0000   1.0000   1.0000   1.0000   1.0000
     1.0000   1.0000   1.0000   1.0000   1.0000   1.0000   1.0000   1.0000
     0.0000   0.0000   0.0000   0.0000   0.0000   0.0000   0.0000   0.0000
     0.0000   0.0000

          k = 0.0000-1.3581-1.2807 (  3956 PWs)   bands (ev):

   -13.2695 -13.2695 -13.2623 -13.2623 -13.2373 -13.2373 -13.2306 -13.2306
   -13.2253 -13.2253 -13.2193 -13.2193 -13.2064 -13.2064 -13.1954 -13.1954
   -13.1785 -13.1785 -13.1722 -13.1722  -4.4164  -4.4164  -4.4066  -4.4066
     1.2905   1.2905   1.4406   1.4406   3.0384   3.0384   3.5543   3.5543
     4.4694   4.4694   4.9508   4.9508   5.8025   5.8025   6.6445   6.6445
    10.8687  10.8687  11.1765  11.1765  12.8461  12.8461  12.9790  12.9790
    13.7140  13.7140

     occupation numbers 
     1.0000   1.0000   1.0000   1.0000   1.0000   1.0000   1.0000   1.0000
     1.0000   1.0000   1.0000   1.0000   1.0000   1.0000   1.0000   1.0000
     1.0000   1.0000   1.0000   1.0000   1.0000   1.0000   1.0000   1.0000
     1.0000   1.0000   1.0000   1.0000   1.0000   1.0000   1.0000   1.0000
     1.0000   1.0000   1.0000   1.0000   1.0000   1.0000   1.0000   1.0000
     0.0000   0.0000   0.0000   0.0000   0.0000   0.0000   0.0000   0.0000
     0.0000   0.0000

          k =-0.5000 0.0000 0.0000 (  3930 PWs)   bands (ev):

   -13.2587 -13.2587 -13.2488 -13.2488 -13.2454 -13.2454 -13.2370 -13.2370
   -13.2296 -13.2296 -13.2277 -13.2277 -13.2123 -13.2123 -13.1919 -13.1919
   -13.1826 -13.1826 -13.1681 -13.1681  -5.6052  -5.6052  -4.3721  -4.3721
     1.1509   1.1509   3.0236   3.0236   4.0136   4.0136   4.8563   4.8563
     5.2137   5.2137   6.0090   6.0090   6.2403   6.2403   7.5340   7.5340
    10.6766  10.6766  10.8772  10.8772  11.7692  11.7692  12.0004  12.0004
    13.0959  13.0959

     occupation numbers 
     1.0000   1.0000   1.0000   1.0000   1.0000   1.0000   1.0000   1.0000
     1.0000   1.0000   1.0000   1.0000   1.0000   1.0000   1.0000   1.0000
     1.0000   1.0000   1.0000   1.0000   1.0000   1.0000   1.0000   1.0000
     1.0000   1.0000   1.0000   1.0000   1.0000   1.0000   1.0000   1.0000
     1.0000   1.0000   1.0000   1.0000   1.0000   1.0000   1.0000   1.0000
     0.0000   0.0000   0.0000   0.0000   0.0000   0.0000   0.0000   0.0000
     0.0000   0.0000

          k =-0.5000 0.0000 0.4269 (  3960 PWs)   bands (ev):

   -13.2577 -13.2577 -13.2477 -13.2477 -13.2467 -13.2467 -13.2384 -13.2384
   -13.2273 -13.2273 -13.2270 -13.2270 -13.2124 -13.2124 -13.1918 -13.1918
   -13.1833 -13.1833 -13.1682 -13.1682  -5.4919  -5.4919  -4.3809  -4.3809
     0.8262   0.8262   2.4655   2.4655   4.2530   4.2530   5.0307   5.0307
     5.4502   5.4502   6.3256   6.3256   6.5540   6.5540   7.4493   7.4493
    10.3865  10.3865  11.0385  11.0385  11.0727  11.0727  11.5717  11.5717
    12.9473  12.9474

     occupation numbers 
     1.0000   1.0000   1.0000   1.0000   1.0000   1.0000   1.0000   1.0000
     1.0000   1.0000   1.0000   1.0000   1.0000   1.0000   1.0000   1.0000
     1.0000   1.0000   1.0000   1.0000   1.0000   1.0000   1.0000   1.0000
     1.0000   1.0000   1.0000   1.0000   1.0000   1.0000   1.0000   1.0000
     1.0000   1.0000   1.0000   1.0000   1.0000   1.0000   1.0000   1.0000
     0.0000   0.0000   0.0000   0.0000   0.0000   0.0000   0.0000   0.0000
     0.0000   0.0000

          k =-0.5000 0.0000 0.8538 (  3962 PWs)   bands (ev):

   -13.2554 -13.2554 -13.2491 -13.2491 -13.2463 -13.2463 -13.2411 -13.2411
   -13.2264 -13.2264 -13.2210 -13.2210 -13.2131 -13.2131 -13.1914 -13.1914
   -13.1848 -13.1848 -13.1683 -13.1683  -5.1940  -5.1940  -4.4677  -4.4677
     0.3273   0.3273   1.6293   1.6293   4.6966   4.6966   5.5004   5.5004
     5.8621   5.8621   6.4282   6.4282   6.9836   6.9836   7.7569   7.7569
     9.5844   9.5844  10.0733  10.0733  10.4143  10.4143  11.5187  11.5187
    11.7125  11.7125

     occupation numbers 
     1.0000   1.0000   1.0000   1.0000   1.0000   1.0000   1.0000   1.0000
     1.0000   1.0000   1.0000   1.0000   1.0000   1.0000   1.0000   1.0000
     1.0000   1.0000   1.0000   1.0000   1.0000   1.0000   1.0000   1.0000
     1.0000   1.0000   1.0000   1.0000   1.0000   1.0000   1.0000   1.0000
     1.0000   1.0000   1.0000   1.0000   1.0000   1.0000   1.0000   1.0000
     0.0000   0.0000   0.0000   0.0000   0.0000   0.0000   0.0000   0.0000
     0.0000   0.0000

          k =-0.5000 0.0000-1.2807 (  3956 PWs)   bands (ev):

   -13.2540 -13.2540 -13.2503 -13.2503 -13.2461 -13.2461 -13.2424 -13.2424
   -13.2260 -13.2260 -13.2159 -13.2159 -13.2154 -13.2154 -13.1910 -13.1910
   -13.1855 -13.1855 -13.1684 -13.1684  -4.9270  -4.9270  -4.6299  -4.6299
     0.1457   0.1457   1.2467   1.2467   5.2440   5.2440   5.4917   5.4917
     5.9444   5.9444   6.2885   6.2885   7.5422   7.5422   7.8131   7.8131
     9.3030   9.3030   9.7159   9.7159   9.7720   9.7720  11.1192  11.1192
    11.4691  11.4691

     occupation numbers 
     1.0000   1.0000   1.0000   1.0000   1.0000   1.0000   1.0000   1.0000
     1.0000   1.0000   1.0000   1.0000   1.0000   1.0000   1.0000   1.0000
     1.0000   1.0000   1.0000   1.0000   1.0000   1.0000   1.0000   1.0000
     1.0000   1.0000   1.0000   1.0000   1.0000   1.0000   1.0000   1.0000
     1.0000   1.0000   1.0000   1.0000   1.0000   1.0000   1.0000   1.0000
     0.0000   0.0000   0.0000   0.0000   0.0000   0.0000   0.0000   0.0000
     0.0000   0.0000

          k =-0.5000 0.4527 0.0000 (  3950 PWs)   bands (ev):

   -13.2544 -13.2544 -13.2477 -13.2477 -13.2458 -13.2458 -13.2402 -13.2402
   -13.2306 -13.2306 -13.2259 -13.2259 -13.2112 -13.2112 -13.1908 -13.1908
   -13.1839 -13.1839 -13.1694 -13.1694  -5.4653  -5.4653  -4.3489  -4.3489
     0.9292   0.9292   2.4353   2.4353   4.1479   4.1479   4.8583   4.8583
     5.5303   5.5303   6.1254   6.1254   6.3958   6.3958   7.5922   7.5922
    10.3752  10.3752  10.8687  10.8687  11.3506  11.3506  11.5985  11.5985
    12.8770  12.8771

     occupation numbers 
     1.0000   1.0000   1.0000   1.0000   1.0000   1.0000   1.0000   1.0000
     1.0000   1.0000   1.0000   1.0000   1.0000   1.0000   1.0000   1.0000
     1.0000   1.0000   1.0000   1.0000   1.0000   1.0000   1.0000   1.0000
     1.0000   1.0000   1.0000   1.0000   1.0000   1.0000   1.0000   1.0000
     1.0000   1.0000   1.0000   1.0000   1.0000   1.0000   1.0000   1.0000
     0.0000   0.0000   0.0000   0.0000   0.0000   0.0000   0.0000   0.0000
     0.0000   0.0000

          k =-0.5000 0.4527 0.4269 (  3948 PWs)   bands (ev):

   -13.2544 -13.2544 -13.2488 -13.2488 -13.2449 -13.2449 -13.2412 -13.2412
   -13.2300 -13.2300 -13.2236 -13.2236 -13.2113 -13.2113 -13.1905 -13.1905
   -13.1847 -13.1847 -13.1692 -13.1692  -5.3567  -5.3567  -4.3527  -4.3527
     0.7829   0.7829   2.1682   2.1682   4.1303   4.1303   4.6538   4.6538
     5.4448   5.4448   6.2625   6.2625   7.0759   7.0759   7.5537   7.5537
     9.6839   9.6839  10.7553  10.7553  11.2329  11.2329  11.6457  11.6457
    12.4780  12.4780

     occupation numbers 
     1.0000   1.0000   1.0000   1.0000   1.0000   1.0000   1.0000   1.0000
     1.0000   1.0000   1.0000   1.0000   1.0000   1.0000   1.0000   1.0000
     1.0000   1.0000   1.0000   1.0000   1.0000   1.0000   1.0000   1.0000
     1.0000   1.0000   1.0000   1.0000   1.0000   1.0000   1.0000   1.0000
     1.0000   1.0000   1.0000   1.0000   1.0000   1.0000   1.0000   1.0000
     0.0000   0.0000   0.0000   0.0000   0.0000   0.0000   0.0000   0.0000
     0.0000   0.0000

          k =-0.5000 0.4527 0.8538 (  3942 PWs)   bands (ev):

   -13.2551 -13.2551 -13.2511 -13.2511 -13.2440 -13.2440 -13.2418 -13.2418
   -13.2291 -13.2291 -13.2187 -13.2187 -13.2114 -13.2114 -13.1897 -13.1897
   -13.1866 -13.1866 -13.1689 -13.1689  -5.0745  -5.0745  -4.4209  -4.4209
     0.4678   0.4678   1.6531   1.6531   4.1814   4.1814   4.9882   4.9882
     5.2406   5.2406   6.4376   6.4376   6.8977   6.8977   7.5449   7.5449
     9.7405   9.7405  10.3769  10.3769  10.9213  10.9213  11.5660  11.5660
    12.5072  12.5072

     occupation numbers 
     1.0000   1.0000   1.0000   1.0000   1.0000   1.0000   1.0000   1.0000
     1.0000   1.0000   1.0000   1.0000   1.0000   1.0000   1.0000   1.0000
     1.0000   1.0000   1.0000   1.0000   1.0000   1.0000   1.0000   1.0000
     1.0000   1.0000   1.0000   1.0000   1.0000   1.0000   1.0000   1.0000
     1.0000   1.0000   1.0000   1.0000   1.0000   1.0000   1.0000   1.0000
     0.0000   0.0000   0.0000   0.0000   0.0000   0.0000   0.0000   0.0000
     0.0000   0.0000

          k =-0.5000 0.4527-1.2807 (  3956 PWs)   bands (ev):

   -13.2559 -13.2559 -13.2522 -13.2522 -13.2439 -13.2439 -13.2417 -13.2417
   -13.2287 -13.2287 -13.2157 -13.2157 -13.2119 -13.2119 -13.1885 -13.1885
   -13.1882 -13.1882 -13.1688 -13.1688  -4.8270  -4.8270  -4.5601  -4.5601
     0.3225   0.3225   1.3806   1.3806   4.5934   4.5934   4.7892   4.7892
     5.5566   5.5566   5.9757   5.9757   6.8255   6.8255   7.3424   7.3424
    10.2027  10.2027  10.2599  10.2599  10.7889  10.7889  11.5287  11.5287
    12.4458  12.4458

     occupation numbers 
     1.0000   1.0000   1.0000   1.0000   1.0000   1.0000   1.0000   1.0000
     1.0000   1.0000   1.0000   1.0000   1.0000   1.0000   1.0000   1.0000
     1.0000   1.0000   1.0000   1.0000   1.0000   1.0000   1.0000   1.0000
     1.0000   1.0000   1.0000   1.0000   1.0000   1.0000   1.0000   1.0000
     1.0000   1.0000   1.0000   1.0000   1.0000   1.0000   1.0000   1.0000
     0.0000   0.0000   0.0000   0.0000   0.0000   0.0000   0.0000   0.0000
     0.0000   0.0000

          k =-0.5000 0.9054 0.0000 (  3970 PWs)   bands (ev):

   -13.2546 -13.2546 -13.2500 -13.2500 -13.2404 -13.2404 -13.2391 -13.2391
   -13.2313 -13.2313 -13.2226 -13.2226 -13.2090 -13.2090 -13.1952 -13.1952
   -13.1812 -13.1812 -13.1717 -13.1717  -5.0926  -5.0926  -4.3808  -4.3808
     0.5642   0.5642   1.4042   1.4042   4.6058   4.6058   5.2271   5.2271
     5.9051   5.9051   6.2331   6.2331   6.5498   6.5498   7.6372   7.6372
     9.2254   9.2254  10.1314  10.1314  10.8914  10.8914  11.2865  11.2865
    11.6743  11.6743

     occupation numbers 
     1.0000   1.0000   1.0000   1.0000   1.0000   1.0000   1.0000   1.0000
     1.0000   1.0000   1.0000   1.0000   1.0000   1.0000   1.0000   1.0000
     1.0000   1.0000   1.0000   1.0000   1.0000   1.0000   1.0000   1.0000
     1.0000   1.0000   1.0000   1.0000   1.0000   1.0000   1.0000   1.0000
     1.0000   1.0000   1.0000   1.0000   1.0000   1.0000   1.0000   1.0000
     0.0000   0.0000   0.0000   0.0000   0.0000   0.0000   0.0000   0.0000
     0.0000   0.0000

          k =-0.5000 0.9054 0.4269 (  3966 PWs)   bands (ev):

   -13.2570 -13.2570 -13.2525 -13.2525 -13.2396 -13.2396 -13.2381 -13.2381
   -13.2304 -13.2304 -13.2212 -13.2212 -13.2086 -13.2086 -13.1951 -13.1951
   -13.1814 -13.1814 -13.1714 -13.1714  -5.0014  -5.0014  -4.3639  -4.3639
     0.6605   0.6605   1.4303   1.4303   4.0812   4.0812   4.9046   4.9046
     5.3418   5.3418   6.3189   6.3189   6.6201   6.6201   7.3893   7.3893
     9.7141   9.7141  10.0905  10.0905  11.1660  11.1660  11.5653  11.5653
    12.1003  12.1003

     occupation numbers 
     1.0000   1.0000   1.0000   1.0000   1.0000   1.0000   1.0000   1.0000
     1.0000   1.0000   1.0000   1.0000   1.0000   1.0000   1.0000   1.0000
     1.0000   1.0000   1.0000   1.0000   1.0000   1.0000   1.0000   1.0000
     1.0000   1.0000   1.0000   1.0000   1.0000   1.0000   1.0000   1.0000
     1.0000   1.0000   1.0000   1.0000   1.0000   1.0000   1.0000   1.0000
     0.0000   0.0000   0.0000   0.0000   0.0000   0.0000   0.0000   0.0000
     0.0000   0.0000

          k =-0.5000 0.9054 0.8538 (  3944 PWs)   bands (ev):

   -13.2616 -13.2616 -13.2573 -13.2573 -13.2386 -13.2386 -13.2364 -13.2364
   -13.2288 -13.2288 -13.2188 -13.2188 -13.2071 -13.2071 -13.1947 -13.1947
   -13.1817 -13.1817 -13.1709 -13.1709  -4.7753  -4.7753  -4.3640  -4.3640
     0.7956   0.7956   1.5058   1.5058   3.4934   3.4934   4.3754   4.3754
     4.9033   4.9033   5.5650   5.5650   6.3450   6.3450   7.0955   7.0955
    10.4152  10.4152  11.0024  11.0024  11.1990  11.1990  12.4986  12.4986
    12.6833  12.6833

     occupation numbers 
     1.0000   1.0000   1.0000   1.0000   1.0000   1.0000   1.0000   1.0000
     1.0000   1.0000   1.0000   1.0000   1.0000   1.0000   1.0000   1.0000
     1.0000   1.0000   1.0000   1.0000   1.0000   1.0000   1.0000   1.0000
     1.0000   1.0000   1.0000   1.0000   1.0000   1.0000   1.0000   1.0000
     1.0000   1.0000   1.0000   1.0000   1.0000   1.0000   1.0000   1.0000
     0.0000   0.0000   0.0000   0.0000   0.0000   0.0000   0.0000   0.0000
     0.0000   0.0000

          k =-0.5000 0.9054-1.2807 (  3968 PWs)   bands (ev):

   -13.2638 -13.2638 -13.2597 -13.2597 -13.2382 -13.2382 -13.2358 -13.2358
   -13.2281 -13.2281 -13.2177 -13.2177 -13.2061 -13.2061 -13.1945 -13.1945
   -13.1818 -13.1818 -13.1706 -13.1706  -4.5943  -4.5943  -4.4270  -4.4270
     0.7942   0.7942   1.5953   1.5953   3.6157   3.6157   3.7079   3.7079
     4.9720   4.9720   5.0539   5.0539   6.3821   6.3821   6.7356   6.7356
    10.4920  10.4920  11.2705  11.2705  12.1380  12.1380  12.2375  12.2375
    13.5871  13.5872

     occupation numbers 
     1.0000   1.0000   1.0000   1.0000   1.0000   1.0000   1.0000   1.0000
     1.0000   1.0000   1.0000   1.0000   1.0000   1.0000   1.0000   1.0000
     1.0000   1.0000   1.0000   1.0000   1.0000   1.0000   1.0000   1.0000
     1.0000   1.0000   1.0000   1.0000   1.0000   1.0000   1.0000   1.0000
     1.0000   1.0000   1.0000   1.0000   1.0000   1.0000   1.0000   1.0000
     0.0000   0.0000   0.0000   0.0000   0.0000   0.0000   0.0000   0.0000
     0.0000   0.0000

          k =-0.5000-1.3581 0.0000 (  4004 PWs)   bands (ev):

   -13.2550 -13.2550 -13.2550 -13.2550 -13.2373 -13.2373 -13.2373 -13.2373
   -13.2251 -13.2251 -13.2251 -13.2251 -13.2036 -13.2036 -13.2036 -13.2036
   -13.1755 -13.1755 -13.1755 -13.1755  -4.6493  -4.6493  -4.6493  -4.6493
     0.6672   0.6672   0.6672   0.6672   5.3029   5.3029   5.3029   5.3029
     5.9785   5.9785   5.9785   5.9785   7.0685   7.0685   7.0685   7.0685
     9.5801   9.5801   9.5801   9.5801  10.2431  10.2431  10.2431  10.2431
    12.0019  12.0019

     occupation numbers 
     1.0000   1.0000   1.0000   1.0000   1.0000   1.0000   1.0000   1.0000
     1.0000   1.0000   1.0000   1.0000   1.0000   1.0000   1.0000   1.0000
     1.0000   1.0000   1.0000   1.0000   1.0000   1.0000   1.0000   1.0000
     1.0000   1.0000   1.0000   1.0000   1.0000   1.0000   1.0000   1.0000
     1.0000   1.0000   1.0000   1.0000   1.0000   1.0000   1.0000   1.0000
     0.0000   0.0000   0.0000   0.0000   0.0000   0.0000   0.0000   0.0000
     0.0000   0.0000

          k =-0.5000-1.3581 0.4269 (  3948 PWs)   bands (ev):

   -13.2578 -13.2578 -13.2578 -13.2578 -13.2363 -13.2363 -13.2363 -13.2363
   -13.2244 -13.2244 -13.2244 -13.2244 -13.2029 -13.2029 -13.2029 -13.2029
   -13.1754 -13.1754 -13.1754 -13.1754  -4.5929  -4.5929  -4.5929  -4.5929
     0.8043   0.8043   0.8043   0.8043   4.6681   4.6681   4.6681   4.6681
     5.6448   5.6448   5.6448   5.6448   6.8409   6.8409   6.8409   6.8409
     9.9108   9.9108   9.9108   9.9108  11.3287  11.3287  11.3287  11.3287
    12.2345  12.2345

     occupation numbers 
     1.0000   1.0000   1.0000   1.0000   1.0000   1.0000   1.0000   1.0000
     1.0000   1.0000   1.0000   1.0000   1.0000   1.0000   1.0000   1.0000
     1.0000   1.0000   1.0000   1.0000   1.0000   1.0000   1.0000   1.0000
     1.0000   1.0000   1.0000   1.0000   1.0000   1.0000   1.0000   1.0000
     1.0000   1.0000   1.0000   1.0000   1.0000   1.0000   1.0000   1.0000
     0.0000   0.0000   0.0000   0.0000   0.0000   0.0000   0.0000   0.0000
     0.0000   0.0000

          k =-0.5000-1.3581 0.8538 (  3960 PWs)   bands (ev):

   -13.2633 -13.2633 -13.2633 -13.2633 -13.2352 -13.2352 -13.2352 -13.2352
   -13.2230 -13.2230 -13.2230 -13.2230 -13.2012 -13.2012 -13.2012 -13.2012
   -13.1752 -13.1752 -13.1752 -13.1752  -4.4742  -4.4742  -4.4742  -4.4742
     1.1363   1.1363   1.1363   1.1363   3.7651   3.7651   3.7651   3.7651
     4.8593   4.8593   4.8593   4.8593   6.5658   6.5658   6.5658   6.5658
    10.7502  10.7502  10.7502  10.7502  11.9962  11.9962  11.9962  11.9962
    13.7607  13.7607

     occupation numbers 
     1.0000   1.0000   1.0000   1.0000   1.0000   1.0000   1.0000   1.0000
     1.0000   1.0000   1.0000   1.0000   1.0000   1.0000   1.0000   1.0000
     1.0000   1.0000   1.0000   1.0000   1.0000   1.0000   1.0000   1.0000
     1.0000   1.0000   1.0000   1.0000   1.0000   1.0000   1.0000   1.0000
     1.0000   1.0000   1.0000   1.0000   1.0000   1.0000   1.0000   1.0000
     0.0000   0.0000   0.0000   0.0000   0.0000   0.0000   0.0000   0.0000
     0.0000   0.0000

          k =-0.5000-1.3581-1.2807 (  3936 PWs)   bands (ev):

   -13.2659 -13.2659 -13.2659 -13.2659 -13.2349 -13.2349 -13.2349 -13.2349
   -13.2222 -13.2222 -13.2222 -13.2222 -13.2003 -13.2003 -13.2003 -13.2003
   -13.1750 -13.1750 -13.1750 -13.1750  -4.4115  -4.4115  -4.4115  -4.4115
     1.3466   1.3466   1.3466   1.3466   3.4569   3.4569   3.4569   3.4569
     4.3168   4.3168   4.3168   4.3168   6.5966   6.5966   6.5966   6.5966
    10.6256  10.6256  10.6256  10.6256  12.8409  12.8409  12.8409  12.8409
    14.6063  14.6063

     occupation numbers 
     1.0000   1.0000   1.0000   1.0000   1.0000   1.0000   1.0000   1.0000
     1.0000   1.0000   1.0000   1.0000   1.0000   1.0000   1.0000   1.0000
     1.0000   1.0000   1.0000   1.0000   1.0000   1.0000   1.0000   1.0000
     1.0000   1.0000   1.0000   1.0000   1.0000   1.0000   1.0000   1.0000
     1.0000   1.0000   1.0000   1.0000   1.0000   1.0000   1.0000   1.0000
     0.0000   0.0000   0.0000   0.0000   0.0000   0.0000   0.0000   0.0000
     0.0000   0.0000

     highest occupied, lowest unoccupied level (ev):     8.1007    8.6735

!    total energy              =    -827.61116814 Ry
     estimated scf accuracy    <          1.7E-09 Ry

     The total energy is the sum of the following terms:
     one-electron contribution =    -256.98895251 Ry
     hartree contribution      =     179.11344062 Ry
     xc contribution           =    -309.13084006 Ry
     ewald contribution        =    -440.60481620 Ry

     convergence has been achieved in   9 iterations

     Forces acting on atoms (cartesian axes, Ry/au):

     atom    1 type  2   force =     0.00812068    0.00000000   -0.00045922
     atom    2 type  1   force =    -0.00744329    0.00000000   -0.00113785
     atom    3 type  2   force =    -0.00812068   -0.00000000   -0.00045922
     atom    4 type  1   force =     0.00744329    0.00000000   -0.00113785
     atom    5 type  2   force =     0.00812068    0.00000000    0.00045922
     atom    6 type  1   force =    -0.00744329    0.00000000    0.00113785
     atom    7 type  2   force =    -0.00812068    0.00000000    0.00045922
     atom    8 type  1   force =     0.00744329   -0.00000000    0.00113785
     The non-local contrib.  to forces
     atom    1 type  2   force =    -0.11936503    0.00000000    0.09685287
     atom    2 type  1   force =     0.37341439    0.00000000    0.26602518
     atom    3 type  2   force =     0.11936503    0.00000000    0.09685287
     atom    4 type  1   force =    -0.37341439    0.00000000    0.26602518
     atom    5 type  2   force =    -0.11936503    0.00000000   -0.09685287
     atom    6 type  1   force =     0.37341439    0.00000000   -0.26602518
     atom    7 type  2   force =     0.11936503    0.00000000   -0.09685287
     atom    8 type  1   force =    -0.37341439    0.00000000   -0.26602518
     The ionic contribution  to forces
     atom    1 type  2   force =     1.53473235    0.00000000   -1.05154455
     atom    2 type  1   force =    -1.03769718    0.00000000   -0.57506129
     atom    3 type  2   force =    -1.53473235   -0.00000000   -1.05154455
     atom    4 type  1   force =     1.03769718   -0.00000000   -0.57506129
     atom    5 type  2   force =     1.53473235    0.00000000    1.05154455
     atom    6 type  1   force =    -1.03769718    0.00000000    0.57506129
     atom    7 type  2   force =    -1.53473235   -0.00000000    1.05154455
     atom    8 type  1   force =     1.03769718   -0.00000000    0.57506129
     The local contribution  to forces
     atom    1 type  2   force =    -1.42055501    0.00000000    0.96510261
     atom    2 type  1   force =     0.66269462   -0.00000000    0.31223966
     atom    3 type  2   force =     1.42055501   -0.00000000    0.96510261
     atom    4 type  1   force =    -0.66269462    0.00000000    0.31223966
     atom    5 type  2   force =    -1.42055501    0.00000000   -0.96510261
     atom    6 type  1   force =     0.66269462   -0.00000000   -0.31223966
     atom    7 type  2   force =     1.42055501   -0.00000000   -0.96510261
     atom    8 type  1   force =    -0.66269462    0.00000000   -0.31223966
     The core correction contribution to forces
     atom    1 type  2   force =     0.01328217   -0.00000000   -0.01087095
     atom    2 type  1   force =    -0.00580582   -0.00000000   -0.00437074
     atom    3 type  2   force =    -0.01328217    0.00000000   -0.01087095
     atom    4 type  1   force =     0.00580582    0.00000000   -0.00437074
     atom    5 type  2   force =     0.01328217    0.00000000    0.01087095
     atom    6 type  1   force =    -0.00580582   -0.00000000    0.00437074
     atom    7 type  2   force =    -0.01328217    0.00000000    0.01087095
     atom    8 type  1   force =     0.00580582    0.00000000    0.00437074
     The Hubbard contrib.    to forces
     atom    1 type  2   force =     0.00000000    0.00000000    0.00000000
     atom    2 type  1   force =     0.00000000    0.00000000    0.00000000
     atom    3 type  2   force =     0.00000000    0.00000000    0.00000000
     atom    4 type  1   force =     0.00000000    0.00000000    0.00000000
     atom    5 type  2   force =     0.00000000    0.00000000    0.00000000
     atom    6 type  1   force =     0.00000000    0.00000000    0.00000000
     atom    7 type  2   force =     0.00000000    0.00000000    0.00000000
     atom    8 type  1   force =     0.00000000    0.00000000    0.00000000
     The SCF correction term to forces
     atom    1 type  2   force =     0.00002621    0.00000000    0.00000080
     atom    2 type  1   force =    -0.00004930   -0.00000000    0.00002935
     atom    3 type  2   force =    -0.00002621    0.00000000    0.00000080
     atom    4 type  1   force =     0.00004930    0.00000000    0.00002935
     atom    5 type  2   force =     0.00002621    0.00000000   -0.00000080
     atom    6 type  1   force =    -0.00004930   -0.00000000   -0.00002935
     atom    7 type  2   force =    -0.00002621   -0.00000000   -0.00000080
     atom    8 type  1   force =     0.00004930    0.00000000   -0.00002935

     Total force =     0.022168     Total SCF correction =     0.000126

     Writing output data file ./tmp/SnSe_pnma.save/

     init_run     :      6.77s CPU      6.13s WALL (       1 calls)
     electrons    :    215.94s CPU    182.02s WALL (       1 calls)
     forces       :      4.75s CPU      4.78s WALL (       1 calls)

     Called by init_run:
     wfcinit      :      5.17s CPU      4.42s WALL (       1 calls)
     wfcinit:atom :      0.03s CPU      0.02s WALL (      32 calls)
     wfcinit:wfcr :      4.95s CPU      4.25s WALL (      32 calls)
     potinit      :      0.31s CPU      0.33s WALL (       1 calls)
     hinit0       :      0.68s CPU      0.69s WALL (       1 calls)

     Called by electrons:
     c_bands      :    196.77s CPU    163.59s WALL (       9 calls)
     sum_band     :     13.82s CPU     11.73s WALL (       9 calls)
     v_of_rho     :      0.43s CPU      0.48s WALL (      10 calls)
     v_h          :      0.02s CPU      0.02s WALL (      10 calls)
     v_xc         :      0.46s CPU      0.52s WALL (      11 calls)
     newd         :      5.42s CPU      6.77s WALL (      10 calls)
     mix_rho      :      0.05s CPU      0.05s WALL (       9 calls)

     Called by c_bands:
     init_us_2    :      0.89s CPU      0.69s WALL (     640 calls)
     cegterg      :    191.58s CPU    159.56s WALL (     288 calls)

     Called by sum_band:
     sum_band:wei :      0.00s CPU      0.00s WALL (       9 calls)
     sum_band:loo :      9.47s CPU      7.93s WALL (       9 calls)
     sum_band:buf :      0.10s CPU      0.08s WALL (     288 calls)
     sum_band:ini :      0.40s CPU      0.31s WALL (     288 calls)
     sum_band:cal :      3.31s CPU      2.73s WALL (     288 calls)
     sum_band:bec :      0.03s CPU      0.03s WALL (     288 calls)
     addusdens    :      4.21s CPU      3.66s WALL (       9 calls)
     addusd:skk   :      0.02s CPU      0.03s WALL (      18 calls)
     addusd:dgemm :      1.55s CPU      1.21s WALL (      18 calls)
     addusd:qvan2 :      2.37s CPU      1.88s WALL (      18 calls)

     Called by *egterg:
     cdiaghg      :     80.78s CPU     64.49s WALL (    1200 calls)
     cegterg:over :     23.89s CPU     23.05s WALL (     912 calls)
     cegterg:upda :      9.61s CPU      8.99s WALL (     912 calls)
     cegterg:last :      9.65s CPU      7.55s WALL (     582 calls)
     cdiaghg:chol :     11.38s CPU      8.78s WALL (    1200 calls)
     cdiaghg:inve :      0.16s CPU      0.15s WALL (    1200 calls)
     cdiaghg:para :     18.95s CPU     17.03s WALL (    2400 calls)
     h_psi        :     48.16s CPU     38.44s WALL (    1232 calls)
     s_psi        :      6.28s CPU      3.38s WALL (    1232 calls)
     g_psi        :      0.30s CPU      0.24s WALL (     912 calls)

     Called by h_psi:
     h_psi:calbec :     10.71s CPU      8.73s WALL (    1232 calls)
     vloc_psi     :     31.10s CPU     26.34s WALL (    1232 calls)
     add_vuspsi   :      6.19s CPU      3.23s WALL (    1232 calls)

     General routines
     calbec       :     15.54s CPU     12.86s WALL (    1648 calls)
     fft          :      0.23s CPU      0.28s WALL (     139 calls)
     ffts         :      0.02s CPU      0.01s WALL (      19 calls)
     fftw         :     31.70s CPU     26.89s WALL (   90562 calls)
     interpolate  :      0.02s CPU      0.02s WALL (      10 calls)

     Parallel routines
     fft_scatt_xy :      3.87s CPU      3.28s WALL (   90720 calls)
     fft_scatt_yz :      9.46s CPU      8.19s WALL (   90720 calls)

     PWSCF        :   3m47.74s CPU   3m13.37s WALL


   This run was terminated on:  17:41:53   5May2026            

=------------------------------------------------------------------------------=
   JOB DONE.
=------------------------------------------------------------------------------=
