
     Program PWSCF v.6.7MaX starts on 24May2026 at 19:22:15 

     This program is part of the open-source Quantum ESPRESSO suite
     for quantum simulation of materials; please cite
         "P. Giannozzi et al., J. Phys.:Condens. Matter 21 395502 (2009);
         "P. Giannozzi et al., J. Phys.:Condens. Matter 29 465901 (2017);
          URL http://www.quantum-espresso.org", 
     in publications or presentations arising from this work. More details at
     http://www.quantum-espresso.org/quote

     Parallel version (MPI), running on     6 processors

     MPI processes distributed on     1 nodes
     R & G space division:  proc/nbgrp/npool/nimage =       6
     Waiting for input...
     Reading input from standard input

     Current dimensions of program PWSCF are:
     Max number of different atomic species (ntypx) = 10
     Max number of k-points (npk) =  40000
     Max angular momentum in pseudopotentials (lmaxx) =  3

     Subspace diagonalization in iterative solution of the eigenvalue problem:
     one sub-group per band group will be used
     scalapack distributed-memory algorithm (size of sub-group:  2*  2 procs)

     Message from routine setup:
     using ibrav=0 with symmetry is DISCOURAGED, use correct ibrav instead

     Parallelization info
     --------------------
     sticks:   dense  smooth     PW     G-vecs:    dense   smooth      PW
     Min         271     106     33                28143     7098    1178
     Max         272     107     34                28148     7113    1181
     Sum        1629     641    199               168877    42639    7077



     bravais-lattice index     =            0
     lattice parameter (alat)  =       8.6086  a.u.
     unit-cell volume          =    1923.5600 (a.u.)^3
     number of atoms/cell      =            4
     number of atomic types    =            2
     number of electrons       =        40.00
     number of Kohn-Sham states=           20
     kinetic-energy cutoff     =      30.0000  Ry
     charge density cutoff     =     300.0000  Ry
     scf convergence threshold =      1.0E-08
     mixing beta               =       0.7000
     number of iterations used =            8  plain     mixing
     energy convergence thresh.=      1.0E-04
     force convergence thresh. =      1.0E-03
     Exchange-correlation= SLA  PW   PBE  PBE
                           (   1   4   3   4   0   0   0)
     nstep                     =           50


     celldm(1)=   8.608647  celldm(2)=   0.000000  celldm(3)=   0.000000
     celldm(4)=   0.000000  celldm(5)=   0.000000  celldm(6)=   0.000000

     crystal axes: (cart. coord. in units of alat)
               a(1) = (   1.000000   0.000000   0.000000 )  
               a(2) = (   0.000000   0.915684   0.000000 )  
               a(3) = (   0.000000   0.000000   3.292723 )  

     reciprocal axes: (cart. coord. in units 2 pi/alat)
               b(1) = (  1.000000  0.000000  0.000000 )  
               b(2) = (  0.000000  1.092079  0.000000 )  
               b(3) = (  0.000000  0.000000  0.303700 )  


     PseudoPot. # 1 for Sn read from file:
     ../pseudo/Sn_pbe_v1.uspp.F.UPF
     MD5 check sum: 4cf58ce39ec5d5d420df3dd08604eb00
     Pseudo is Ultrasoft + core correction, Zval = 14.0
     Generated by new atomic code, or converted to UPF format
     Using radial grid of  891 points,  6 beta functions with: 
                l(1) =   0
                l(2) =   0
                l(3) =   1
                l(4) =   1
                l(5) =   2
                l(6) =   2
     Q(r) pseudized with  6 coefficients,  rinner =    1.200   1.200   1.200
                                                       1.200   1.200

     PseudoPot. # 2 for Se read from file:
     ../pseudo/Se_pbe_v1.uspp.F.UPF
     MD5 check sum: 1b3568f3a8ae88f9a2a0ad0698632c85
     Pseudo is Ultrasoft + core correction, Zval =  6.0
     Generated by new atomic code, or converted to UPF format
     Using radial grid of  877 points,  6 beta functions with: 
                l(1) =   0
                l(2) =   0
                l(3) =   1
                l(4) =   1
                l(5) =   2
                l(6) =   2
     Q(r) pseudized with  8 coefficients,  rinner =    1.300   1.300   1.300
                                                       1.300   1.300

     atomic species   valence    mass     pseudopotential
        Sn            14.00   118.71000     Sn( 1.00)
        Se             6.00    78.97100     Se( 1.00)

      4 Sym. Ops. (no inversion) found ( 3 have fractional translation)


                                    s                        frac. trans.

      isym =  1     identity                                     

 cryst.   s( 1) = (     1          0          0      )
                  (     0          1          0      )
                  (     0          0          1      )

 cart.    s( 1) = (  1.0000000  0.0000000  0.0000000 )
                  (  0.0000000  1.0000000  0.0000000 )
                  (  0.0000000  0.0000000  1.0000000 )


      isym =  2     180 deg rotation - cart. axis [1,0,0]        

 cryst.   s( 2) = (     1          0          0      )    f =( -0.5000000 )
                  (     0         -1          0      )       (  0.0000000 )
                  (     0          0         -1      )       (  0.0000000 )

 cart.    s( 2) = (  1.0000000  0.0000000  0.0000000 )    f =( -0.5000000 )
                  (  0.0000000 -1.0000000  0.0000000 )       (  0.0000000 )
                  (  0.0000000  0.0000000 -1.0000000 )       (  0.0000000 )


      isym =  3     inv. 180 deg rotation - cart. axis [0,0,1]   

 cryst.   s( 3) = (     1          0          0      )    f =( -0.5000000 )
                  (     0          1          0      )       (  0.5000000 )
                  (     0          0         -1      )       (  0.0000000 )

 cart.    s( 3) = (  1.0000000  0.0000000  0.0000000 )    f =( -0.5000000 )
                  (  0.0000000  1.0000000  0.0000000 )       (  0.4578422 )
                  (  0.0000000  0.0000000 -1.0000000 )       (  0.0000000 )


      isym =  4     inv. 180 deg rotation - cart. axis [0,1,0]   

 cryst.   s( 4) = (     1          0          0      )    f =(  0.0000000 )
                  (     0         -1          0      )       (  0.5000000 )
                  (     0          0          1      )       (  0.0000000 )

 cart.    s( 4) = (  1.0000000  0.0000000  0.0000000 )    f =(  0.0000000 )
                  (  0.0000000 -1.0000000  0.0000000 )       (  0.4578422 )
                  (  0.0000000  0.0000000  1.0000000 )       (  0.0000000 )


   Cartesian axes

     site n.     atom                  positions (alat units)
         1           Sn  tau(   1) = (   0.1122870   0.6867633   1.3080038  )
         2           Se  tau(   2) = (   0.5167519   0.2289211   1.3802694  )
         3           Se  tau(   3) = (   0.0167519   0.6867633   1.9124537  )
         4           Sn  tau(   4) = (   0.6122870   0.2289211   1.9847193  )

   Crystallographic axes

     site n.     atom                  positions (cryst. coord.)
         1           Sn  tau(   1) = (  0.1122870  0.7500000  0.3972408  )
         2           Se  tau(   2) = (  0.5167519  0.2500000  0.4191878  )
         3           Se  tau(   3) = (  0.0167519  0.7500000  0.5808122  )
         4           Sn  tau(   4) = (  0.6122870  0.2500000  0.6027592  )

     number of k points=    16
                       cart. coord. in units 2pi/alat
        k(    1) = (   0.0000000   0.0000000   0.0000000), wk =   0.0555556
        k(    2) = (   0.0000000   0.1820132   0.0000000), wk =   0.1111111
        k(    3) = (   0.0000000   0.3640265   0.0000000), wk =   0.1111111
        k(    4) = (   0.0000000  -0.5460397   0.0000000), wk =   0.0555556
        k(    5) = (   0.1666667   0.0000000   0.0000000), wk =   0.1111111
        k(    6) = (   0.1666667   0.1820132   0.0000000), wk =   0.2222222
        k(    7) = (   0.1666667   0.3640265   0.0000000), wk =   0.2222222
        k(    8) = (   0.1666667  -0.5460397   0.0000000), wk =   0.1111111
        k(    9) = (   0.3333333   0.0000000   0.0000000), wk =   0.1111111
        k(   10) = (   0.3333333   0.1820132   0.0000000), wk =   0.2222222
        k(   11) = (   0.3333333   0.3640265   0.0000000), wk =   0.2222222
        k(   12) = (   0.3333333  -0.5460397   0.0000000), wk =   0.1111111
        k(   13) = (  -0.5000000   0.0000000   0.0000000), wk =   0.0555556
        k(   14) = (  -0.5000000   0.1820132   0.0000000), wk =   0.1111111
        k(   15) = (  -0.5000000   0.3640265   0.0000000), wk =   0.1111111
        k(   16) = (  -0.5000000  -0.5460397   0.0000000), wk =   0.0555556

                       cryst. coord.
        k(    1) = (   0.0000000   0.0000000   0.0000000), wk =   0.0555556
        k(    2) = (   0.0000000   0.1666667   0.0000000), wk =   0.1111111
        k(    3) = (   0.0000000   0.3333333   0.0000000), wk =   0.1111111
        k(    4) = (   0.0000000  -0.5000000   0.0000000), wk =   0.0555556
        k(    5) = (   0.1666667   0.0000000   0.0000000), wk =   0.1111111
        k(    6) = (   0.1666667   0.1666667   0.0000000), wk =   0.2222222
        k(    7) = (   0.1666667   0.3333333   0.0000000), wk =   0.2222222
        k(    8) = (   0.1666667  -0.5000000   0.0000000), wk =   0.1111111
        k(    9) = (   0.3333333   0.0000000   0.0000000), wk =   0.1111111
        k(   10) = (   0.3333333   0.1666667   0.0000000), wk =   0.2222222
        k(   11) = (   0.3333333   0.3333333   0.0000000), wk =   0.2222222
        k(   12) = (   0.3333333  -0.5000000   0.0000000), wk =   0.1111111
        k(   13) = (  -0.5000000   0.0000000   0.0000000), wk =   0.0555556
        k(   14) = (  -0.5000000   0.1666667   0.0000000), wk =   0.1111111
        k(   15) = (  -0.5000000   0.3333333   0.0000000), wk =   0.1111111
        k(   16) = (  -0.5000000  -0.5000000   0.0000000), wk =   0.0555556

     Dense  grid:   168877 G-vectors     FFT dimensions: (  48,  48, 160)

     Smooth grid:    42639 G-vectors     FFT dimensions: (  32,  30, 100)

     Dynamical RAM for                 wfc:       0.27 MB

     Dynamical RAM for     wfc (w. buffer):       4.61 MB

     Dynamical RAM for           str. fact:       0.86 MB

     Dynamical RAM for           local pot:       0.00 MB

     Dynamical RAM for          nlocal pot:       0.98 MB

     Dynamical RAM for                qrad:       2.78 MB

     Dynamical RAM for          rho,v,vnew:       2.71 MB

     Dynamical RAM for               rhoin:       0.90 MB

     Dynamical RAM for            rho*nmix:       6.87 MB

     Dynamical RAM for           G-vectors:       1.66 MB

     Dynamical RAM for          h,s,v(r/c):       0.02 MB

     Dynamical RAM for          <psi|beta>:       0.02 MB

     Dynamical RAM for                 psi:       0.54 MB

     Dynamical RAM for                hpsi:       0.54 MB

     Dynamical RAM for                spsi:       0.54 MB

     Dynamical RAM for      wfcinit/wfcrot:       0.72 MB

     Dynamical RAM for           addusdens:      80.74 MB

     Dynamical RAM for          addusforce:      81.82 MB

     Estimated static dynamical RAM per process >      25.04 MB

     Estimated max dynamical RAM per process >     106.86 MB

     Estimated total dynamical RAM >     641.18 MB

     Initial potential from superposition of free atoms

     starting charge   37.99977, renormalised to   40.00000

     negative rho (up, down):  1.181E-03 0.000E+00
     Starting wfcs are   26 randomized atomic wfcs

     total cpu time spent up to now is        3.3 secs

     Self-consistent Calculation

     iteration #  1     ecut=    30.00 Ry     beta= 0.70
     Davidson diagonalization with overlap
     ethr =  1.00E-02,  avg # of iterations =  2.0

     negative rho (up, down):  7.411E-04 0.000E+00

     total cpu time spent up to now is        9.6 secs

     total energy              =    -413.20934561 Ry
     estimated scf accuracy    <       1.38931001 Ry

     iteration #  2     ecut=    30.00 Ry     beta= 0.70
     Davidson diagonalization with overlap
     ethr =  3.47E-03,  avg # of iterations =  2.8

     negative rho (up, down):  7.683E-04 0.000E+00

     total cpu time spent up to now is       15.5 secs

     total energy              =    -413.69227712 Ry
     estimated scf accuracy    <       0.50988463 Ry

     iteration #  3     ecut=    30.00 Ry     beta= 0.70
     Davidson diagonalization with overlap
     ethr =  1.27E-03,  avg # of iterations =  2.0

     negative rho (up, down):  7.738E-04 0.000E+00

     total cpu time spent up to now is       21.6 secs

     total energy              =    -413.78942940 Ry
     estimated scf accuracy    <       0.00476086 Ry

     iteration #  4     ecut=    30.00 Ry     beta= 0.70
     Davidson diagonalization with overlap
     ethr =  1.19E-05,  avg # of iterations =  5.2

     negative rho (up, down):  7.734E-04 0.000E+00

     total cpu time spent up to now is       32.4 secs

     total energy              =    -413.79357032 Ry
     estimated scf accuracy    <       0.00605202 Ry

     iteration #  5     ecut=    30.00 Ry     beta= 0.70
     Davidson diagonalization with overlap
     ethr =  1.19E-05,  avg # of iterations =  2.2

     negative rho (up, down):  7.815E-04 0.000E+00

     total cpu time spent up to now is       40.4 secs

     total energy              =    -413.79373608 Ry
     estimated scf accuracy    <       0.00086142 Ry

     iteration #  6     ecut=    30.00 Ry     beta= 0.70
     Davidson diagonalization with overlap
     ethr =  2.15E-06,  avg # of iterations =  4.5

     negative rho (up, down):  7.814E-04 0.000E+00

     total cpu time spent up to now is       47.3 secs

     total energy              =    -413.79399724 Ry
     estimated scf accuracy    <       0.00120924 Ry

     iteration #  7     ecut=    30.00 Ry     beta= 0.70
     Davidson diagonalization with overlap
     ethr =  2.15E-06,  avg # of iterations =  2.9

     negative rho (up, down):  7.789E-04 0.000E+00

     total cpu time spent up to now is       52.9 secs

     total energy              =    -413.79417610 Ry
     estimated scf accuracy    <       0.00002376 Ry

     iteration #  8     ecut=    30.00 Ry     beta= 0.70
     Davidson diagonalization with overlap
     ethr =  5.94E-08,  avg # of iterations =  4.7

     negative rho (up, down):  7.795E-04 0.000E+00

     total cpu time spent up to now is       61.3 secs

     total energy              =    -413.79419520 Ry
     estimated scf accuracy    <       0.00001607 Ry

     iteration #  9     ecut=    30.00 Ry     beta= 0.70
     Davidson diagonalization with overlap
     ethr =  4.02E-08,  avg # of iterations =  2.1

     negative rho (up, down):  7.796E-04 0.000E+00

     total cpu time spent up to now is       68.0 secs

     total energy              =    -413.79419702 Ry
     estimated scf accuracy    <       0.00000073 Ry

     iteration # 10     ecut=    30.00 Ry     beta= 0.70
     Davidson diagonalization with overlap
     ethr =  1.83E-09,  avg # of iterations =  4.6

     negative rho (up, down):  7.795E-04 0.000E+00

     total cpu time spent up to now is       77.1 secs

     total energy              =    -413.79419735 Ry
     estimated scf accuracy    <       0.00000002 Ry

     iteration # 11     ecut=    30.00 Ry     beta= 0.70
     Davidson diagonalization with overlap
     ethr =  5.89E-11,  avg # of iterations =  4.6

     negative rho (up, down):  7.795E-04 0.000E+00

     total cpu time spent up to now is       86.1 secs

     total energy              =    -413.79419734 Ry
     estimated scf accuracy    <       0.00000004 Ry

     iteration # 12     ecut=    30.00 Ry     beta= 0.70
     Davidson diagonalization with overlap
     ethr =  5.89E-11,  avg # of iterations =  3.0

     negative rho (up, down):  7.795E-04 0.000E+00

     total cpu time spent up to now is       93.0 secs

     End of self-consistent calculation

          k = 0.0000 0.0000 0.0000 (  5331 PWs)   bands (ev):

   -21.0253 -21.0158 -21.0118 -21.0094 -20.9934 -20.9804 -20.9676 -20.9615
   -20.9599 -20.9533 -13.0640 -12.0191  -6.2458  -4.6690  -3.4510  -2.7533
    -2.5419  -1.4476  -1.4147   0.0234

     occupation numbers 
     1.0000   1.0000   1.0000   1.0000   1.0000   1.0000   1.0000   1.0000
     1.0000   1.0000   1.0000   1.0000   1.0000   1.0000   1.0000   1.0000
     1.0000   1.0000   1.0000   1.0000

          k = 0.0000 0.1820 0.0000 (  5316 PWs)   bands (ev):

   -21.0222 -21.0146 -21.0121 -21.0109 -20.9921 -20.9808 -20.9687 -20.9637
   -20.9582 -20.9525 -12.9293 -11.9821  -6.4962  -5.1763  -3.2732  -2.6912
    -2.3906  -1.4690  -1.0545  -0.1444

     occupation numbers 
     1.0000   1.0000   1.0000   1.0000   1.0000   1.0000   1.0000   1.0000
     1.0000   1.0000   1.0000   1.0000   1.0000   1.0000   1.0000   1.0000
     1.0000   1.0000   1.0000   1.0000

          k = 0.0000 0.3640 0.0000 (  5350 PWs)   bands (ev):

   -21.0207 -21.0193 -21.0091 -21.0064 -20.9891 -20.9825 -20.9706 -20.9682
   -20.9541 -20.9509 -12.5767 -11.9701  -6.9077  -6.1483  -2.7821  -2.4218
    -1.8927  -1.3941  -0.6175  -0.5047

     occupation numbers 
     1.0000   1.0000   1.0000   1.0000   1.0000   1.0000   1.0000   1.0000
     1.0000   1.0000   1.0000   1.0000   1.0000   1.0000   1.0000   1.0000
     1.0000   1.0000   1.0000   1.0000

          k = 0.0000-0.5460 0.0000 (  5354 PWs)   bands (ev):

   -21.0219 -21.0219 -21.0048 -21.0048 -20.9857 -20.9857 -20.9708 -20.9708
   -20.9509 -20.9509 -12.1774 -12.1774  -6.8504  -6.8504  -2.2416  -2.2416
    -1.5635  -1.5635  -0.6106  -0.6106

     occupation numbers 
     1.0000   1.0000   1.0000   1.0000   1.0000   1.0000   1.0000   1.0000
     1.0000   1.0000   1.0000   1.0000   1.0000   1.0000   1.0000   1.0000
     1.0000   1.0000   1.0000   1.0000

          k = 0.1667 0.0000 0.0000 (  5327 PWs)   bands (ev):

   -21.0245 -21.0161 -21.0124 -21.0102 -20.9909 -20.9799 -20.9673 -20.9619
   -20.9597 -20.9540 -12.9652 -12.0357  -6.5077  -5.2440  -3.2064  -2.3920
    -2.3784  -1.3527  -0.9151  -0.2528

     occupation numbers 
     1.0000   1.0000   1.0000   1.0000   1.0000   1.0000   1.0000   1.0000
     1.0000   1.0000   1.0000   1.0000   1.0000   1.0000   1.0000   1.0000
     1.0000   1.0000   1.0000   1.0000

          k = 0.1667 0.1820 0.0000 (  5347 PWs)   bands (ev):

   -21.0219 -21.0156 -21.0122 -21.0117 -20.9897 -20.9803 -20.9685 -20.9642
   -20.9580 -20.9531 -12.8353 -11.9941  -6.5969  -5.4748  -3.1989  -3.1032
    -1.9120  -1.5811  -0.5283  -0.2929

     occupation numbers 
     1.0000   1.0000   1.0000   1.0000   1.0000   1.0000   1.0000   1.0000
     1.0000   1.0000   1.0000   1.0000   1.0000   1.0000   1.0000   1.0000
     1.0000   1.0000   1.0000   1.0000

          k = 0.1667 0.3640 0.0000 (  5345 PWs)   bands (ev):

   -21.0220 -21.0207 -21.0090 -21.0064 -20.9872 -20.9818 -20.9704 -20.9683
   -20.9540 -20.9512 -12.5000 -11.9633  -6.8095  -6.1383  -3.3137  -2.7660
    -1.9853  -1.4052  -1.0217  -0.4231

     occupation numbers 
     1.0000   1.0000   1.0000   1.0000   1.0000   1.0000   1.0000   1.0000
     1.0000   1.0000   1.0000   1.0000   1.0000   1.0000   1.0000   1.0000
     1.0000   1.0000   1.0000   1.0000

          k = 0.1667-0.5460 0.0000 (  5372 PWs)   bands (ev):

   -21.0237 -21.0237 -21.0048 -21.0048 -20.9845 -20.9845 -20.9707 -20.9707
   -20.9510 -20.9510 -12.1342 -12.1342  -6.7284  -6.7284  -2.7464  -2.7464
    -1.9168  -1.9168  -0.8892  -0.8892

     occupation numbers 
     1.0000   1.0000   1.0000   1.0000   1.0000   1.0000   1.0000   1.0000
     1.0000   1.0000   1.0000   1.0000   1.0000   1.0000   1.0000   1.0000
     1.0000   1.0000   1.0000   1.0000

          k = 0.3333 0.0000 0.0000 (  5323 PWs)   bands (ev):

   -21.0224 -21.0173 -21.0133 -21.0121 -20.9854 -20.9793 -20.9663 -20.9632
   -20.9589 -20.9556 -12.7019 -12.1340  -6.8463  -6.1462  -2.7118  -1.9913
    -1.7426  -1.2958  -0.7237   0.0077

     occupation numbers 
     1.0000   1.0000   1.0000   1.0000   1.0000   1.0000   1.0000   1.0000
     1.0000   1.0000   1.0000   1.0000   1.0000   1.0000   1.0000   1.0000
     1.0000   1.0000   1.0000   1.0000

          k = 0.3333 0.1820 0.0000 (  5331 PWs)   bands (ev):

   -21.0209 -21.0177 -21.0131 -21.0127 -20.9846 -20.9795 -20.9677 -20.9652
   -20.9572 -20.9544 -12.5877 -12.0755  -6.7501  -6.1134  -3.1875  -2.6618
    -2.1527  -1.3450  -0.5913  -0.3219

     occupation numbers 
     1.0000   1.0000   1.0000   1.0000   1.0000   1.0000   1.0000   1.0000
     1.0000   1.0000   1.0000   1.0000   1.0000   1.0000   1.0000   1.0000
     1.0000   1.0000   1.0000   1.0000

          k = 0.3333 0.3640 0.0000 (  5352 PWs)   bands (ev):

   -21.0245 -21.0237 -21.0086 -21.0069 -20.9833 -20.9805 -20.9698 -20.9685
   -20.9536 -20.9521 -12.3075 -11.9833  -6.5831  -6.1879  -3.9210  -3.0151
    -2.5732  -1.6871  -1.5511  -0.7514

     occupation numbers 
     1.0000   1.0000   1.0000   1.0000   1.0000   1.0000   1.0000   1.0000
     1.0000   1.0000   1.0000   1.0000   1.0000   1.0000   1.0000   1.0000
     1.0000   1.0000   1.0000   1.0000

          k = 0.3333-0.5460 0.0000 (  5340 PWs)   bands (ev):

   -21.0271 -21.0271 -21.0048 -21.0048 -20.9820 -20.9820 -20.9702 -20.9702
   -20.9512 -20.9512 -12.0445 -12.0445  -6.4362  -6.4362  -3.5714  -3.5714
    -2.5553  -2.5553  -1.2727  -1.2727

     occupation numbers 
     1.0000   1.0000   1.0000   1.0000   1.0000   1.0000   1.0000   1.0000
     1.0000   1.0000   1.0000   1.0000   1.0000   1.0000   1.0000   1.0000
     1.0000   1.0000   1.0000   1.0000

          k =-0.5000 0.0000 0.0000 (  5324 PWs)   bands (ev):

   -21.0197 -21.0197 -21.0134 -21.0134 -20.9808 -20.9808 -20.9648 -20.9648
   -20.9575 -20.9575 -12.3769 -12.3769  -6.7537  -6.7537  -2.0613  -2.0613
    -1.5227  -1.5227  -0.2038  -0.2038

     occupation numbers 
     1.0000   1.0000   1.0000   1.0000   1.0000   1.0000   1.0000   1.0000
     1.0000   1.0000   1.0000   1.0000   1.0000   1.0000   1.0000   1.0000
     1.0000   1.0000   1.0000   1.0000

          k =-0.5000 0.1820 0.0000 (  5300 PWs)   bands (ev):

   -21.0196 -21.0196 -21.0134 -21.0134 -20.9806 -20.9806 -20.9665 -20.9665
   -20.9560 -20.9560 -12.2897 -12.2897  -6.6238  -6.6238  -2.7106  -2.7106
    -1.9342  -1.9342  -0.4899  -0.4899

     occupation numbers 
     1.0000   1.0000   1.0000   1.0000   1.0000   1.0000   1.0000   1.0000
     1.0000   1.0000   1.0000   1.0000   1.0000   1.0000   1.0000   1.0000
     1.0000   1.0000   1.0000   1.0000

          k =-0.5000 0.3640 0.0000 (  5330 PWs)   bands (ev):

   -21.0255 -21.0255 -21.0077 -21.0077 -20.9806 -20.9806 -20.9690 -20.9690
   -20.9529 -20.9529 -12.1008 -12.1008  -6.3585  -6.3585  -3.7311  -3.7311
    -2.3255  -2.3255  -1.2845  -1.2845

     occupation numbers 
     1.0000   1.0000   1.0000   1.0000   1.0000   1.0000   1.0000   1.0000
     1.0000   1.0000   1.0000   1.0000   1.0000   1.0000   1.0000   1.0000
     1.0000   1.0000   1.0000   1.0000

          k =-0.5000-0.5460 0.0000 (  5292 PWs)   bands (ev):

   -21.0288 -21.0288 -21.0048 -21.0048 -20.9807 -20.9807 -20.9699 -20.9699
   -20.9512 -20.9512 -11.9977 -11.9977  -6.2527  -6.2527  -3.8860  -3.8860
    -3.0020  -3.0020  -1.2858  -1.2858

     occupation numbers 
     1.0000   1.0000   1.0000   1.0000   1.0000   1.0000   1.0000   1.0000
     1.0000   1.0000   1.0000   1.0000   1.0000   1.0000   1.0000   1.0000
     1.0000   1.0000   1.0000   1.0000

     highest occupied level (ev):     0.0234

!    total energy              =    -413.79419734 Ry
     estimated scf accuracy    <          1.6E-09 Ry

     The total energy is the sum of the following terms:
     one-electron contribution =    -724.90432938 Ry
     hartree contribution      =     376.36918456 Ry
     xc contribution           =    -154.40483426 Ry
     ewald contribution        =      89.14578173 Ry

     convergence has been achieved in  12 iterations

     negative rho (up, down):  7.795E-04 0.000E+00

     Forces acting on atoms (cartesian axes, Ry/au):

     atom    1 type  1   force =    -0.00550663    0.00000000    0.01001065
     atom    2 type  2   force =     0.00550663    0.00000000    0.00403149
     atom    3 type  2   force =     0.00550663   -0.00000000   -0.00403149
     atom    4 type  1   force =    -0.00550663   -0.00000000   -0.01001065
     The non-local contrib.  to forces
     atom    1 type  1   force =     0.28011338    0.00000000    0.47882501
     atom    2 type  2   force =    -0.10672990    0.00000000    0.14160253
     atom    3 type  2   force =    -0.10672990    0.00000000   -0.14160253
     atom    4 type  1   force =     0.28011338    0.00000000   -0.47882501
     The ionic contribution  to forces
     atom    1 type  1   force =    -1.67572220    0.00000000  -33.50361651
     atom    2 type  2   force =     1.67572220    0.00000000  -12.54481596
     atom    3 type  2   force =     1.67572220    0.00000000   12.54481596
     atom    4 type  1   force =    -1.67572220    0.00000000   33.50361651
     The local contribution  to forces
     atom    1 type  1   force =     1.39340826    0.00000000   33.04416542
     atom    2 type  2   force =    -1.57525459   -0.00000000   12.42358593
     atom    3 type  2   force =    -1.57525460    0.00000000  -12.42358593
     atom    4 type  1   force =     1.39340826    0.00000000  -33.04416542
     The core correction contribution to forces
     atom    1 type  1   force =    -0.00330998   -0.00000000   -0.00940612
     atom    2 type  2   force =     0.01177217   -0.00000000   -0.01634591
     atom    3 type  2   force =     0.01177217   -0.00000000    0.01634591
     atom    4 type  1   force =    -0.00330998   -0.00000000    0.00940612
     The Hubbard contrib.    to forces
     atom    1 type  1   force =     0.00000000    0.00000000    0.00000000
     atom    2 type  2   force =     0.00000000    0.00000000    0.00000000
     atom    3 type  2   force =     0.00000000    0.00000000    0.00000000
     atom    4 type  1   force =     0.00000000    0.00000000    0.00000000
     The SCF correction term to forces
     atom    1 type  1   force =     0.00001216   -0.00000000    0.00004286
     atom    2 type  2   force =     0.00000501   -0.00000000    0.00000491
     atom    3 type  2   force =     0.00000501   -0.00000000   -0.00000491
     atom    4 type  1   force =     0.00001216    0.00000000   -0.00004286

     Total force =     0.018821     Total SCF correction =     0.000064

     BFGS Geometry Optimization
     Energy error            =      0.0E+00
     Gradient error          =      1.0E-02

     number of scf cycles    =   1
     number of bfgs steps    =   0

     energy   new            =    -413.7941973442 Ry

     new trust radius        =       0.0114252419 bohr
     new conv_thr            =       0.0000000100 Ry


ATOMIC_POSITIONS (alat)
Sn            0.1116473547        0.6867632532        1.3091666654
Se            0.5173915929        0.2289210844        1.3807376897
Se            0.0173915929        0.6867632532        1.9119853924
Sn            0.6116473547        0.2289210844        1.9835564166



     Writing output data file ./tmp/SnSe_monolayer.save/
     NEW-OLD atomic charge density approx. for the potential

     negative rho (up, down):  7.840E-04 0.000E+00

     total cpu time spent up to now is       98.7 secs

     Self-consistent Calculation

     iteration #  1     ecut=    30.00 Ry     beta= 0.70
     Davidson diagonalization with overlap
     ethr =  1.00E-06,  avg # of iterations =  4.0

     Threshold (ethr) on eigenvalues was too large:
     Diagonalizing with lowered threshold

     Davidson diagonalization with overlap
     ethr =  5.78E-08,  avg # of iterations =  3.6

     negative rho (up, down):  7.863E-04 0.000E+00

     total cpu time spent up to now is      112.7 secs

     total energy              =    -413.79451524 Ry
     estimated scf accuracy    <       0.00003571 Ry

     iteration #  2     ecut=    30.00 Ry     beta= 0.70
     Davidson diagonalization with overlap
     ethr =  8.93E-08,  avg # of iterations =  3.3

     negative rho (up, down):  7.850E-04 0.000E+00

     total cpu time spent up to now is      120.4 secs

     total energy              =    -413.79452193 Ry
     estimated scf accuracy    <       0.00005486 Ry

     iteration #  3     ecut=    30.00 Ry     beta= 0.70
     Davidson diagonalization with overlap
     ethr =  8.93E-08,  avg # of iterations =  2.1

     negative rho (up, down):  7.845E-04 0.000E+00

     total cpu time spent up to now is      127.7 secs

     total energy              =    -413.79453232 Ry
     estimated scf accuracy    <       0.00000011 Ry

     iteration #  4     ecut=    30.00 Ry     beta= 0.70
     Davidson diagonalization with overlap
     ethr =  2.85E-10,  avg # of iterations =  5.8

     negative rho (up, down):  7.847E-04 0.000E+00

     total cpu time spent up to now is      140.0 secs

     total energy              =    -413.79453254 Ry
     estimated scf accuracy    <       0.00000027 Ry

     iteration #  5     ecut=    30.00 Ry     beta= 0.70
     Davidson diagonalization with overlap
     ethr =  2.85E-10,  avg # of iterations =  3.4

     negative rho (up, down):  7.849E-04 0.000E+00

     total cpu time spent up to now is      145.9 secs

     total energy              =    -413.79453257 Ry
     estimated scf accuracy    <       0.00000002 Ry

     iteration #  6     ecut=    30.00 Ry     beta= 0.70
     Davidson diagonalization with overlap
     ethr =  5.37E-11,  avg # of iterations =  2.6

     negative rho (up, down):  7.849E-04 0.000E+00

     total cpu time spent up to now is      154.4 secs

     End of self-consistent calculation

          k = 0.0000 0.0000 0.0000 (  5331 PWs)   bands (ev):

   -21.0258 -21.0165 -21.0128 -21.0102 -20.9941 -20.9805 -20.9682 -20.9618
   -20.9603 -20.9535 -13.0746 -12.0181  -6.2593  -4.6716  -3.4534  -2.7732
    -2.5473  -1.4542  -1.4066   0.0185

     occupation numbers 
     1.0000   1.0000   1.0000   1.0000   1.0000   1.0000   1.0000   1.0000
     1.0000   1.0000   1.0000   1.0000   1.0000   1.0000   1.0000   1.0000
     1.0000   1.0000   1.0000   1.0000

          k = 0.0000 0.1820 0.0000 (  5316 PWs)   bands (ev):

   -21.0227 -21.0155 -21.0129 -21.0117 -20.9927 -20.9809 -20.9693 -20.9641
   -20.9587 -20.9528 -12.9399 -11.9825  -6.5066  -5.1769  -3.2754  -2.7032
    -2.4031  -1.4695  -1.0525  -0.1500

     occupation numbers 
     1.0000   1.0000   1.0000   1.0000   1.0000   1.0000   1.0000   1.0000
     1.0000   1.0000   1.0000   1.0000   1.0000   1.0000   1.0000   1.0000
     1.0000   1.0000   1.0000   1.0000

          k = 0.0000 0.3640 0.0000 (  5350 PWs)   bands (ev):

   -21.0215 -21.0202 -21.0096 -21.0070 -20.9896 -20.9827 -20.9710 -20.9685
   -20.9547 -20.9514 -12.5869 -11.9744  -6.9115  -6.1463  -2.7849  -2.4284
    -1.9081  -1.3954  -0.6216  -0.5021

     occupation numbers 
     1.0000   1.0000   1.0000   1.0000   1.0000   1.0000   1.0000   1.0000
     1.0000   1.0000   1.0000   1.0000   1.0000   1.0000   1.0000   1.0000
     1.0000   1.0000   1.0000   1.0000

          k = 0.0000-0.5460 0.0000 (  5354 PWs)   bands (ev):

   -21.0228 -21.0228 -21.0054 -21.0054 -20.9860 -20.9860 -20.9711 -20.9711
   -20.9514 -20.9514 -12.1857 -12.1857  -6.8490  -6.8490  -2.2456  -2.2456
    -1.5717  -1.5717  -0.6133  -0.6133

     occupation numbers 
     1.0000   1.0000   1.0000   1.0000   1.0000   1.0000   1.0000   1.0000
     1.0000   1.0000   1.0000   1.0000   1.0000   1.0000   1.0000   1.0000
     1.0000   1.0000   1.0000   1.0000

          k = 0.1667 0.0000 0.0000 (  5327 PWs)   bands (ev):

   -21.0250 -21.0167 -21.0133 -21.0110 -20.9916 -20.9800 -20.9679 -20.9623
   -20.9601 -20.9542 -12.9753 -12.0355  -6.5213  -5.2481  -3.2096  -2.3966
    -2.3963  -1.3444  -0.9194  -0.2567

     occupation numbers 
     1.0000   1.0000   1.0000   1.0000   1.0000   1.0000   1.0000   1.0000
     1.0000   1.0000   1.0000   1.0000   1.0000   1.0000   1.0000   1.0000
     1.0000   1.0000   1.0000   1.0000

          k = 0.1667 0.1820 0.0000 (  5347 PWs)   bands (ev):

   -21.0224 -21.0165 -21.0129 -21.0125 -20.9903 -20.9804 -20.9690 -20.9645
   -20.9585 -20.9534 -12.8454 -11.9952  -6.6075  -5.4770  -3.2101  -3.1053
    -1.9091  -1.5912  -0.5308  -0.2969

     occupation numbers 
     1.0000   1.0000   1.0000   1.0000   1.0000   1.0000   1.0000   1.0000
     1.0000   1.0000   1.0000   1.0000   1.0000   1.0000   1.0000   1.0000
     1.0000   1.0000   1.0000   1.0000

          k = 0.1667 0.3640 0.0000 (  5345 PWs)   bands (ev):

   -21.0228 -21.0217 -21.0095 -21.0070 -20.9877 -20.9821 -20.9708 -20.9686
   -20.9546 -20.9517 -12.5098 -11.9679  -6.8130  -6.1367  -3.3262  -2.7676
    -1.9889  -1.4125  -1.0276  -0.4237

     occupation numbers 
     1.0000   1.0000   1.0000   1.0000   1.0000   1.0000   1.0000   1.0000
     1.0000   1.0000   1.0000   1.0000   1.0000   1.0000   1.0000   1.0000
     1.0000   1.0000   1.0000   1.0000

          k = 0.1667-0.5460 0.0000 (  5372 PWs)   bands (ev):

   -21.0246 -21.0246 -21.0053 -21.0053 -20.9849 -20.9849 -20.9710 -20.9710
   -20.9515 -20.9515 -12.1425 -12.1425  -6.7267  -6.7267  -2.7570  -2.7570
    -1.9220  -1.9220  -0.8894  -0.8894

     occupation numbers 
     1.0000   1.0000   1.0000   1.0000   1.0000   1.0000   1.0000   1.0000
     1.0000   1.0000   1.0000   1.0000   1.0000   1.0000   1.0000   1.0000
     1.0000   1.0000   1.0000   1.0000

          k = 0.3333 0.0000 0.0000 (  5323 PWs)   bands (ev):

   -21.0229 -21.0179 -21.0143 -21.0129 -20.9860 -20.9796 -20.9668 -20.9636
   -20.9593 -20.9559 -12.7103 -12.1362  -6.8586  -6.1527  -2.7159  -1.9932
    -1.7556  -1.2886  -0.7273   0.0061

     occupation numbers 
     1.0000   1.0000   1.0000   1.0000   1.0000   1.0000   1.0000   1.0000
     1.0000   1.0000   1.0000   1.0000   1.0000   1.0000   1.0000   1.0000
     1.0000   1.0000   1.0000   1.0000

          k = 0.3333 0.1820 0.0000 (  5331 PWs)   bands (ev):

   -21.0215 -21.0186 -21.0138 -21.0133 -20.9852 -20.9798 -20.9682 -20.9655
   -20.9577 -20.9548 -12.5963 -12.0786  -6.7602  -6.1185  -3.1953  -2.6633
    -2.1497  -1.3518  -0.6007  -0.3222

     occupation numbers 
     1.0000   1.0000   1.0000   1.0000   1.0000   1.0000   1.0000   1.0000
     1.0000   1.0000   1.0000   1.0000   1.0000   1.0000   1.0000   1.0000
     1.0000   1.0000   1.0000   1.0000

          k = 0.3333 0.3640 0.0000 (  5352 PWs)   bands (ev):

   -21.0254 -21.0247 -21.0090 -21.0073 -20.9838 -20.9809 -20.9701 -20.9688
   -20.9542 -20.9525 -12.3162 -11.9888  -6.5859  -6.1880  -3.9334  -3.0115
    -2.5877  -1.6917  -1.5570  -0.7529

     occupation numbers 
     1.0000   1.0000   1.0000   1.0000   1.0000   1.0000   1.0000   1.0000
     1.0000   1.0000   1.0000   1.0000   1.0000   1.0000   1.0000   1.0000
     1.0000   1.0000   1.0000   1.0000

          k = 0.3333-0.5460 0.0000 (  5340 PWs)   bands (ev):

   -21.0281 -21.0281 -21.0052 -21.0052 -20.9825 -20.9825 -20.9705 -20.9705
   -20.9517 -20.9517 -12.0524 -12.0524  -6.4333  -6.4333  -3.5879  -3.5879
    -2.5562  -2.5562  -1.2777  -1.2777

     occupation numbers 
     1.0000   1.0000   1.0000   1.0000   1.0000   1.0000   1.0000   1.0000
     1.0000   1.0000   1.0000   1.0000   1.0000   1.0000   1.0000   1.0000
     1.0000   1.0000   1.0000   1.0000

          k =-0.5000 0.0000 0.0000 (  5324 PWs)   bands (ev):

   -21.0202 -21.0202 -21.0143 -21.0143 -20.9813 -20.9813 -20.9652 -20.9652
   -20.9578 -20.9578 -12.3825 -12.3825  -6.7631  -6.7631  -2.0671  -2.0671
    -1.5198  -1.5198  -0.2096  -0.2096

     occupation numbers 
     1.0000   1.0000   1.0000   1.0000   1.0000   1.0000   1.0000   1.0000
     1.0000   1.0000   1.0000   1.0000   1.0000   1.0000   1.0000   1.0000
     1.0000   1.0000   1.0000   1.0000

          k =-0.5000 0.1820 0.0000 (  5300 PWs)   bands (ev):

   -21.0204 -21.0204 -21.0140 -21.0140 -20.9811 -20.9811 -20.9669 -20.9669
   -20.9563 -20.9563 -12.2958 -12.2958  -6.6317  -6.6317  -2.7124  -2.7124
    -1.9392  -1.9392  -0.4936  -0.4936

     occupation numbers 
     1.0000   1.0000   1.0000   1.0000   1.0000   1.0000   1.0000   1.0000
     1.0000   1.0000   1.0000   1.0000   1.0000   1.0000   1.0000   1.0000
     1.0000   1.0000   1.0000   1.0000

          k =-0.5000 0.3640 0.0000 (  5330 PWs)   bands (ev):

   -21.0264 -21.0264 -21.0081 -21.0081 -20.9811 -20.9811 -20.9693 -20.9693
   -20.9534 -20.9534 -12.1079 -12.1079  -6.3605  -6.3605  -3.7392  -3.7392
    -2.3316  -2.3316  -1.2888  -1.2888

     occupation numbers 
     1.0000   1.0000   1.0000   1.0000   1.0000   1.0000   1.0000   1.0000
     1.0000   1.0000   1.0000   1.0000   1.0000   1.0000   1.0000   1.0000
     1.0000   1.0000   1.0000   1.0000

          k =-0.5000-0.5460 0.0000 (  5292 PWs)   bands (ev):

   -21.0298 -21.0298 -21.0051 -21.0051 -20.9813 -20.9813 -20.9701 -20.9701
   -20.9518 -20.9518 -12.0055 -12.0055  -6.2488  -6.2488  -3.9054  -3.9054
    -3.0017  -3.0017  -1.2917  -1.2917

     occupation numbers 
     1.0000   1.0000   1.0000   1.0000   1.0000   1.0000   1.0000   1.0000
     1.0000   1.0000   1.0000   1.0000   1.0000   1.0000   1.0000   1.0000
     1.0000   1.0000   1.0000   1.0000

     highest occupied level (ev):     0.0185

!    total energy              =    -413.79453257 Ry
     estimated scf accuracy    <          1.5E-09 Ry

     The total energy is the sum of the following terms:
     one-electron contribution =    -726.36664065 Ry
     hartree contribution      =     377.09761925 Ry
     xc contribution           =    -154.40724722 Ry
     ewald contribution        =      89.88173604 Ry

     convergence has been achieved in   6 iterations

     negative rho (up, down):  7.849E-04 0.000E+00

     Forces acting on atoms (cartesian axes, Ry/au):

     atom    1 type  1   force =    -0.00502975    0.00000000    0.00916635
     atom    2 type  2   force =     0.00502975    0.00000000    0.00304369
     atom    3 type  2   force =     0.00502975    0.00000000   -0.00304369
     atom    4 type  1   force =    -0.00502975    0.00000000   -0.00916635
     The non-local contrib.  to forces
     atom    1 type  1   force =     0.27717201    0.00000000    0.48001467
     atom    2 type  2   force =    -0.10577553    0.00000000    0.14301759
     atom    3 type  2   force =    -0.10577553    0.00000000   -0.14301759
     atom    4 type  1   force =     0.27717201    0.00000000   -0.48001467
     The ionic contribution  to forces
     atom    1 type  1   force =    -1.65007239    0.00000000  -33.54372412
     atom    2 type  2   force =     1.65007239    0.00000000  -12.60588197
     atom    3 type  2   force =     1.65007239    0.00000000   12.60588197
     atom    4 type  1   force =    -1.65007239    0.00000000   33.54372412
     The local contribution  to forces
     atom    1 type  1   force =     1.37120199    0.00000000   33.08199756
     atom    2 type  2   force =    -1.55094602   -0.00000000   12.48235312
     atom    3 type  2   force =    -1.55094602   -0.00000000  -12.48235312
     atom    4 type  1   force =     1.37120199    0.00000000  -33.08199756
     The core correction contribution to forces
     atom    1 type  1   force =    -0.00331928    0.00000000   -0.00928170
     atom    2 type  2   force =     0.01167985    0.00000000   -0.01647460
     atom    3 type  2   force =     0.01167985    0.00000000    0.01647460
     atom    4 type  1   force =    -0.00331928    0.00000000    0.00928170
     The Hubbard contrib.    to forces
     atom    1 type  1   force =     0.00000000    0.00000000    0.00000000
     atom    2 type  2   force =     0.00000000    0.00000000    0.00000000
     atom    3 type  2   force =     0.00000000    0.00000000    0.00000000
     atom    4 type  1   force =     0.00000000    0.00000000    0.00000000
     The SCF correction term to forces
     atom    1 type  1   force =    -0.00000716   -0.00000000    0.00015994
     atom    2 type  2   force =     0.00000398    0.00000000    0.00002955
     atom    3 type  2   force =     0.00000398    0.00000000   -0.00002955
     atom    4 type  1   force =    -0.00000716    0.00000000   -0.00015994

     Total force =     0.016964     Total SCF correction =     0.000230
     Energy error            =      3.4E-04
     Gradient error          =      9.2E-03

     number of scf cycles    =   2
     number of bfgs steps    =   1

     energy   old            =    -413.7941973442 Ry
     energy   new            =    -413.7945325735 Ry

     CASE: energy  _new < energy  _old


     WARNING: bfgs curvature condition failed, Theta= 0.889
     new trust radius        =       0.0125677661 bohr
     new conv_thr            =       0.0000000003 Ry


ATOMIC_POSITIONS (alat)
Sn            0.1109448026        0.6867632532        1.3104464033
Se            0.5180941450        0.2289210844        1.3811801196
Se            0.0180941450        0.6867632532        1.9115429625
Sn            0.6109448026        0.2289210844        1.9822766787



     Writing output data file ./tmp/SnSe_monolayer.save/
     NEW-OLD atomic charge density approx. for the potential

     negative rho (up, down):  7.912E-04 0.000E+00

     total cpu time spent up to now is      162.9 secs

     Self-consistent Calculation

     iteration #  1     ecut=    30.00 Ry     beta= 0.70
     Davidson diagonalization with overlap
     ethr =  1.00E-06,  avg # of iterations =  4.0

     Threshold (ethr) on eigenvalues was too large:
     Diagonalizing with lowered threshold

     Davidson diagonalization with overlap
     ethr =  7.04E-08,  avg # of iterations =  3.6

     negative rho (up, down):  7.935E-04 0.000E+00

     total cpu time spent up to now is      183.4 secs

     total energy              =    -413.79483408 Ry
     estimated scf accuracy    <       0.00004203 Ry

     iteration #  2     ecut=    30.00 Ry     beta= 0.70
     Davidson diagonalization with overlap
     ethr =  1.05E-07,  avg # of iterations =  3.2

     negative rho (up, down):  7.920E-04 0.000E+00

     total cpu time spent up to now is      192.2 secs

     total energy              =    -413.79484213 Ry
     estimated scf accuracy    <       0.00006393 Ry

     iteration #  3     ecut=    30.00 Ry     beta= 0.70
     Davidson diagonalization with overlap
     ethr =  1.05E-07,  avg # of iterations =  2.0

     negative rho (up, down):  7.913E-04 0.000E+00

     total cpu time spent up to now is      200.7 secs

     total energy              =    -413.79485419 Ry
     estimated scf accuracy    <       0.00000014 Ry

     iteration #  4     ecut=    30.00 Ry     beta= 0.70
     Davidson diagonalization with overlap
     ethr =  3.48E-10,  avg # of iterations =  5.9

     negative rho (up, down):  7.916E-04 0.000E+00

     total cpu time spent up to now is      210.7 secs

     total energy              =    -413.79485445 Ry
     estimated scf accuracy    <       0.00000034 Ry

     iteration #  5     ecut=    30.00 Ry     beta= 0.70
     Davidson diagonalization with overlap
     ethr =  3.48E-10,  avg # of iterations =  3.2

     negative rho (up, down):  7.918E-04 0.000E+00

     total cpu time spent up to now is      217.7 secs

     total energy              =    -413.79485448 Ry
     estimated scf accuracy    <       0.00000003 Ry

     iteration #  6     ecut=    30.00 Ry     beta= 0.70
     Davidson diagonalization with overlap
     ethr =  7.65E-11,  avg # of iterations =  2.8

     negative rho (up, down):  7.919E-04 0.000E+00

     total cpu time spent up to now is      225.3 secs

     total energy              =    -413.79485449 Ry
     estimated scf accuracy    <          1.6E-09 Ry

     iteration #  7     ecut=    30.00 Ry     beta= 0.70
     Davidson diagonalization with overlap
     ethr =  4.02E-12,  avg # of iterations =  3.3

     negative rho (up, down):  7.919E-04 0.000E+00

     total cpu time spent up to now is      234.5 secs

     total energy              =    -413.79485449 Ry
     estimated scf accuracy    <          5.2E-10 Ry

     iteration #  8     ecut=    30.00 Ry     beta= 0.70
     Davidson diagonalization with overlap
     ethr =  1.30E-12,  avg # of iterations =  3.8

     negative rho (up, down):  7.919E-04 0.000E+00

     total cpu time spent up to now is      244.6 secs

     End of self-consistent calculation

          k = 0.0000 0.0000 0.0000 (  5331 PWs)   bands (ev):

   -21.0266 -21.0176 -21.0141 -21.0113 -20.9952 -20.9808 -20.9691 -20.9625
   -20.9611 -20.9541 -13.0862 -12.0176  -6.2734  -4.6753  -3.4557  -2.7950
    -2.5533  -1.4619  -1.3984   0.0125

     occupation numbers 
     1.0000   1.0000   1.0000   1.0000   1.0000   1.0000   1.0000   1.0000
     1.0000   1.0000   1.0000   1.0000   1.0000   1.0000   1.0000   1.0000
     1.0000   1.0000   1.0000   1.0000

          k = 0.0000 0.1820 0.0000 (  5316 PWs)   bands (ev):

   -21.0235 -21.0168 -21.0140 -21.0129 -20.9937 -20.9813 -20.9701 -20.9648
   -20.9595 -20.9534 -12.9515 -11.9835  -6.5175  -5.1782  -3.2777  -2.7167
    -2.4165  -1.4710  -1.0504  -0.1565

     occupation numbers 
     1.0000   1.0000   1.0000   1.0000   1.0000   1.0000   1.0000   1.0000
     1.0000   1.0000   1.0000   1.0000   1.0000   1.0000   1.0000   1.0000
     1.0000   1.0000   1.0000   1.0000

          k = 0.0000 0.3640 0.0000 (  5350 PWs)   bands (ev):

   -21.0226 -21.0215 -21.0106 -21.0081 -20.9905 -20.9832 -20.9718 -20.9691
   -20.9555 -20.9521 -12.5982 -11.9795  -6.9156  -6.1446  -2.7880  -2.4356
    -1.9250  -1.3974  -0.6262  -0.4992

     occupation numbers 
     1.0000   1.0000   1.0000   1.0000   1.0000   1.0000   1.0000   1.0000
     1.0000   1.0000   1.0000   1.0000   1.0000   1.0000   1.0000   1.0000
     1.0000   1.0000   1.0000   1.0000

          k = 0.0000-0.5460 0.0000 (  5354 PWs)   bands (ev):

   -21.0241 -21.0241 -21.0063 -21.0063 -20.9867 -20.9867 -20.9718 -20.9718
   -20.9523 -20.9523 -12.1951 -12.1951  -6.8479  -6.8479  -2.2499  -2.2499
    -1.5809  -1.5809  -0.6160  -0.6160

     occupation numbers 
     1.0000   1.0000   1.0000   1.0000   1.0000   1.0000   1.0000   1.0000
     1.0000   1.0000   1.0000   1.0000   1.0000   1.0000   1.0000   1.0000
     1.0000   1.0000   1.0000   1.0000

          k = 0.1667 0.0000 0.0000 (  5327 PWs)   bands (ev):

   -21.0259 -21.0178 -21.0146 -21.0122 -20.9926 -20.9804 -20.9687 -20.9630
   -20.9609 -20.9548 -12.9864 -12.0358  -6.5357  -5.2530  -3.2129  -2.4157
    -2.4018  -1.3361  -0.9246  -0.2613

     occupation numbers 
     1.0000   1.0000   1.0000   1.0000   1.0000   1.0000   1.0000   1.0000
     1.0000   1.0000   1.0000   1.0000   1.0000   1.0000   1.0000   1.0000
     1.0000   1.0000   1.0000   1.0000

          k = 0.1667 0.1820 0.0000 (  5347 PWs)   bands (ev):

   -21.0233 -21.0178 -21.0139 -21.0137 -20.9913 -20.9809 -20.9698 -20.9652
   -20.9592 -20.9540 -12.8566 -11.9968  -6.6188  -5.4799  -3.2224  -3.1076
    -1.9067  -1.6023  -0.5336  -0.3014

     occupation numbers 
     1.0000   1.0000   1.0000   1.0000   1.0000   1.0000   1.0000   1.0000
     1.0000   1.0000   1.0000   1.0000   1.0000   1.0000   1.0000   1.0000
     1.0000   1.0000   1.0000   1.0000

          k = 0.1667 0.3640 0.0000 (  5345 PWs)   bands (ev):

   -21.0240 -21.0230 -21.0104 -21.0080 -20.9886 -20.9827 -20.9715 -20.9691
   -20.9554 -20.9524 -12.5207 -11.9733  -6.8168  -6.1355  -3.3399  -2.7693
    -1.9933  -1.4206  -1.0339  -0.4243

     occupation numbers 
     1.0000   1.0000   1.0000   1.0000   1.0000   1.0000   1.0000   1.0000
     1.0000   1.0000   1.0000   1.0000   1.0000   1.0000   1.0000   1.0000
     1.0000   1.0000   1.0000   1.0000

          k = 0.1667-0.5460 0.0000 (  5372 PWs)   bands (ev):

   -21.0259 -21.0259 -21.0061 -21.0061 -20.9856 -20.9856 -20.9715 -20.9715
   -20.9524 -20.9524 -12.1517 -12.1517  -6.7252  -6.7252  -2.7687  -2.7687
    -1.9278  -1.9278  -0.8898  -0.8898

     occupation numbers 
     1.0000   1.0000   1.0000   1.0000   1.0000   1.0000   1.0000   1.0000
     1.0000   1.0000   1.0000   1.0000   1.0000   1.0000   1.0000   1.0000
     1.0000   1.0000   1.0000   1.0000

          k = 0.3333 0.0000 0.0000 (  5323 PWs)   bands (ev):

   -21.0237 -21.0188 -21.0156 -21.0142 -20.9869 -20.9802 -20.9676 -20.9643
   -20.9600 -20.9565 -12.7197 -12.1390  -6.8719  -6.1600  -2.7204  -1.9955
    -1.7701  -1.2811  -0.7310   0.0043

     occupation numbers 
     1.0000   1.0000   1.0000   1.0000   1.0000   1.0000   1.0000   1.0000
     1.0000   1.0000   1.0000   1.0000   1.0000   1.0000   1.0000   1.0000
     1.0000   1.0000   1.0000   1.0000

          k = 0.3333 0.1820 0.0000 (  5331 PWs)   bands (ev):

   -21.0225 -21.0198 -21.0149 -21.0143 -20.9861 -20.9805 -20.9689 -20.9662
   -20.9584 -20.9554 -12.6058 -12.0824  -6.7711  -6.1244  -3.2040  -2.6652
    -2.1468  -1.3596  -0.6109  -0.3223

     occupation numbers 
     1.0000   1.0000   1.0000   1.0000   1.0000   1.0000   1.0000   1.0000
     1.0000   1.0000   1.0000   1.0000   1.0000   1.0000   1.0000   1.0000
     1.0000   1.0000   1.0000   1.0000

          k = 0.3333 0.3640 0.0000 (  5352 PWs)   bands (ev):

   -21.0267 -21.0260 -21.0098 -21.0081 -20.9847 -20.9817 -20.9708 -20.9693
   -20.9550 -20.9533 -12.3260 -11.9952  -6.5890  -6.1885  -3.9471  -3.0080
    -2.6033  -1.6970  -1.5637  -0.7548

     occupation numbers 
     1.0000   1.0000   1.0000   1.0000   1.0000   1.0000   1.0000   1.0000
     1.0000   1.0000   1.0000   1.0000   1.0000   1.0000   1.0000   1.0000
     1.0000   1.0000   1.0000   1.0000

          k = 0.3333-0.5460 0.0000 (  5340 PWs)   bands (ev):

   -21.0294 -21.0294 -21.0059 -21.0059 -20.9833 -20.9833 -20.9710 -20.9710
   -20.9526 -20.9526 -12.0613 -12.0613  -6.4305  -6.4305  -3.6061  -3.6061
    -2.5572  -2.5572  -1.2835  -1.2835

     occupation numbers 
     1.0000   1.0000   1.0000   1.0000   1.0000   1.0000   1.0000   1.0000
     1.0000   1.0000   1.0000   1.0000   1.0000   1.0000   1.0000   1.0000
     1.0000   1.0000   1.0000   1.0000

          k =-0.5000 0.0000 0.0000 (  5324 PWs)   bands (ev):

   -21.0210 -21.0210 -21.0156 -21.0156 -20.9821 -20.9821 -20.9660 -20.9660
   -20.9585 -20.9585 -12.3889 -12.3889  -6.7735  -6.7735  -2.0737  -2.0737
    -1.5170  -1.5170  -0.2155  -0.2155

     occupation numbers 
     1.0000   1.0000   1.0000   1.0000   1.0000   1.0000   1.0000   1.0000
     1.0000   1.0000   1.0000   1.0000   1.0000   1.0000   1.0000   1.0000
     1.0000   1.0000   1.0000   1.0000

          k =-0.5000 0.1820 0.0000 (  5300 PWs)   bands (ev):

   -21.0215 -21.0215 -21.0150 -21.0150 -20.9819 -20.9819 -20.9676 -20.9676
   -20.9570 -20.9570 -12.3026 -12.3026  -6.6405  -6.6405  -2.7147  -2.7147
    -1.9447  -1.9447  -0.4977  -0.4977

     occupation numbers 
     1.0000   1.0000   1.0000   1.0000   1.0000   1.0000   1.0000   1.0000
     1.0000   1.0000   1.0000   1.0000   1.0000   1.0000   1.0000   1.0000
     1.0000   1.0000   1.0000   1.0000

          k =-0.5000 0.3640 0.0000 (  5330 PWs)   bands (ev):

   -21.0278 -21.0278 -21.0089 -21.0089 -20.9820 -20.9820 -20.9699 -20.9699
   -20.9542 -20.9542 -12.1160 -12.1160  -6.3628  -6.3628  -3.7484  -3.7484
    -2.3383  -2.3383  -1.2938  -1.2938

     occupation numbers 
     1.0000   1.0000   1.0000   1.0000   1.0000   1.0000   1.0000   1.0000
     1.0000   1.0000   1.0000   1.0000   1.0000   1.0000   1.0000   1.0000
     1.0000   1.0000   1.0000   1.0000

          k =-0.5000-0.5460 0.0000 (  5292 PWs)   bands (ev):

   -21.0312 -21.0312 -21.0058 -21.0058 -20.9822 -20.9822 -20.9706 -20.9706
   -20.9527 -20.9527 -12.0142 -12.0142  -6.2447  -6.2447  -3.9268  -3.9268
    -3.0016  -3.0016  -1.2984  -1.2984

     occupation numbers 
     1.0000   1.0000   1.0000   1.0000   1.0000   1.0000   1.0000   1.0000
     1.0000   1.0000   1.0000   1.0000   1.0000   1.0000   1.0000   1.0000
     1.0000   1.0000   1.0000   1.0000

     highest occupied level (ev):     0.0125

!    total energy              =    -413.79485449 Ry
     estimated scf accuracy    <          2.2E-12 Ry

     The total energy is the sum of the following terms:
     one-electron contribution =    -727.94891780 Ry
     hartree contribution      =     377.88599668 Ry
     xc contribution           =    -154.40990667 Ry
     ewald contribution        =      90.67797331 Ry

     convergence has been achieved in   8 iterations

     negative rho (up, down):  7.919E-04 0.000E+00

     Forces acting on atoms (cartesian axes, Ry/au):

     atom    1 type  1   force =    -0.00450968    0.00000000    0.00797102
     atom    2 type  2   force =     0.00450968    0.00000000    0.00195291
     atom    3 type  2   force =     0.00450968    0.00000000   -0.00195291
     atom    4 type  1   force =    -0.00450968    0.00000000   -0.00797102
     The non-local contrib.  to forces
     atom    1 type  1   force =     0.27401160    0.00000000    0.48103181
     atom    2 type  2   force =    -0.10471195    0.00000000    0.14457715
     atom    3 type  2   force =    -0.10471195    0.00000000   -0.14457715
     atom    4 type  1   force =     0.27401160    0.00000000   -0.48103181
     The ionic contribution  to forces
     atom    1 type  1   force =    -1.62226094    0.00000000  -33.58412349
     atom    2 type  2   force =     1.62226094   -0.00000000  -12.67422327
     atom    3 type  2   force =     1.62226094    0.00000000   12.67422327
     atom    4 type  1   force =    -1.62226094    0.00000000   33.58412349
     The local contribution  to forces
     atom    1 type  1   force =     1.34707913    0.00000000   33.12020489
     atom    2 type  2   force =    -1.52460609    0.00000000   12.54821566
     atom    3 type  2   force =    -1.52460609    0.00000000  -12.54821567
     atom    4 type  1   force =     1.34707913    0.00000000  -33.12020489
     The core correction contribution to forces
     atom    1 type  1   force =    -0.00333048   -0.00000000   -0.00914232
     atom    2 type  2   force =     0.01157695   -0.00000000   -0.01661705
     atom    3 type  2   force =     0.01157695   -0.00000000    0.01661705
     atom    4 type  1   force =    -0.00333048    0.00000000    0.00914232
     The Hubbard contrib.    to forces
     atom    1 type  1   force =     0.00000000    0.00000000    0.00000000
     atom    2 type  2   force =     0.00000000    0.00000000    0.00000000
     atom    3 type  2   force =     0.00000000    0.00000000    0.00000000
     atom    4 type  1   force =     0.00000000    0.00000000    0.00000000
     The SCF correction term to forces
     atom    1 type  1   force =     0.00000072   -0.00000000    0.00000013
     atom    2 type  2   force =    -0.00000047   -0.00000000    0.00000042
     atom    3 type  2   force =    -0.00000047   -0.00000000   -0.00000042
     atom    4 type  1   force =     0.00000072   -0.00000000   -0.00000013

     Total force =     0.014699     Total SCF correction =     0.000001
     Energy error            =      3.2E-04
     Gradient error          =      8.0E-03

     number of scf cycles    =   3
     number of bfgs steps    =   2

     energy   old            =    -413.7945325735 Ry
     energy   new            =    -413.7948544900 Ry

     CASE: energy  _new < energy  _old

     new trust radius        =       0.0188516491 bohr
     new conv_thr            =       0.0000000003 Ry


ATOMIC_POSITIONS (alat)
Sn            0.1098706724        0.6867632532        1.3123547243
Se            0.5191682752        0.2289210844        1.3817069183
Se            0.0191682752        0.6867632532        1.9110161638
Sn            0.6098706724        0.2289210844        1.9803683577



     Writing output data file ./tmp/SnSe_monolayer.save/
     NEW-OLD atomic charge density approx. for the potential

     negative rho (up, down):  8.031E-04 0.000E+00

     total cpu time spent up to now is      251.8 secs

     Self-consistent Calculation

     iteration #  1     ecut=    30.00 Ry     beta= 0.70
     Davidson diagonalization with overlap
     ethr =  1.00E-06,  avg # of iterations =  5.2

     negative rho (up, down):  8.049E-04 0.000E+00

     total cpu time spent up to now is      264.2 secs

     total energy              =    -413.79521570 Ry
     estimated scf accuracy    <       0.00007415 Ry

     iteration #  2     ecut=    30.00 Ry     beta= 0.70
     Davidson diagonalization with overlap
     ethr =  1.85E-07,  avg # of iterations =  3.0

     negative rho (up, down):  8.031E-04 0.000E+00

     total cpu time spent up to now is      272.1 secs

     total energy              =    -413.79523406 Ry
     estimated scf accuracy    <       0.00008864 Ry

     iteration #  3     ecut=    30.00 Ry     beta= 0.70
     Davidson diagonalization with overlap
     ethr =  1.85E-07,  avg # of iterations =  2.0

     negative rho (up, down):  8.023E-04 0.000E+00

     total cpu time spent up to now is      276.9 secs

     total energy              =    -413.79525292 Ry
     estimated scf accuracy    <       0.00000051 Ry

     iteration #  4     ecut=    30.00 Ry     beta= 0.70
     Davidson diagonalization with overlap
     ethr =  1.29E-09,  avg # of iterations =  5.2

     negative rho (up, down):  8.028E-04 0.000E+00

     total cpu time spent up to now is      287.0 secs

     total energy              =    -413.79525341 Ry
     estimated scf accuracy    <       0.00000038 Ry

     iteration #  5     ecut=    30.00 Ry     beta= 0.70
     Davidson diagonalization with overlap
     ethr =  9.54E-10,  avg # of iterations =  3.1

     negative rho (up, down):  8.029E-04 0.000E+00

     total cpu time spent up to now is      292.5 secs

     total energy              =    -413.79525350 Ry
     estimated scf accuracy    <       0.00000004 Ry

     iteration #  6     ecut=    30.00 Ry     beta= 0.70
     Davidson diagonalization with overlap
     ethr =  8.76E-11,  avg # of iterations =  2.1

     negative rho (up, down):  8.029E-04 0.000E+00

     total cpu time spent up to now is      296.6 secs

     total energy              =    -413.79525350 Ry
     estimated scf accuracy    <          6.5E-09 Ry

     iteration #  7     ecut=    30.00 Ry     beta= 0.70
     Davidson diagonalization with overlap
     ethr =  1.63E-11,  avg # of iterations =  3.9

     negative rho (up, down):  8.029E-04 0.000E+00

     total cpu time spent up to now is      302.4 secs

     total energy              =    -413.79525351 Ry
     estimated scf accuracy    <          6.8E-10 Ry

     iteration #  8     ecut=    30.00 Ry     beta= 0.70
     Davidson diagonalization with overlap
     ethr =  1.69E-12,  avg # of iterations =  3.2

     negative rho (up, down):  8.029E-04 0.000E+00

     total cpu time spent up to now is      308.0 secs

     End of self-consistent calculation

          k = 0.0000 0.0000 0.0000 (  5331 PWs)   bands (ev):

   -21.0282 -21.0195 -21.0162 -21.0132 -20.9970 -20.9816 -20.9707 -20.9638
   -20.9625 -20.9551 -13.1025 -12.0170  -6.2928  -4.6819  -3.4578  -2.8268
    -2.5615  -1.4741  -1.3864   0.0028

     occupation numbers 
     1.0000   1.0000   1.0000   1.0000   1.0000   1.0000   1.0000   1.0000
     1.0000   1.0000   1.0000   1.0000   1.0000   1.0000   1.0000   1.0000
     1.0000   1.0000   1.0000   1.0000

          k = 0.0000 0.1820 0.0000 (  5316 PWs)   bands (ev):

   -21.0251 -21.0189 -21.0159 -21.0148 -20.9954 -20.9821 -20.9716 -20.9659
   -20.9609 -20.9545 -12.9679 -11.9850  -6.5325  -5.1810  -3.2801  -2.7368
    -2.4348  -1.4740  -1.0470  -0.1664

     occupation numbers 
     1.0000   1.0000   1.0000   1.0000   1.0000   1.0000   1.0000   1.0000
     1.0000   1.0000   1.0000   1.0000   1.0000   1.0000   1.0000   1.0000
     1.0000   1.0000   1.0000   1.0000

          k = 0.0000 0.3640 0.0000 (  5350 PWs)   bands (ev):

   -21.0245 -21.0236 -21.0123 -21.0099 -20.9919 -20.9842 -20.9731 -20.9702
   -20.9570 -20.9534 -12.6142 -11.9869  -6.9209  -6.1425  -2.7917  -2.4455
    -1.9492  -1.4004  -0.6328  -0.4943

     occupation numbers 
     1.0000   1.0000   1.0000   1.0000   1.0000   1.0000   1.0000   1.0000
     1.0000   1.0000   1.0000   1.0000   1.0000   1.0000   1.0000   1.0000
     1.0000   1.0000   1.0000   1.0000

          k = 0.0000-0.5460 0.0000 (  5354 PWs)   bands (ev):

   -21.0262 -21.0262 -21.0081 -21.0081 -20.9879 -20.9879 -20.9729 -20.9729
   -20.9538 -20.9538 -12.2085 -12.2085  -6.8461  -6.8461  -2.2554  -2.2554
    -1.5943  -1.5943  -0.6191  -0.6191

     occupation numbers 
     1.0000   1.0000   1.0000   1.0000   1.0000   1.0000   1.0000   1.0000
     1.0000   1.0000   1.0000   1.0000   1.0000   1.0000   1.0000   1.0000
     1.0000   1.0000   1.0000   1.0000

          k = 0.1667 0.0000 0.0000 (  5327 PWs)   bands (ev):

   -21.0274 -21.0196 -21.0168 -21.0141 -20.9944 -20.9813 -20.9703 -20.9643
   -20.9622 -20.9558 -13.0020 -12.0363  -6.5560  -5.2610  -3.2171  -2.4440
    -2.4086  -1.3237  -0.9325  -0.2684

     occupation numbers 
     1.0000   1.0000   1.0000   1.0000   1.0000   1.0000   1.0000   1.0000
     1.0000   1.0000   1.0000   1.0000   1.0000   1.0000   1.0000   1.0000
     1.0000   1.0000   1.0000   1.0000

          k = 0.1667 0.1820 0.0000 (  5347 PWs)   bands (ev):

   -21.0248 -21.0199 -21.0158 -21.0157 -20.9930 -20.9818 -20.9713 -20.9664
   -20.9606 -20.9551 -12.8722 -11.9993  -6.6344  -5.4849  -3.2403  -3.1102
    -1.9034  -1.6181  -0.5373  -0.3079

     occupation numbers 
     1.0000   1.0000   1.0000   1.0000   1.0000   1.0000   1.0000   1.0000
     1.0000   1.0000   1.0000   1.0000   1.0000   1.0000   1.0000   1.0000
     1.0000   1.0000   1.0000   1.0000

          k = 0.1667 0.3640 0.0000 (  5345 PWs)   bands (ev):

   -21.0260 -21.0251 -21.0121 -21.0097 -20.9901 -20.9837 -20.9728 -20.9702
   -20.9569 -20.9537 -12.5361 -11.9811  -6.8216  -6.1341  -3.3597  -2.7712
    -1.9999  -1.4322  -1.0426  -0.4248

     occupation numbers 
     1.0000   1.0000   1.0000   1.0000   1.0000   1.0000   1.0000   1.0000
     1.0000   1.0000   1.0000   1.0000   1.0000   1.0000   1.0000   1.0000
     1.0000   1.0000   1.0000   1.0000

          k = 0.1667-0.5460 0.0000 (  5372 PWs)   bands (ev):

   -21.0280 -21.0280 -21.0078 -21.0078 -20.9869 -20.9869 -20.9727 -20.9727
   -20.9539 -20.9539 -12.1648 -12.1648  -6.7227  -6.7227  -2.7855  -2.7855
    -1.9358  -1.9358  -0.8904  -0.8904

     occupation numbers 
     1.0000   1.0000   1.0000   1.0000   1.0000   1.0000   1.0000   1.0000
     1.0000   1.0000   1.0000   1.0000   1.0000   1.0000   1.0000   1.0000
     1.0000   1.0000   1.0000   1.0000

          k = 0.3333 0.0000 0.0000 (  5323 PWs)   bands (ev):

   -21.0253 -21.0205 -21.0178 -21.0162 -20.9886 -20.9814 -20.9690 -20.9656
   -20.9613 -20.9576 -12.7329 -12.1430  -6.8909  -6.1712  -2.7269  -1.9982
    -1.7912  -1.2698  -0.7357   0.0020

     occupation numbers 
     1.0000   1.0000   1.0000   1.0000   1.0000   1.0000   1.0000   1.0000
     1.0000   1.0000   1.0000   1.0000   1.0000   1.0000   1.0000   1.0000
     1.0000   1.0000   1.0000   1.0000

          k = 0.3333 0.1820 0.0000 (  5331 PWs)   bands (ev):

   -21.0242 -21.0219 -21.0168 -21.0160 -20.9877 -20.9817 -20.9703 -20.9674
   -20.9597 -20.9565 -12.6193 -12.0878  -6.7866  -6.1333  -3.2164  -2.6679
    -2.1419  -1.3710  -0.6256  -0.3216

     occupation numbers 
     1.0000   1.0000   1.0000   1.0000   1.0000   1.0000   1.0000   1.0000
     1.0000   1.0000   1.0000   1.0000   1.0000   1.0000   1.0000   1.0000
     1.0000   1.0000   1.0000   1.0000

          k = 0.3333 0.3640 0.0000 (  5352 PWs)   bands (ev):

   -21.0288 -21.0282 -21.0113 -21.0097 -20.9862 -20.9830 -20.9720 -20.9704
   -20.9564 -20.9546 -12.3397 -12.0043  -6.5929  -6.1893  -3.9670  -3.0028
    -2.6254  -1.7043  -1.5738  -0.7578

     occupation numbers 
     1.0000   1.0000   1.0000   1.0000   1.0000   1.0000   1.0000   1.0000
     1.0000   1.0000   1.0000   1.0000   1.0000   1.0000   1.0000   1.0000
     1.0000   1.0000   1.0000   1.0000

          k = 0.3333-0.5460 0.0000 (  5340 PWs)   bands (ev):

   -21.0316 -21.0316 -21.0073 -21.0073 -20.9848 -20.9848 -20.9720 -20.9720
   -20.9541 -20.9541 -12.0739 -12.0739  -6.4258  -6.4258  -3.6328  -3.6328
    -2.5581  -2.5581  -1.2923  -1.2923

     occupation numbers 
     1.0000   1.0000   1.0000   1.0000   1.0000   1.0000   1.0000   1.0000
     1.0000   1.0000   1.0000   1.0000   1.0000   1.0000   1.0000   1.0000
     1.0000   1.0000   1.0000   1.0000

          k =-0.5000 0.0000 0.0000 (  5324 PWs)   bands (ev):

   -21.0226 -21.0226 -21.0177 -21.0177 -20.9835 -20.9835 -20.9673 -20.9673
   -20.9596 -20.9596 -12.3979 -12.3979  -6.7887  -6.7887  -2.0833  -2.0833
    -1.5122  -1.5122  -0.2229  -0.2229

     occupation numbers 
     1.0000   1.0000   1.0000   1.0000   1.0000   1.0000   1.0000   1.0000
     1.0000   1.0000   1.0000   1.0000   1.0000   1.0000   1.0000   1.0000
     1.0000   1.0000   1.0000   1.0000

          k =-0.5000 0.1820 0.0000 (  5300 PWs)   bands (ev):

   -21.0235 -21.0235 -21.0167 -21.0167 -20.9834 -20.9834 -20.9688 -20.9688
   -20.9583 -20.9583 -12.3123 -12.3123  -6.6534  -6.6534  -2.7178  -2.7178
    -1.9525  -1.9525  -0.5034  -0.5034

     occupation numbers 
     1.0000   1.0000   1.0000   1.0000   1.0000   1.0000   1.0000   1.0000
     1.0000   1.0000   1.0000   1.0000   1.0000   1.0000   1.0000   1.0000
     1.0000   1.0000   1.0000   1.0000

          k =-0.5000 0.3640 0.0000 (  5330 PWs)   bands (ev):

   -21.0300 -21.0300 -21.0103 -21.0103 -20.9835 -20.9835 -20.9709 -20.9709
   -20.9556 -20.9556 -12.1273 -12.1273  -6.3660  -6.3660  -3.7619  -3.7619
    -2.3474  -2.3474  -1.3015  -1.3015

     occupation numbers 
     1.0000   1.0000   1.0000   1.0000   1.0000   1.0000   1.0000   1.0000
     1.0000   1.0000   1.0000   1.0000   1.0000   1.0000   1.0000   1.0000
     1.0000   1.0000   1.0000   1.0000

          k =-0.5000-0.5460 0.0000 (  5292 PWs)   bands (ev):

   -21.0334 -21.0334 -21.0072 -21.0072 -20.9837 -20.9837 -20.9716 -20.9716
   -20.9541 -20.9541 -12.0265 -12.0265  -6.2381  -6.2381  -3.9587  -3.9587
    -3.0009  -3.0009  -1.3087  -1.3087

     occupation numbers 
     1.0000   1.0000   1.0000   1.0000   1.0000   1.0000   1.0000   1.0000
     1.0000   1.0000   1.0000   1.0000   1.0000   1.0000   1.0000   1.0000
     1.0000   1.0000   1.0000   1.0000

     highest occupied level (ev):     0.0028

!    total energy              =    -413.79525351 Ry
     estimated scf accuracy    <          7.7E-11 Ry

     The total energy is the sum of the following terms:
     one-electron contribution =    -730.25412318 Ry
     hartree contribution      =     379.03404481 Ry
     xc contribution           =    -154.41366694 Ry
     ewald contribution        =      91.83849180 Ry

     convergence has been achieved in   8 iterations

     negative rho (up, down):  8.029E-04 0.000E+00

     Forces acting on atoms (cartesian axes, Ry/au):

     atom    1 type  1   force =    -0.00374422    0.00000000    0.00636874
     atom    2 type  2   force =     0.00374422    0.00000000    0.00032118
     atom    3 type  2   force =     0.00374422   -0.00000000   -0.00032118
     atom    4 type  1   force =    -0.00374422   -0.00000000   -0.00636874
     The non-local contrib.  to forces
     atom    1 type  1   force =     0.26924091    0.00000000    0.48238074
     atom    2 type  2   force =    -0.10305253    0.00000000    0.14685916
     atom    3 type  2   force =    -0.10305253    0.00000000   -0.14685916
     atom    4 type  1   force =     0.26924091    0.00000000   -0.48238074
     The ionic contribution  to forces
     atom    1 type  1   force =    -1.58056368    0.00000000  -33.63757015
     atom    2 type  2   force =     1.58056368   -0.00000000  -12.77850745
     atom    3 type  2   force =     1.58056368   -0.00000000   12.77850745
     atom    4 type  1   force =    -1.58056368    0.00000000   33.63757015
     The local contribution  to forces
     atom    1 type  1   force =     1.31094169    0.00000000   33.17050509
     atom    2 type  2   force =    -1.48517460    0.00000000   12.64879330
     atom    3 type  2   force =    -1.48517460    0.00000000  -12.64879331
     atom    4 type  1   force =     1.31094169    0.00000000  -33.17050509
     The core correction contribution to forces
     atom    1 type  1   force =    -0.00334504    0.00000000   -0.00893082
     atom    2 type  2   force =     0.01141339   -0.00000000   -0.01682273
     atom    3 type  2   force =     0.01141339   -0.00000000    0.01682273
     atom    4 type  1   force =    -0.00334504   -0.00000000    0.00893082
     The Hubbard contrib.    to forces
     atom    1 type  1   force =     0.00000000    0.00000000    0.00000000
     atom    2 type  2   force =     0.00000000    0.00000000    0.00000000
     atom    3 type  2   force =     0.00000000    0.00000000    0.00000000
     atom    4 type  1   force =     0.00000000    0.00000000    0.00000000
     The SCF correction term to forces
     atom    1 type  1   force =    -0.00001210    0.00000000   -0.00001613
     atom    2 type  2   force =     0.00000029    0.00000000   -0.00000110
     atom    3 type  2   force =     0.00000029    0.00000000    0.00000110
     atom    4 type  1   force =    -0.00001210    0.00000000    0.00001613

     Total force =     0.011722     Total SCF correction =     0.000029
     Energy error            =      4.0E-04
     Gradient error          =      6.4E-03

     number of scf cycles    =   4
     number of bfgs steps    =   3

     energy   old            =    -413.7948544900 Ry
     energy   new            =    -413.7952535067 Ry

     CASE: energy  _new < energy  _old

     new trust radius        =       0.0282774736 bohr
     new conv_thr            =       0.0000000004 Ry


ATOMIC_POSITIONS (alat)
Sn            0.1082376581        0.6867632532        1.3152048144
Se            0.5208012895        0.2289210844        1.3822414163
Se            0.0208012895        0.6867632532        1.9104816658
Sn            0.6082376581        0.2289210844        1.9775182676



     Writing output data file ./tmp/SnSe_monolayer.save/
     NEW-OLD atomic charge density approx. for the potential

     negative rho (up, down):  8.207E-04 0.000E+00

     total cpu time spent up to now is      313.6 secs

     Self-consistent Calculation

     iteration #  1     ecut=    30.00 Ry     beta= 0.70
     Davidson diagonalization with overlap
     ethr =  1.00E-06,  avg # of iterations =  6.1

     negative rho (up, down):  8.215E-04 0.000E+00

     total cpu time spent up to now is      322.9 secs

     total energy              =    -413.79559621 Ry
     estimated scf accuracy    <       0.00017332 Ry

     iteration #  2     ecut=    30.00 Ry     beta= 0.70
     Davidson diagonalization with overlap
     ethr =  4.33E-07,  avg # of iterations =  3.2

     negative rho (up, down):  8.174E-04 0.000E+00

     total cpu time spent up to now is      328.9 secs

     total energy              =    -413.79563144 Ry
     estimated scf accuracy    <       0.00022769 Ry

     iteration #  3     ecut=    30.00 Ry     beta= 0.70
     Davidson diagonalization with overlap
     ethr =  4.33E-07,  avg # of iterations =  2.0

     negative rho (up, down):  8.162E-04 0.000E+00

     total cpu time spent up to now is      333.8 secs

     total energy              =    -413.79567787 Ry
     estimated scf accuracy    <       0.00000084 Ry

     iteration #  4     ecut=    30.00 Ry     beta= 0.70
     Davidson diagonalization with overlap
     ethr =  2.10E-09,  avg # of iterations =  5.4

     negative rho (up, down):  8.170E-04 0.000E+00

     total cpu time spent up to now is      342.1 secs

     total energy              =    -413.79567888 Ry
     estimated scf accuracy    <       0.00000087 Ry

     iteration #  5     ecut=    30.00 Ry     beta= 0.70
     Davidson diagonalization with overlap
     ethr =  2.10E-09,  avg # of iterations =  3.1

     negative rho (up, down):  8.171E-04 0.000E+00

     total cpu time spent up to now is      347.0 secs

     total energy              =    -413.79567908 Ry
     estimated scf accuracy    <       0.00000007 Ry

     iteration #  6     ecut=    30.00 Ry     beta= 0.70
     Davidson diagonalization with overlap
     ethr =  1.79E-10,  avg # of iterations =  2.1

     negative rho (up, down):  8.171E-04 0.000E+00

     total cpu time spent up to now is      351.9 secs

     total energy              =    -413.79567908 Ry
     estimated scf accuracy    <       0.00000001 Ry

     iteration #  7     ecut=    30.00 Ry     beta= 0.70
     Davidson diagonalization with overlap
     ethr =  2.59E-11,  avg # of iterations =  4.1

     negative rho (up, down):  8.172E-04 0.000E+00

     total cpu time spent up to now is      358.4 secs

     total energy              =    -413.79567909 Ry
     estimated scf accuracy    <          1.2E-09 Ry

     iteration #  8     ecut=    30.00 Ry     beta= 0.70
     Davidson diagonalization with overlap
     ethr =  3.08E-12,  avg # of iterations =  3.1

     negative rho (up, down):  8.172E-04 0.000E+00

     total cpu time spent up to now is      363.7 secs

     End of self-consistent calculation

          k = 0.0000 0.0000 0.0000 (  5331 PWs)   bands (ev):

   -21.0313 -21.0231 -21.0200 -21.0167 -21.0003 -20.9834 -20.9736 -20.9662
   -20.9651 -20.9571 -13.1256 -12.0169  -6.3188  -4.6945  -3.4583  -2.8734
    -2.5728  -1.4934  -1.3698  -0.0133

     occupation numbers 
     1.0000   1.0000   1.0000   1.0000   1.0000   1.0000   1.0000   1.0000
     1.0000   1.0000   1.0000   1.0000   1.0000   1.0000   1.0000   1.0000
     1.0000   1.0000   1.0000   1.0000

          k = 0.0000 0.1820 0.0000 (  5316 PWs)   bands (ev):

   -21.0282 -21.0226 -21.0195 -21.0184 -20.9985 -20.9840 -20.9744 -20.9683
   -20.9636 -20.9567 -12.9911 -11.9879  -6.5524  -5.1870  -3.2819  -2.7674
    -2.4595  -1.4806  -1.0415  -0.1820

     occupation numbers 
     1.0000   1.0000   1.0000   1.0000   1.0000   1.0000   1.0000   1.0000
     1.0000   1.0000   1.0000   1.0000   1.0000   1.0000   1.0000   1.0000
     1.0000   1.0000   1.0000   1.0000

          k = 0.0000 0.3640 0.0000 (  5350 PWs)   bands (ev):

   -21.0279 -21.0274 -21.0157 -21.0134 -20.9947 -20.9862 -20.9756 -20.9724
   -20.9599 -20.9559 -12.6369 -11.9981  -6.9278  -6.1405  -2.7962  -2.4591
    -1.9840  -1.4055  -0.6425  -0.4861

     occupation numbers 
     1.0000   1.0000   1.0000   1.0000   1.0000   1.0000   1.0000   1.0000
     1.0000   1.0000   1.0000   1.0000   1.0000   1.0000   1.0000   1.0000
     1.0000   1.0000   1.0000   1.0000

          k = 0.0000-0.5460 0.0000 (  5354 PWs)   bands (ev):

   -21.0298 -21.0298 -21.0114 -21.0114 -20.9902 -20.9902 -20.9752 -20.9752
   -20.9566 -20.9566 -12.2280 -12.2280  -6.8436  -6.8436  -2.2623  -2.2623
    -1.6140  -1.6140  -0.6225  -0.6225

     occupation numbers 
     1.0000   1.0000   1.0000   1.0000   1.0000   1.0000   1.0000   1.0000
     1.0000   1.0000   1.0000   1.0000   1.0000   1.0000   1.0000   1.0000
     1.0000   1.0000   1.0000   1.0000

          k = 0.1667 0.0000 0.0000 (  5327 PWs)   bands (ev):

   -21.0305 -21.0231 -21.0206 -21.0176 -20.9976 -20.9833 -20.9731 -20.9667
   -20.9648 -20.9579 -13.0240 -12.0377  -6.5837  -5.2743  -3.2221  -2.4849
    -2.4181  -1.3064  -0.9452  -0.2798

     occupation numbers 
     1.0000   1.0000   1.0000   1.0000   1.0000   1.0000   1.0000   1.0000
     1.0000   1.0000   1.0000   1.0000   1.0000   1.0000   1.0000   1.0000
     1.0000   1.0000   1.0000   1.0000

          k = 0.1667 0.1820 0.0000 (  5347 PWs)   bands (ev):

   -21.0280 -21.0236 -21.0193 -21.0192 -20.9961 -20.9839 -20.9740 -20.9687
   -20.9633 -20.9573 -12.8944 -12.0035  -6.6556  -5.4936  -3.2663  -3.1130
    -1.8999  -1.6404  -0.5421  -0.3178

     occupation numbers 
     1.0000   1.0000   1.0000   1.0000   1.0000   1.0000   1.0000   1.0000
     1.0000   1.0000   1.0000   1.0000   1.0000   1.0000   1.0000   1.0000
     1.0000   1.0000   1.0000   1.0000

          k = 0.1667 0.3640 0.0000 (  5345 PWs)   bands (ev):

   -21.0295 -21.0289 -21.0153 -21.0131 -20.9929 -20.9860 -20.9753 -20.9725
   -20.9597 -20.9562 -12.5581 -11.9928  -6.8278  -6.1329  -3.3883  -2.7733
    -2.0102  -1.4489  -1.0545  -0.4248

     occupation numbers 
     1.0000   1.0000   1.0000   1.0000   1.0000   1.0000   1.0000   1.0000
     1.0000   1.0000   1.0000   1.0000   1.0000   1.0000   1.0000   1.0000
     1.0000   1.0000   1.0000   1.0000

          k = 0.1667-0.5460 0.0000 (  5372 PWs)   bands (ev):

   -21.0317 -21.0317 -21.0110 -21.0110 -20.9894 -20.9894 -20.9749 -20.9749
   -20.9566 -20.9566 -12.1839 -12.1839  -6.7191  -6.7191  -2.8096  -2.8096
    -1.9470  -1.9470  -0.8912  -0.8912

     occupation numbers 
     1.0000   1.0000   1.0000   1.0000   1.0000   1.0000   1.0000   1.0000
     1.0000   1.0000   1.0000   1.0000   1.0000   1.0000   1.0000   1.0000
     1.0000   1.0000   1.0000   1.0000

          k = 0.3333 0.0000 0.0000 (  5323 PWs)   bands (ev):

   -21.0283 -21.0238 -21.0216 -21.0198 -20.9917 -20.9838 -20.9717 -20.9680
   -20.9638 -20.9598 -12.7516 -12.1492  -6.9180  -6.1885  -2.7361  -2.0016
    -1.8221  -1.2534  -0.7415  -0.0011

     occupation numbers 
     1.0000   1.0000   1.0000   1.0000   1.0000   1.0000   1.0000   1.0000
     1.0000   1.0000   1.0000   1.0000   1.0000   1.0000   1.0000   1.0000
     1.0000   1.0000   1.0000   1.0000

          k = 0.3333 0.1820 0.0000 (  5331 PWs)   bands (ev):

   -21.0275 -21.0257 -21.0203 -21.0193 -20.9908 -20.9841 -20.9729 -20.9698
   -20.9623 -20.9588 -12.6384 -12.0960  -6.8085  -6.1472  -3.2342  -2.6722
    -2.1343  -1.3880  -0.6466  -0.3194

     occupation numbers 
     1.0000   1.0000   1.0000   1.0000   1.0000   1.0000   1.0000   1.0000
     1.0000   1.0000   1.0000   1.0000   1.0000   1.0000   1.0000   1.0000
     1.0000   1.0000   1.0000   1.0000

          k = 0.3333 0.3640 0.0000 (  5352 PWs)   bands (ev):

   -21.0325 -21.0321 -21.0143 -21.0128 -20.9891 -20.9856 -20.9744 -20.9726
   -20.9591 -20.9571 -12.3594 -12.0177  -6.5980  -6.1910  -3.9961  -2.9961
    -2.6559  -1.7149  -1.5893  -0.7627

     occupation numbers 
     1.0000   1.0000   1.0000   1.0000   1.0000   1.0000   1.0000   1.0000
     1.0000   1.0000   1.0000   1.0000   1.0000   1.0000   1.0000   1.0000
     1.0000   1.0000   1.0000   1.0000

          k = 0.3333-0.5460 0.0000 (  5340 PWs)   bands (ev):

   -21.0355 -21.0355 -21.0103 -21.0103 -20.9876 -20.9876 -20.9742 -20.9742
   -20.9568 -20.9568 -12.0922 -12.0922  -6.4188  -6.4188  -3.6722  -3.6722
    -2.5587  -2.5587  -1.3061  -1.3061

     occupation numbers 
     1.0000   1.0000   1.0000   1.0000   1.0000   1.0000   1.0000   1.0000
     1.0000   1.0000   1.0000   1.0000   1.0000   1.0000   1.0000   1.0000
     1.0000   1.0000   1.0000   1.0000

          k =-0.5000 0.0000 0.0000 (  5324 PWs)   bands (ev):

   -21.0257 -21.0257 -21.0215 -21.0215 -20.9863 -20.9863 -20.9699 -20.9699
   -20.9620 -20.9620 -12.4109 -12.4109  -6.8112  -6.8112  -2.0979  -2.0979
    -1.5048  -1.5048  -0.2315  -0.2315

     occupation numbers 
     1.0000   1.0000   1.0000   1.0000   1.0000   1.0000   1.0000   1.0000
     1.0000   1.0000   1.0000   1.0000   1.0000   1.0000   1.0000   1.0000
     1.0000   1.0000   1.0000   1.0000

          k =-0.5000 0.1820 0.0000 (  5300 PWs)   bands (ev):

   -21.0271 -21.0271 -21.0200 -21.0200 -20.9862 -20.9862 -20.9713 -20.9713
   -20.9607 -20.9607 -12.3263 -12.3263  -6.6722  -6.6722  -2.7226  -2.7226
    -1.9635  -1.9635  -0.5112  -0.5112

     occupation numbers 
     1.0000   1.0000   1.0000   1.0000   1.0000   1.0000   1.0000   1.0000
     1.0000   1.0000   1.0000   1.0000   1.0000   1.0000   1.0000   1.0000
     1.0000   1.0000   1.0000   1.0000

          k =-0.5000 0.3640 0.0000 (  5330 PWs)   bands (ev):

   -21.0339 -21.0339 -21.0133 -21.0133 -20.9863 -20.9863 -20.9732 -20.9732
   -20.9582 -20.9582 -12.1437 -12.1437  -6.3704  -6.3704  -3.7822  -3.7822
    -2.3598  -2.3598  -1.3137  -1.3137

     occupation numbers 
     1.0000   1.0000   1.0000   1.0000   1.0000   1.0000   1.0000   1.0000
[...]
     atom    3 type  2   force =    -1.21602050    0.00000000  -14.48830194
     atom    4 type  1   force =     1.04531316    0.00000000  -32.08907859
     The core correction contribution to forces
     atom    1 type  1   force =    -0.00361738   -0.00000000   -0.00776359
     atom    2 type  2   force =     0.00872100   -0.00000000   -0.02211236
     atom    3 type  2   force =     0.00872100    0.00000000    0.02211236
     atom    4 type  1   force =    -0.00361738    0.00000000    0.00776359
     The Hubbard contrib.    to forces
     atom    1 type  1   force =     0.00000000    0.00000000    0.00000000
     atom    2 type  2   force =     0.00000000    0.00000000    0.00000000
     atom    3 type  2   force =     0.00000000    0.00000000    0.00000000
     atom    4 type  1   force =     0.00000000    0.00000000    0.00000000
     The SCF correction term to forces
     atom    1 type  1   force =    -0.00000134    0.00000000    0.00002998
     atom    2 type  2   force =    -0.00000035    0.00000000    0.00000922
     atom    3 type  2   force =    -0.00000035    0.00000000   -0.00000922
     atom    4 type  1   force =    -0.00000134    0.00000000   -0.00002998

     Total force =     0.002091     Total SCF correction =     0.000044
     Energy error            =      2.2E-05
     Gradient error          =      1.2E-03

     number of scf cycles    =  17
     number of bfgs steps    =  16

     energy   old            =    -413.7975962657 Ry
     energy   new            =    -413.7976180974 Ry

     CASE: energy  _new < energy  _old

     new trust radius        =       0.0097695257 bohr
     new conv_thr            =            1.0E-10 Ry


ATOMIC_POSITIONS (alat)
Sn            0.0995058619        0.6867632532        1.3411356407
Se            0.5295330857        0.2289210844        1.3553377253
Se            0.0295330857        0.6867632532        1.9373853568
Sn            0.5995058619        0.2289210844        1.9515874413



     Writing output data file ./tmp/SnSe_monolayer.save/
     NEW-OLD atomic charge density approx. for the potential

     negative rho (up, down):  8.495E-04 0.000E+00

     total cpu time spent up to now is     1046.0 secs

     Self-consistent Calculation

     iteration #  1     ecut=    30.00 Ry     beta= 0.70
     Davidson diagonalization with overlap
     ethr =  1.00E-06,  avg # of iterations =  4.0

     Threshold (ethr) on eigenvalues was too large:
     Diagonalizing with lowered threshold

     Davidson diagonalization with overlap
     ethr =  3.28E-08,  avg # of iterations =  3.6

     negative rho (up, down):  8.515E-04 0.000E+00

     total cpu time spent up to now is     1055.8 secs

     total energy              =    -413.79762082 Ry
     estimated scf accuracy    <       0.00002031 Ry

     iteration #  2     ecut=    30.00 Ry     beta= 0.70
     Davidson diagonalization with overlap
     ethr =  5.08E-08,  avg # of iterations =  3.0

     negative rho (up, down):  8.506E-04 0.000E+00

     total cpu time spent up to now is     1061.6 secs

     total energy              =    -413.79762518 Ry
     estimated scf accuracy    <       0.00002828 Ry

     iteration #  3     ecut=    30.00 Ry     beta= 0.70
     Davidson diagonalization with overlap
     ethr =  5.08E-08,  avg # of iterations =  2.0

     negative rho (up, down):  8.501E-04 0.000E+00

     total cpu time spent up to now is     1067.2 secs

     total energy              =    -413.79763059 Ry
     estimated scf accuracy    <       0.00000006 Ry

     iteration #  4     ecut=    30.00 Ry     beta= 0.70
     Davidson diagonalization with overlap
     ethr =  1.49E-10,  avg # of iterations =  5.4

     negative rho (up, down):  8.502E-04 0.000E+00

     total cpu time spent up to now is     1074.4 secs

     total energy              =    -413.79763065 Ry
     estimated scf accuracy    <       0.00000006 Ry

     iteration #  5     ecut=    30.00 Ry     beta= 0.70
     Davidson diagonalization with overlap
     ethr =  1.49E-10,  avg # of iterations =  2.0

     negative rho (up, down):  8.503E-04 0.000E+00

     total cpu time spent up to now is     1078.5 secs

     total energy              =    -413.79763066 Ry
     estimated scf accuracy    <          3.0E-09 Ry

     iteration #  6     ecut=    30.00 Ry     beta= 0.70
     Davidson diagonalization with overlap
     ethr =  7.44E-12,  avg # of iterations =  3.5

     negative rho (up, down):  8.503E-04 0.000E+00

     total cpu time spent up to now is     1085.1 secs

     total energy              =    -413.79763066 Ry
     estimated scf accuracy    <          1.6E-09 Ry

     iteration #  7     ecut=    30.00 Ry     beta= 0.70
     Davidson diagonalization with overlap
     ethr =  3.89E-12,  avg # of iterations =  2.1

     negative rho (up, down):  8.503E-04 0.000E+00

     total cpu time spent up to now is     1090.5 secs

     End of self-consistent calculation

          k = 0.0000 0.0000 0.0000 (  5331 PWs)   bands (ev):

   -21.0748 -21.0638 -21.0617 -21.0564 -21.0507 -21.0302 -21.0267 -21.0204
   -21.0172 -21.0080 -13.1144 -12.1138  -6.1348  -5.0439  -3.3045  -3.0115
    -2.5500  -1.7260  -1.4319  -0.3683

     occupation numbers 
     1.0000   1.0000   1.0000   1.0000   1.0000   1.0000   1.0000   1.0000
     1.0000   1.0000   1.0000   1.0000   1.0000   1.0000   1.0000   1.0000
     1.0000   1.0000   1.0000   1.0000

          k = 0.0000 0.1820 0.0000 (  5316 PWs)   bands (ev):

   -21.0711 -21.0641 -21.0603 -21.0587 -21.0485 -21.0310 -21.0273 -21.0192
   -21.0187 -21.0080 -12.9857 -12.0821  -6.4059  -5.4381  -3.2068  -2.8582
    -2.4377  -1.6830  -1.0684  -0.4540

     occupation numbers 
     1.0000   1.0000   1.0000   1.0000   1.0000   1.0000   1.0000   1.0000
     1.0000   1.0000   1.0000   1.0000   1.0000   1.0000   1.0000   1.0000
     1.0000   1.0000   1.0000   1.0000

          k = 0.0000 0.3640 0.0000 (  5350 PWs)   bands (ev):

   -21.0689 -21.0688 -21.0575 -21.0543 -21.0440 -21.0339 -21.0277 -21.0233
   -21.0147 -21.0084 -12.6503 -12.0769  -6.8581  -6.2648  -2.7960  -2.4341
    -2.0354  -1.5373  -0.7252  -0.3748

     occupation numbers 
     1.0000   1.0000   1.0000   1.0000   1.0000   1.0000   1.0000   1.0000
     1.0000   1.0000   1.0000   1.0000   1.0000   1.0000   1.0000   1.0000
     1.0000   1.0000   1.0000   1.0000

          k = 0.0000-0.5460 0.0000 (  5354 PWs)   bands (ev):

   -21.0708 -21.0708 -21.0528 -21.0528 -21.0386 -21.0386 -21.0264 -21.0264
   -21.0105 -21.0105 -12.2736 -12.2736  -6.8654  -6.8654  -2.2408  -2.2408
    -1.7365  -1.7365  -0.4340  -0.4340

     occupation numbers 
     1.0000   1.0000   1.0000   1.0000   1.0000   1.0000   1.0000   1.0000
     1.0000   1.0000   1.0000   1.0000   1.0000   1.0000   1.0000   1.0000
     1.0000   1.0000   1.0000   1.0000

          k = 0.1667 0.0000 0.0000 (  5327 PWs)   bands (ev):

   -21.0738 -21.0639 -21.0623 -21.0577 -21.0477 -21.0302 -21.0259 -21.0199
   -21.0178 -21.0092 -13.0148 -12.1227  -6.4874  -5.5389  -3.1947  -2.5413
    -2.3882  -1.3486  -1.1009  -0.5221

     occupation numbers 
     1.0000   1.0000   1.0000   1.0000   1.0000   1.0000   1.0000   1.0000
     1.0000   1.0000   1.0000   1.0000   1.0000   1.0000   1.0000   1.0000
     1.0000   1.0000   1.0000   1.0000

          k = 0.1667 0.1820 0.0000 (  5347 PWs)   bands (ev):

   -21.0707 -21.0653 -21.0602 -21.0599 -21.0456 -21.0310 -21.0269 -21.0198
   -21.0181 -21.0088 -12.8907 -12.0866  -6.5579  -5.7161  -3.3208  -3.0817
    -2.0363  -1.6576  -0.5172  -0.4507

     occupation numbers 
     1.0000   1.0000   1.0000   1.0000   1.0000   1.0000   1.0000   1.0000
     1.0000   1.0000   1.0000   1.0000   1.0000   1.0000   1.0000   1.0000
     1.0000   1.0000   1.0000   1.0000

          k = 0.1667 0.3640 0.0000 (  5345 PWs)   bands (ev):

   -21.0708 -21.0705 -21.0571 -21.0541 -21.0417 -21.0337 -21.0276 -21.0235
   -21.0141 -21.0087 -12.5719 -12.0639  -6.7607  -6.2479  -3.4413  -2.7683
    -2.1723  -1.5742  -0.9725  -0.3509

     occupation numbers 
     1.0000   1.0000   1.0000   1.0000   1.0000   1.0000   1.0000   1.0000
     1.0000   1.0000   1.0000   1.0000   1.0000   1.0000   1.0000   1.0000
     1.0000   1.0000   1.0000   1.0000

          k = 0.1667-0.5460 0.0000 (  5372 PWs)   bands (ev):

   -21.0731 -21.0731 -21.0525 -21.0525 -21.0376 -21.0376 -21.0263 -21.0263
   -21.0103 -21.0103 -12.2270 -12.2270  -6.7301  -6.7301  -2.8233  -2.8233
    -2.0831  -2.0831  -0.8726  -0.8726

     occupation numbers 
     1.0000   1.0000   1.0000   1.0000   1.0000   1.0000   1.0000   1.0000
     1.0000   1.0000   1.0000   1.0000   1.0000   1.0000   1.0000   1.0000
     1.0000   1.0000   1.0000   1.0000

          k = 0.3333 0.0000 0.0000 (  5323 PWs)   bands (ev):

   -21.0709 -21.0650 -21.0633 -21.0606 -21.0408 -21.0310 -21.0240 -21.0193
   -21.0182 -21.0120 -12.7505 -12.2024  -6.9490  -6.3834  -2.7939  -1.9536
    -1.8690  -1.2388  -0.7298   0.0158

     occupation numbers 
     1.0000   1.0000   1.0000   1.0000   1.0000   1.0000   1.0000   1.0000
     1.0000   1.0000   1.0000   1.0000   1.0000   1.0000   1.0000   1.0000
     1.0000   1.0000   1.0000   1.0000

          k = 0.3333 0.1820 0.0000 (  5331 PWs)   bands (ev):

   -21.0697 -21.0675 -21.0616 -21.0605 -21.0395 -21.0316 -21.0255 -21.0212
   -21.0162 -21.0109 -12.6418 -12.1498  -6.8191  -6.3200  -3.2366  -2.7085
    -2.1688  -1.5484  -0.6235  -0.1788

     occupation numbers 
     1.0000   1.0000   1.0000   1.0000   1.0000   1.0000   1.0000   1.0000
     1.0000   1.0000   1.0000   1.0000   1.0000   1.0000   1.0000   1.0000
     1.0000   1.0000   1.0000   1.0000

          k = 0.3333 0.3640 0.0000 (  5352 PWs)   bands (ev):

   -21.0744 -21.0741 -21.0561 -21.0541 -21.0374 -21.0335 -21.0266 -21.0239
   -21.0127 -21.0096 -12.3769 -12.0690  -6.5567  -6.2748  -4.0798  -3.0235
    -2.7550  -1.8714  -1.6615  -0.8100

     occupation numbers 
     1.0000   1.0000   1.0000   1.0000   1.0000   1.0000   1.0000   1.0000
     1.0000   1.0000   1.0000   1.0000   1.0000   1.0000   1.0000   1.0000
     1.0000   1.0000   1.0000   1.0000

          k = 0.3333-0.5460 0.0000 (  5340 PWs)   bands (ev):

   -21.0774 -21.0774 -21.0520 -21.0520 -21.0357 -21.0357 -21.0256 -21.0256
   -21.0100 -21.0100 -12.1298 -12.1298  -6.3917  -6.3917  -3.7920  -3.7920
    -2.6575  -2.6575  -1.4133  -1.4133

     occupation numbers 
     1.0000   1.0000   1.0000   1.0000   1.0000   1.0000   1.0000   1.0000
     1.0000   1.0000   1.0000   1.0000   1.0000   1.0000   1.0000   1.0000
     1.0000   1.0000   1.0000   1.0000

          k =-0.5000 0.0000 0.0000 (  5324 PWs)   bands (ev):

   -21.0675 -21.0675 -21.0629 -21.0629 -21.0344 -21.0344 -21.0215 -21.0215
   -21.0153 -21.0153 -12.4299 -12.4299  -6.9390  -6.9390  -2.1977  -2.1977
    -1.4478  -1.4478  -0.0041  -0.0041

     occupation numbers 
     1.0000   1.0000   1.0000   1.0000   1.0000   1.0000   1.0000   1.0000
     1.0000   1.0000   1.0000   1.0000   1.0000   1.0000   1.0000   1.0000
     1.0000   1.0000   1.0000   1.0000

          k =-0.5000 0.1820 0.0000 (  5300 PWs)   bands (ev):

   -21.0690 -21.0690 -21.0615 -21.0615 -21.0342 -21.0342 -21.0233 -21.0233
   -21.0136 -21.0136 -12.3485 -12.3485  -6.7797  -6.7797  -2.6748  -2.6748
    -2.0937  -2.0937  -0.4965  -0.4965

     occupation numbers 
     1.0000   1.0000   1.0000   1.0000   1.0000   1.0000   1.0000   1.0000
     1.0000   1.0000   1.0000   1.0000   1.0000   1.0000   1.0000   1.0000
     1.0000   1.0000   1.0000   1.0000

          k =-0.5000 0.3640 0.0000 (  5330 PWs)   bands (ev):

   -21.0759 -21.0759 -21.0549 -21.0549 -21.0345 -21.0345 -21.0249 -21.0249
   -21.0110 -21.0110 -12.1736 -12.1736  -6.3957  -6.3957  -3.8338  -3.8338
    -2.4983  -2.4983  -1.4057  -1.4057

     occupation numbers 
     1.0000   1.0000   1.0000   1.0000   1.0000   1.0000   1.0000   1.0000
     1.0000   1.0000   1.0000   1.0000   1.0000   1.0000   1.0000   1.0000
     1.0000   1.0000   1.0000   1.0000

          k =-0.5000-0.5460 0.0000 (  5292 PWs)   bands (ev):

   -21.0795 -21.0795 -21.0519 -21.0519 -21.0348 -21.0348 -21.0251 -21.0251
   -21.0098 -21.0098 -12.0790 -12.0790  -6.1610  -6.1610  -4.1944  -4.1944
    -3.0899  -3.0899  -1.4519  -1.4519

     occupation numbers 
     1.0000   1.0000   1.0000   1.0000   1.0000   1.0000   1.0000   1.0000
     1.0000   1.0000   1.0000   1.0000   1.0000   1.0000   1.0000   1.0000
     1.0000   1.0000   1.0000   1.0000

     highest occupied level (ev):     0.0158

!    total energy              =    -413.79763066 Ry
     estimated scf accuracy    <          1.7E-11 Ry

     The total energy is the sum of the following terms:
     one-electron contribution =    -749.39069407 Ry
     hartree contribution      =     388.52376346 Ry
     xc contribution           =    -154.41361559 Ry
     ewald contribution        =     101.48291555 Ry

     convergence has been achieved in   7 iterations

     negative rho (up, down):  8.503E-04 0.000E+00

     Forces acting on atoms (cartesian axes, Ry/au):

     atom    1 type  1   force =    -0.00005708    0.00000000    0.00025789
     atom    2 type  2   force =     0.00005708    0.00000000    0.00027939
     atom    3 type  2   force =     0.00005708    0.00000000   -0.00027939
     atom    4 type  1   force =    -0.00005708    0.00000000   -0.00025789
     The non-local contrib.  to forces
     atom    1 type  1   force =     0.24378870    0.00000000    0.44355042
     atom    2 type  2   force =    -0.07843210    0.00000000    0.19431474
     atom    3 type  2   force =    -0.07843210    0.00000000   -0.19431474
     atom    4 type  1   force =     0.24378870    0.00000000   -0.44355042
     The ionic contribution  to forces
     atom    1 type  1   force =    -1.27654474    0.00000000  -32.52298551
     atom    2 type  2   force =     1.27654474    0.00000000  -14.72105014
     atom    3 type  2   force =     1.27654474    0.00000000   14.72105015
     atom    4 type  1   force =    -1.27654474    0.00000000   32.52298551
     The local contribution  to forces
     atom    1 type  1   force =     1.03631961    0.00000000   32.08732817
     atom    2 type  2   force =    -1.20669673   -0.00000000   14.54923550
     atom    3 type  2   force =    -1.20669673    0.00000000  -14.54923551
     atom    4 type  1   force =     1.03631961    0.00000000  -32.08732817
     The core correction contribution to forces
     atom    1 type  1   force =    -0.00362358    0.00000000   -0.00765250
     atom    2 type  2   force =     0.00863691    0.00000000   -0.02222596
     atom    3 type  2   force =     0.00863691    0.00000000    0.02222596
     atom    4 type  1   force =    -0.00362358    0.00000000    0.00765250
     The Hubbard contrib.    to forces
     atom    1 type  1   force =     0.00000000    0.00000000    0.00000000
     atom    2 type  2   force =     0.00000000    0.00000000    0.00000000
     atom    3 type  2   force =     0.00000000    0.00000000    0.00000000
     atom    4 type  1   force =     0.00000000    0.00000000    0.00000000
     The SCF correction term to forces
     atom    1 type  1   force =    -0.00000150   -0.00000000    0.00001730
     atom    2 type  2   force =    -0.00000016   -0.00000000    0.00000525
     atom    3 type  2   force =    -0.00000016   -0.00000000   -0.00000525
     atom    4 type  1   force =    -0.00000150    0.00000000   -0.00001730

     Total force =     0.000550     Total SCF correction =     0.000026
     Energy error            =      1.3E-05
     Gradient error          =      2.8E-04

     bfgs converged in  18 scf cycles and  17 bfgs steps
     (criteria: energy <  1.0E-04 Ry, force <  1.0E-03 Ry/Bohr)

     End of BFGS Geometry Optimization

     Final energy   =    -413.7976306649 Ry

     File ./tmp/SnSe_monolayer.bfgs deleted, as requested
Begin final coordinates

ATOMIC_POSITIONS (alat)
Sn            0.0995058619        0.6867632532        1.3411356407
Se            0.5295330857        0.2289210844        1.3553377253
Se            0.0295330857        0.6867632532        1.9373853568
Sn            0.5995058619        0.2289210844        1.9515874413
End final coordinates



     Writing output data file ./tmp/SnSe_monolayer.save/

     init_run     :      2.47s CPU      3.18s WALL (       1 calls)
     electrons    :    919.03s CPU    995.56s WALL (      18 calls)
     update_pot   :     15.45s CPU     15.52s WALL (      17 calls)
     forces       :     55.73s CPU     60.90s WALL (      18 calls)

     Called by init_run:
     wfcinit      :      1.25s CPU      1.78s WALL (       1 calls)
     wfcinit:atom :      0.01s CPU      0.01s WALL (      16 calls)
     wfcinit:wfcr :      1.21s CPU      1.74s WALL (      16 calls)
     potinit      :      0.26s CPU      0.27s WALL (       1 calls)
     hinit0       :      0.49s CPU      0.50s WALL (       1 calls)

     Called by electrons:
     c_bands      :    711.88s CPU    733.75s WALL (     151 calls)
     sum_band     :     97.40s CPU    107.18s WALL (     151 calls)
     v_of_rho     :      8.23s CPU      9.38s WALL (     160 calls)
     v_h          :      0.51s CPU      0.55s WALL (     160 calls)
     v_xc         :      8.93s CPU     10.13s WALL (     178 calls)
     newd         :    114.22s CPU    161.37s WALL (     160 calls)
     mix_rho      :      1.08s CPU      1.14s WALL (     151 calls)

     Called by c_bands:
     init_us_2    :      3.74s CPU      3.57s WALL (    5136 calls)
     cegterg      :    690.73s CPU    715.19s WALL (    2416 calls)

     Called by sum_band:
     sum_band:wei :      0.00s CPU      0.00s WALL (     151 calls)
     sum_band:loo :     36.45s CPU     37.29s WALL (     151 calls)
     sum_band:buf :      0.24s CPU      0.25s WALL (    2416 calls)
     sum_band:ini :      1.73s CPU      1.68s WALL (    2416 calls)
     sum_band:cal :     17.78s CPU     18.82s WALL (    2416 calls)
     sum_band:bec :      0.07s CPU      0.07s WALL (    2416 calls)
     addusdens    :     56.75s CPU     65.61s WALL (     151 calls)
     addusd:skk   :      0.10s CPU      0.21s WALL (     302 calls)
     addusd:dgemm :     19.78s CPU     24.30s WALL (     302 calls)
     addusd:qvan2 :     33.32s CPU     30.25s WALL (     302 calls)

     Called by *egterg:
     cdiaghg      :     29.30s CPU     27.42s WALL (   11034 calls)
     cegterg:over :    204.48s CPU    221.35s WALL (    9034 calls)
     cegterg:upda :     70.31s CPU     78.07s WALL (    9034 calls)
     cegterg:last :     81.24s CPU     85.45s WALL (    6514 calls)
     cdiaghg:chol :      2.44s CPU      2.46s WALL (   11034 calls)
     cdiaghg:inve :      0.62s CPU      0.64s WALL (   11034 calls)
     cdiaghg:para :      2.94s CPU      3.13s WALL (   22068 calls)
     h_psi        :    197.77s CPU    197.01s WALL (   11466 calls)
     s_psi        :     22.18s CPU     19.60s WALL (   11466 calls)
     g_psi        :      1.09s CPU      1.07s WALL (    9034 calls)

     Called by h_psi:
     h_psi:calbec :     71.73s CPU     75.04s WALL (   11466 calls)
     vloc_psi     :    104.65s CPU    105.08s WALL (   11466 calls)
     add_vuspsi   :     20.75s CPU     16.28s WALL (   11466 calls)

     General routines
     calbec       :     99.66s CPU    104.21s WALL (   15034 calls)
     fft          :      6.45s CPU      7.23s WALL (    2268 calls)
     ffts         :      0.16s CPU      0.17s WALL (     311 calls)
     fftw         :    106.92s CPU    107.05s WALL (  357702 calls)
     interpolate  :      0.50s CPU      0.55s WALL (     160 calls)

     Parallel routines
     fft_scatt_xy :     13.36s CPU     13.49s WALL (  360281 calls)
     fft_scatt_yz :     55.29s CPU     55.65s WALL (  360281 calls)

     PWSCF        :  16m46.76s CPU  18m12.89s WALL


   This run was terminated on:  19:40:28  24May2026            

=------------------------------------------------------------------------------=
   JOB DONE.
=------------------------------------------------------------------------------=
