
     Program PWSCF v.6.7MaX starts on 21May2026 at 19: 6: 4 

     This program is part of the open-source Quantum ESPRESSO suite
     for quantum simulation of materials; please cite
         "P. Giannozzi et al., J. Phys.:Condens. Matter 21 395502 (2009);
         "P. Giannozzi et al., J. Phys.:Condens. Matter 29 465901 (2017);
          URL http://www.quantum-espresso.org", 
     in publications or presentations arising from this work. More details at
     http://www.quantum-espresso.org/quote

     Parallel version (MPI), running on     6 processors

     MPI processes distributed on     1 nodes
     K-points division:     npool     =       3
     R & G space division:  proc/nbgrp/npool/nimage =       2
     Waiting for input...
     Reading input from standard input

     Current dimensions of program PWSCF are:
     Max number of different atomic species (ntypx) = 10
     Max number of k-points (npk) =  40000
     Max angular momentum in pseudopotentials (lmaxx) =  3

     Atomic positions and unit cell read from directory:
     ./tmp/SnSe_pnma.save/
     Atomic positions from file used, from input discarded


     --------------------------------------------
     Parameters for DFT-D3 Dispersion Correction:
     --------------------------------------------
       Reference C6 values for interpolation: 

         atom   Coordination number   C6
         Se         0.000           427.35
         Se         0.990           427.57
         Se         1.981           421.05
         Sn         0.000          1255.14
         Sn         0.951          1084.09
         Sn         1.950          1010.83
         Sn         2.926           818.29
         Sn         3.912           672.20

       Values used:

         atom   Coordination number  R0_AB[au]  C6      C8
         Se         3.412            3.332    421.05  29958.36
         Sn         4.106            3.957    672.80  84444.47
         Se         3.412            3.332    421.05  29958.36
         Sn         4.106            3.957    672.80  84444.47
         Se         3.412            3.332    421.05  29958.36
         Sn         4.106            3.957    672.80  84444.47
         Se         3.412            3.332    421.05  29958.36
         Sn         4.106            3.957    672.80  84444.47

         Molecular C6 ( Ry / a.u.^6 ) =     34513.28


     Subspace diagonalization in iterative solution of the eigenvalue problem:
     a serial algorithm will be used


     Parallelization info
     --------------------
     sticks:   dense  smooth     PW     G-vecs:    dense   smooth      PW
     Min        2051     819    241                65006    16416    2567
     Max        2052     820    242                65007    16417    2568
     Sum        4103    1639    483               130013    32833    5135



     bravais-lattice index     =            8
     lattice parameter (alat)  =      21.8252  a.u.
     unit-cell volume          =    1481.0643 (a.u.)^3
     number of atoms/cell      =            8
     number of atomic types    =            2
     number of electrons       =        80.00
     number of Kohn-Sham states=           50
     kinetic-energy cutoff     =      30.0000  Ry
     charge density cutoff     =     300.0000  Ry
     Exchange-correlation= SLA  PW   PBE  PBE
                           (   1   4   3   4   0   0   0)

     celldm(1)=  21.825203  celldm(2)=   0.361179  celldm(3)=   0.394436
     celldm(4)=   0.000000  celldm(5)=   0.000000  celldm(6)=   0.000000

     crystal axes: (cart. coord. in units of alat)
               a(1) = (   1.000000   0.000000   0.000000 )  
               a(2) = (   0.000000   0.361179   0.000000 )  
               a(3) = (   0.000000   0.000000   0.394436 )  

     reciprocal axes: (cart. coord. in units 2 pi/alat)
               b(1) = (  1.000000  0.000000  0.000000 )  
               b(2) = (  0.000000  2.768711  0.000000 )  
               b(3) = (  0.000000  0.000000  2.535265 )  


     PseudoPot. # 1 for Sn read from file:
     ../pseudo/Sn_pbe_v1.uspp.F.UPF
     MD5 check sum: 4cf58ce39ec5d5d420df3dd08604eb00
     Pseudo is Ultrasoft + core correction, Zval = 14.0
     Generated by new atomic code, or converted to UPF format
     Using radial grid of  891 points,  6 beta functions with: 
                l(1) =   0
                l(2) =   0
                l(3) =   1
                l(4) =   1
                l(5) =   2
                l(6) =   2
     Q(r) pseudized with  6 coefficients,  rinner =    1.200   1.200   1.200
                                                       1.200   1.200

     PseudoPot. # 2 for Se read from file:
     ../pseudo/Se_pbe_v1.uspp.F.UPF
     MD5 check sum: 1b3568f3a8ae88f9a2a0ad0698632c85
     Pseudo is Ultrasoft + core correction, Zval =  6.0
     Generated by new atomic code, or converted to UPF format
     Using radial grid of  877 points,  6 beta functions with: 
                l(1) =   0
                l(2) =   0
                l(3) =   1
                l(4) =   1
                l(5) =   2
                l(6) =   2
     Q(r) pseudized with  8 coefficients,  rinner =    1.300   1.300   1.300
                                                       1.300   1.300

     atomic species   valence    mass     pseudopotential
        Sn            14.00   118.71000     Sn( 1.00)
        Se             6.00    78.97100     Se( 1.00)

      8 Sym. Ops., with inversion, found ( 6 have fractional translation)


                                    s                        frac. trans.

      isym =  1     identity                                     

 cryst.   s( 1) = (     1          0          0      )
                  (     0          1          0      )
                  (     0          0          1      )

 cart.    s( 1) = (  1.0000000  0.0000000  0.0000000 )
                  (  0.0000000  1.0000000  0.0000000 )
                  (  0.0000000  0.0000000  1.0000000 )


      isym =  2     180 deg rotation - cart. axis [0,0,1]        

 cryst.   s( 2) = (    -1          0          0      )    f =(  0.5000000 )
                  (     0         -1          0      )       (  0.0000000 )
                  (     0          0          1      )       ( -0.5000000 )

 cart.    s( 2) = ( -1.0000000  0.0000000  0.0000000 )    f =(  0.5000000 )
                  (  0.0000000 -1.0000000  0.0000000 )       (  0.0000000 )
                  (  0.0000000  0.0000000  1.0000000 )       ( -0.1972180 )


      isym =  3     180 deg rotation - cart. axis [0,1,0]        

 cryst.   s( 3) = (    -1          0          0      )    f =( -0.0000000 )
                  (     0          1          0      )       (  0.5000000 )
                  (     0          0         -1      )       (  0.0000000 )

 cart.    s( 3) = ( -1.0000000  0.0000000  0.0000000 )    f =( -0.0000000 )
                  (  0.0000000  1.0000000  0.0000000 )       (  0.1805895 )
                  (  0.0000000  0.0000000 -1.0000000 )       (  0.0000000 )


      isym =  4     180 deg rotation - cart. axis [1,0,0]        

 cryst.   s( 4) = (     1          0          0      )    f =(  0.5000000 )
                  (     0         -1          0      )       (  0.5000000 )
                  (     0          0         -1      )       (  0.5000000 )

 cart.    s( 4) = (  1.0000000  0.0000000  0.0000000 )    f =(  0.5000000 )
                  (  0.0000000 -1.0000000  0.0000000 )       (  0.1805895 )
                  (  0.0000000  0.0000000 -1.0000000 )       (  0.1972180 )


      isym =  5     inversion                                    

 cryst.   s( 5) = (    -1          0          0      )
                  (     0         -1          0      )
                  (     0          0         -1      )

 cart.    s( 5) = ( -1.0000000  0.0000000  0.0000000 )
                  (  0.0000000 -1.0000000  0.0000000 )
                  (  0.0000000  0.0000000 -1.0000000 )


      isym =  6     inv. 180 deg rotation - cart. axis [0,0,1]   

 cryst.   s( 6) = (     1          0          0      )    f =(  0.5000000 )
                  (     0          1          0      )       (  0.0000000 )
                  (     0          0         -1      )       (  0.5000000 )

 cart.    s( 6) = (  1.0000000  0.0000000  0.0000000 )    f =(  0.5000000 )
                  (  0.0000000  1.0000000  0.0000000 )       (  0.0000000 )
                  (  0.0000000  0.0000000 -1.0000000 )       (  0.1972180 )


      isym =  7     inv. 180 deg rotation - cart. axis [0,1,0]   

 cryst.   s( 7) = (     1          0          0      )    f =(  0.0000000 )
                  (     0         -1          0      )       (  0.5000000 )
                  (     0          0          1      )       (  0.0000000 )

 cart.    s( 7) = (  1.0000000  0.0000000  0.0000000 )    f =(  0.0000000 )
                  (  0.0000000 -1.0000000  0.0000000 )       (  0.1805895 )
                  (  0.0000000  0.0000000  1.0000000 )       (  0.0000000 )


      isym =  8     inv. 180 deg rotation - cart. axis [1,0,0]   

 cryst.   s( 8) = (    -1          0          0      )    f =(  0.5000000 )
                  (     0          1          0      )       (  0.5000000 )
                  (     0          0          1      )       ( -0.5000000 )

 cart.    s( 8) = ( -1.0000000  0.0000000  0.0000000 )    f =(  0.5000000 )
                  (  0.0000000  1.0000000  0.0000000 )       (  0.1805895 )
                  (  0.0000000  0.0000000  1.0000000 )       ( -0.1972180 )


     point group D_2h (mmm) 
     there are  8 classes
     the character table:

       E     C2    C2'   C2''  i     s_v   s_v'  s_v''
A_g    1.00  1.00  1.00  1.00  1.00  1.00  1.00  1.00
B_1g   1.00  1.00 -1.00 -1.00  1.00  1.00 -1.00 -1.00
B_2g   1.00 -1.00  1.00 -1.00  1.00 -1.00  1.00 -1.00
B_3g   1.00 -1.00 -1.00  1.00  1.00 -1.00 -1.00  1.00
A_u    1.00  1.00  1.00  1.00 -1.00 -1.00 -1.00 -1.00
B_1u   1.00  1.00 -1.00 -1.00 -1.00 -1.00  1.00  1.00
B_2u   1.00 -1.00  1.00 -1.00 -1.00  1.00 -1.00  1.00
B_3u   1.00 -1.00 -1.00  1.00 -1.00  1.00  1.00 -1.00

     the symmetry operations in each class and the name of the first element:

     E        1
          identity                                               
     C2       2
          180 deg rotation - cart. axis [0,0,1]                  
     C2'      4
          180 deg rotation - cart. axis [1,0,0]                  
     C2''     3
          180 deg rotation - cart. axis [0,1,0]                  
     i        5
          inversion                                              
     s_v      6
          inv. 180 deg rotation - cart. axis [0,0,1]             
     s_v'     8
          inv. 180 deg rotation - cart. axis [1,0,0]             
     s_v''    7
          inv. 180 deg rotation - cart. axis [0,1,0]             

   Cartesian axes

     site n.     atom                  positions (alat units)
         1           Se  tau(   1) = (   0.8549563   0.0902947   0.1906105  )
         2           Sn  tau(   2) = (   0.1165395   0.0902947   0.0442901  )
         3           Se  tau(   3) = (   0.6450437   0.2708842   0.3878285  )
         4           Sn  tau(   4) = (   0.3834605   0.2708842   0.2415081  )
         5           Se  tau(   5) = (   0.3549563   0.0902947   0.0066076  )
         6           Sn  tau(   6) = (   0.6165395   0.0902947   0.1529280  )
         7           Se  tau(   7) = (   0.1450437   0.2708842   0.2038256  )
         8           Sn  tau(   8) = (   0.8834605   0.2708842   0.3501460  )

   Crystallographic axes

     site n.     atom                  positions (cryst. coord.)
         1           Se  tau(   1) = (  0.8549563  0.2500000  0.4832481  )
         2           Sn  tau(   2) = (  0.1165395  0.2500000  0.1122870  )
         3           Se  tau(   3) = (  0.6450437  0.7500000  0.9832481  )
         4           Sn  tau(   4) = (  0.3834605  0.7500000  0.6122870  )
         5           Se  tau(   5) = (  0.3549563  0.2500000  0.0167519  )
         6           Sn  tau(   6) = (  0.6165395  0.2500000  0.3877130  )
         7           Se  tau(   7) = (  0.1450437  0.7500000  0.5167519  )
         8           Sn  tau(   8) = (  0.8834605  0.7500000  0.8877130  )

     number of k points=   121
                       cart. coord. in units 2pi/alat
        k(    1) = (   0.0000000   0.0000000   0.0000000), wk =   0.0165289
        k(    2) = (   0.0166667   0.0000000   0.0000000), wk =   0.0165289
        k(    3) = (   0.0333333   0.0000000   0.0000000), wk =   0.0165289
        k(    4) = (   0.0500000   0.0000000   0.0000000), wk =   0.0165289
        k(    5) = (   0.0666667   0.0000000   0.0000000), wk =   0.0165289
        k(    6) = (   0.0833333   0.0000000   0.0000000), wk =   0.0165289
        k(    7) = (   0.1000000   0.0000000   0.0000000), wk =   0.0165289
        k(    8) = (   0.1166667   0.0000000   0.0000000), wk =   0.0165289
        k(    9) = (   0.1333333   0.0000000   0.0000000), wk =   0.0165289
        k(   10) = (   0.1500000   0.0000000   0.0000000), wk =   0.0165289
        k(   11) = (   0.1666667   0.0000000   0.0000000), wk =   0.0165289
        k(   12) = (   0.1833333   0.0000000   0.0000000), wk =   0.0165289
        k(   13) = (   0.2000000   0.0000000   0.0000000), wk =   0.0165289
        k(   14) = (   0.2166667   0.0000000   0.0000000), wk =   0.0165289
        k(   15) = (   0.2333333   0.0000000   0.0000000), wk =   0.0165289
        k(   16) = (   0.2500000   0.0000000   0.0000000), wk =   0.0165289
        k(   17) = (   0.2666667   0.0000000   0.0000000), wk =   0.0165289
        k(   18) = (   0.2833333   0.0000000   0.0000000), wk =   0.0165289
        k(   19) = (   0.3000000   0.0000000   0.0000000), wk =   0.0165289
        k(   20) = (   0.3166667   0.0000000   0.0000000), wk =   0.0165289
        k(   21) = (   0.3333333   0.0000000   0.0000000), wk =   0.0165289
        k(   22) = (   0.3500000   0.0000000   0.0000000), wk =   0.0165289
        k(   23) = (   0.3666667   0.0000000   0.0000000), wk =   0.0165289
        k(   24) = (   0.3833333   0.0000000   0.0000000), wk =   0.0165289
        k(   25) = (   0.4000000   0.0000000   0.0000000), wk =   0.0165289
        k(   26) = (   0.4166667   0.0000000   0.0000000), wk =   0.0165289
        k(   27) = (   0.4333333   0.0000000   0.0000000), wk =   0.0165289
        k(   28) = (   0.4500000   0.0000000   0.0000000), wk =   0.0165289
        k(   29) = (   0.4666667   0.0000000   0.0000000), wk =   0.0165289
        k(   30) = (   0.4833333   0.0000000   0.0000000), wk =   0.0165289
        k(   31) = (   0.5000000   0.0000000   0.0000000), wk =   0.0165289
        k(   32) = (   0.5000000   0.0461452   0.0000000), wk =   0.0165289
        k(   33) = (   0.5000000   0.0922904   0.0000000), wk =   0.0165289
        k(   34) = (   0.5000000   0.1384355   0.0000000), wk =   0.0165289
        k(   35) = (   0.5000000   0.1845807   0.0000000), wk =   0.0165289
        k(   36) = (   0.5000000   0.2307259   0.0000000), wk =   0.0165289
        k(   37) = (   0.5000000   0.2768711   0.0000000), wk =   0.0165289
        k(   38) = (   0.5000000   0.3230163   0.0000000), wk =   0.0165289
        k(   39) = (   0.5000000   0.3691614   0.0000000), wk =   0.0165289
        k(   40) = (   0.5000000   0.4153066   0.0000000), wk =   0.0165289
        k(   41) = (   0.5000000   0.4614518   0.0000000), wk =   0.0165289
        k(   42) = (   0.5000000   0.5075970   0.0000000), wk =   0.0165289
        k(   43) = (   0.5000000   0.5537421   0.0000000), wk =   0.0165289
        k(   44) = (   0.5000000   0.5998873   0.0000000), wk =   0.0165289
        k(   45) = (   0.5000000   0.6460325   0.0000000), wk =   0.0165289
        k(   46) = (   0.5000000   0.6921777   0.0000000), wk =   0.0165289
        k(   47) = (   0.5000000   0.7383229   0.0000000), wk =   0.0165289
        k(   48) = (   0.5000000   0.7844680   0.0000000), wk =   0.0165289
        k(   49) = (   0.5000000   0.8306132   0.0000000), wk =   0.0165289
        k(   50) = (   0.5000000   0.8767584   0.0000000), wk =   0.0165289
        k(   51) = (   0.5000000   0.9229036   0.0000000), wk =   0.0165289
        k(   52) = (   0.5000000   0.9690488   0.0000000), wk =   0.0165289
        k(   53) = (   0.5000000   1.0151939   0.0000000), wk =   0.0165289
        k(   54) = (   0.5000000   1.0613391   0.0000000), wk =   0.0165289
        k(   55) = (   0.5000000   1.1074843   0.0000000), wk =   0.0165289
        k(   56) = (   0.5000000   1.1536295   0.0000000), wk =   0.0165289
        k(   57) = (   0.5000000   1.1997747   0.0000000), wk =   0.0165289
        k(   58) = (   0.5000000   1.2459198   0.0000000), wk =   0.0165289
        k(   59) = (   0.5000000   1.2920650   0.0000000), wk =   0.0165289
        k(   60) = (   0.5000000   1.3382102   0.0000000), wk =   0.0165289
        k(   61) = (   0.5000000   1.3843554   0.0000000), wk =   0.0165289
        k(   62) = (   0.4833333   1.3843554   0.0000000), wk =   0.0165289
        k(   63) = (   0.4666667   1.3843554   0.0000000), wk =   0.0165289
        k(   64) = (   0.4500000   1.3843554   0.0000000), wk =   0.0165289
        k(   65) = (   0.4333333   1.3843554   0.0000000), wk =   0.0165289
        k(   66) = (   0.4166667   1.3843554   0.0000000), wk =   0.0165289
        k(   67) = (   0.4000000   1.3843554   0.0000000), wk =   0.0165289
        k(   68) = (   0.3833333   1.3843554   0.0000000), wk =   0.0165289
        k(   69) = (   0.3666667   1.3843554   0.0000000), wk =   0.0165289
        k(   70) = (   0.3500000   1.3843554   0.0000000), wk =   0.0165289
        k(   71) = (   0.3333333   1.3843554   0.0000000), wk =   0.0165289
        k(   72) = (   0.3166667   1.3843554   0.0000000), wk =   0.0165289
        k(   73) = (   0.3000000   1.3843554   0.0000000), wk =   0.0165289
        k(   74) = (   0.2833333   1.3843554   0.0000000), wk =   0.0165289
        k(   75) = (   0.2666667   1.3843554   0.0000000), wk =   0.0165289
        k(   76) = (   0.2500000   1.3843554   0.0000000), wk =   0.0165289
        k(   77) = (   0.2333333   1.3843554   0.0000000), wk =   0.0165289
        k(   78) = (   0.2166667   1.3843554   0.0000000), wk =   0.0165289
        k(   79) = (   0.2000000   1.3843554   0.0000000), wk =   0.0165289
        k(   80) = (   0.1833333   1.3843554   0.0000000), wk =   0.0165289
        k(   81) = (   0.1666667   1.3843554   0.0000000), wk =   0.0165289
        k(   82) = (   0.1500000   1.3843554   0.0000000), wk =   0.0165289
        k(   83) = (   0.1333333   1.3843554   0.0000000), wk =   0.0165289
        k(   84) = (   0.1166667   1.3843554   0.0000000), wk =   0.0165289
        k(   85) = (   0.1000000   1.3843554   0.0000000), wk =   0.0165289
        k(   86) = (   0.0833333   1.3843554   0.0000000), wk =   0.0165289
        k(   87) = (   0.0666667   1.3843554   0.0000000), wk =   0.0165289
        k(   88) = (   0.0500000   1.3843554   0.0000000), wk =   0.0165289
        k(   89) = (   0.0333333   1.3843554   0.0000000), wk =   0.0165289
        k(   90) = (   0.0166667   1.3843554   0.0000000), wk =   0.0165289
        k(   91) = (   0.0000000   1.3843554   0.0000000), wk =   0.0165289
        k(   92) = (   0.0000000   1.3382102   0.0000000), wk =   0.0165289
        k(   93) = (   0.0000000   1.2920650   0.0000000), wk =   0.0165289
        k(   94) = (   0.0000000   1.2459198   0.0000000), wk =   0.0165289
        k(   95) = (   0.0000000   1.1997747   0.0000000), wk =   0.0165289
        k(   96) = (   0.0000000   1.1536295   0.0000000), wk =   0.0165289
        k(   97) = (   0.0000000   1.1074843   0.0000000), wk =   0.0165289
        k(   98) = (   0.0000000   1.0613391   0.0000000), wk =   0.0165289
        k(   99) = (   0.0000000   1.0151939   0.0000000), wk =   0.0165289
        k(  100) = (   0.0000000   0.9690488   0.0000000), wk =   0.0165289
        k(  101) = (   0.0000000   0.9229036   0.0000000), wk =   0.0165289
        k(  102) = (   0.0000000   0.8767584   0.0000000), wk =   0.0165289
        k(  103) = (   0.0000000   0.8306132   0.0000000), wk =   0.0165289
        k(  104) = (   0.0000000   0.7844680   0.0000000), wk =   0.0165289
        k(  105) = (   0.0000000   0.7383229   0.0000000), wk =   0.0165289
        k(  106) = (   0.0000000   0.6921777   0.0000000), wk =   0.0165289
        k(  107) = (   0.0000000   0.6460325   0.0000000), wk =   0.0165289
        k(  108) = (   0.0000000   0.5998873   0.0000000), wk =   0.0165289
        k(  109) = (   0.0000000   0.5537421   0.0000000), wk =   0.0165289
        k(  110) = (   0.0000000   0.5075970   0.0000000), wk =   0.0165289
        k(  111) = (   0.0000000   0.4614518   0.0000000), wk =   0.0165289
        k(  112) = (   0.0000000   0.4153066   0.0000000), wk =   0.0165289
        k(  113) = (   0.0000000   0.3691614   0.0000000), wk =   0.0165289
        k(  114) = (   0.0000000   0.3230163   0.0000000), wk =   0.0165289
        k(  115) = (   0.0000000   0.2768711   0.0000000), wk =   0.0165289
        k(  116) = (   0.0000000   0.2307259   0.0000000), wk =   0.0165289
        k(  117) = (   0.0000000   0.1845807   0.0000000), wk =   0.0165289
        k(  118) = (   0.0000000   0.1384355   0.0000000), wk =   0.0165289
        k(  119) = (   0.0000000   0.0922904   0.0000000), wk =   0.0165289
        k(  120) = (   0.0000000   0.0461452   0.0000000), wk =   0.0165289
        k(  121) = (   0.0000000   0.0000000   0.0000000), wk =   0.0165289

                       cryst. coord.
        k(    1) = (   0.0000000   0.0000000   0.0000000), wk =   0.0165289
        k(    2) = (   0.0166667   0.0000000   0.0000000), wk =   0.0165289
        k(    3) = (   0.0333333   0.0000000   0.0000000), wk =   0.0165289
        k(    4) = (   0.0500000   0.0000000   0.0000000), wk =   0.0165289
        k(    5) = (   0.0666667   0.0000000   0.0000000), wk =   0.0165289
        k(    6) = (   0.0833333   0.0000000   0.0000000), wk =   0.0165289
        k(    7) = (   0.1000000   0.0000000   0.0000000), wk =   0.0165289
        k(    8) = (   0.1166667   0.0000000   0.0000000), wk =   0.0165289
        k(    9) = (   0.1333333   0.0000000   0.0000000), wk =   0.0165289
        k(   10) = (   0.1500000   0.0000000   0.0000000), wk =   0.0165289
        k(   11) = (   0.1666667   0.0000000   0.0000000), wk =   0.0165289
        k(   12) = (   0.1833333   0.0000000   0.0000000), wk =   0.0165289
        k(   13) = (   0.2000000   0.0000000   0.0000000), wk =   0.0165289
        k(   14) = (   0.2166667   0.0000000   0.0000000), wk =   0.0165289
        k(   15) = (   0.2333333   0.0000000   0.0000000), wk =   0.0165289
        k(   16) = (   0.2500000   0.0000000   0.0000000), wk =   0.0165289
        k(   17) = (   0.2666667   0.0000000   0.0000000), wk =   0.0165289
        k(   18) = (   0.2833333   0.0000000   0.0000000), wk =   0.0165289
        k(   19) = (   0.3000000   0.0000000   0.0000000), wk =   0.0165289
        k(   20) = (   0.3166667   0.0000000   0.0000000), wk =   0.0165289
        k(   21) = (   0.3333333   0.0000000   0.0000000), wk =   0.0165289
        k(   22) = (   0.3500000   0.0000000   0.0000000), wk =   0.0165289
        k(   23) = (   0.3666667   0.0000000   0.0000000), wk =   0.0165289
        k(   24) = (   0.3833333   0.0000000   0.0000000), wk =   0.0165289
        k(   25) = (   0.4000000   0.0000000   0.0000000), wk =   0.0165289
        k(   26) = (   0.4166667   0.0000000   0.0000000), wk =   0.0165289
        k(   27) = (   0.4333333   0.0000000   0.0000000), wk =   0.0165289
        k(   28) = (   0.4500000   0.0000000   0.0000000), wk =   0.0165289
        k(   29) = (   0.4666667   0.0000000   0.0000000), wk =   0.0165289
        k(   30) = (   0.4833333   0.0000000   0.0000000), wk =   0.0165289
        k(   31) = (   0.5000000   0.0000000   0.0000000), wk =   0.0165289
        k(   32) = (   0.5000000   0.0166667   0.0000000), wk =   0.0165289
        k(   33) = (   0.5000000   0.0333333   0.0000000), wk =   0.0165289
        k(   34) = (   0.5000000   0.0500000   0.0000000), wk =   0.0165289
        k(   35) = (   0.5000000   0.0666667   0.0000000), wk =   0.0165289
        k(   36) = (   0.5000000   0.0833333   0.0000000), wk =   0.0165289
        k(   37) = (   0.5000000   0.1000000   0.0000000), wk =   0.0165289
        k(   38) = (   0.5000000   0.1166667   0.0000000), wk =   0.0165289
        k(   39) = (   0.5000000   0.1333333   0.0000000), wk =   0.0165289
        k(   40) = (   0.5000000   0.1500000   0.0000000), wk =   0.0165289
        k(   41) = (   0.5000000   0.1666667   0.0000000), wk =   0.0165289
        k(   42) = (   0.5000000   0.1833333   0.0000000), wk =   0.0165289
        k(   43) = (   0.5000000   0.2000000   0.0000000), wk =   0.0165289
        k(   44) = (   0.5000000   0.2166667   0.0000000), wk =   0.0165289
        k(   45) = (   0.5000000   0.2333333   0.0000000), wk =   0.0165289
        k(   46) = (   0.5000000   0.2500000   0.0000000), wk =   0.0165289
        k(   47) = (   0.5000000   0.2666667   0.0000000), wk =   0.0165289
        k(   48) = (   0.5000000   0.2833333   0.0000000), wk =   0.0165289
        k(   49) = (   0.5000000   0.3000000   0.0000000), wk =   0.0165289
        k(   50) = (   0.5000000   0.3166667   0.0000000), wk =   0.0165289
        k(   51) = (   0.5000000   0.3333333   0.0000000), wk =   0.0165289
        k(   52) = (   0.5000000   0.3500000   0.0000000), wk =   0.0165289
        k(   53) = (   0.5000000   0.3666667   0.0000000), wk =   0.0165289
        k(   54) = (   0.5000000   0.3833333   0.0000000), wk =   0.0165289
        k(   55) = (   0.5000000   0.4000000   0.0000000), wk =   0.0165289
        k(   56) = (   0.5000000   0.4166667   0.0000000), wk =   0.0165289
        k(   57) = (   0.5000000   0.4333333   0.0000000), wk =   0.0165289
        k(   58) = (   0.5000000   0.4500000   0.0000000), wk =   0.0165289
        k(   59) = (   0.5000000   0.4666667   0.0000000), wk =   0.0165289
        k(   60) = (   0.5000000   0.4833333   0.0000000), wk =   0.0165289
        k(   61) = (   0.5000000   0.5000000   0.0000000), wk =   0.0165289
        k(   62) = (   0.4833333   0.5000000   0.0000000), wk =   0.0165289
        k(   63) = (   0.4666667   0.5000000   0.0000000), wk =   0.0165289
        k(   64) = (   0.4500000   0.5000000   0.0000000), wk =   0.0165289
        k(   65) = (   0.4333333   0.5000000   0.0000000), wk =   0.0165289
        k(   66) = (   0.4166667   0.5000000   0.0000000), wk =   0.0165289
        k(   67) = (   0.4000000   0.5000000   0.0000000), wk =   0.0165289
        k(   68) = (   0.3833333   0.5000000   0.0000000), wk =   0.0165289
        k(   69) = (   0.3666667   0.5000000   0.0000000), wk =   0.0165289
        k(   70) = (   0.3500000   0.5000000   0.0000000), wk =   0.0165289
        k(   71) = (   0.3333333   0.5000000   0.0000000), wk =   0.0165289
        k(   72) = (   0.3166667   0.5000000   0.0000000), wk =   0.0165289
        k(   73) = (   0.3000000   0.5000000   0.0000000), wk =   0.0165289
        k(   74) = (   0.2833333   0.5000000   0.0000000), wk =   0.0165289
        k(   75) = (   0.2666667   0.5000000   0.0000000), wk =   0.0165289
        k(   76) = (   0.2500000   0.5000000   0.0000000), wk =   0.0165289
        k(   77) = (   0.2333333   0.5000000   0.0000000), wk =   0.0165289
        k(   78) = (   0.2166667   0.5000000   0.0000000), wk =   0.0165289
        k(   79) = (   0.2000000   0.5000000   0.0000000), wk =   0.0165289
        k(   80) = (   0.1833333   0.5000000   0.0000000), wk =   0.0165289
        k(   81) = (   0.1666667   0.5000000   0.0000000), wk =   0.0165289
        k(   82) = (   0.1500000   0.5000000   0.0000000), wk =   0.0165289
        k(   83) = (   0.1333333   0.5000000   0.0000000), wk =   0.0165289
        k(   84) = (   0.1166667   0.5000000   0.0000000), wk =   0.0165289
        k(   85) = (   0.1000000   0.5000000   0.0000000), wk =   0.0165289
        k(   86) = (   0.0833333   0.5000000   0.0000000), wk =   0.0165289
        k(   87) = (   0.0666667   0.5000000   0.0000000), wk =   0.0165289
        k(   88) = (   0.0500000   0.5000000   0.0000000), wk =   0.0165289
        k(   89) = (   0.0333333   0.5000000   0.0000000), wk =   0.0165289
        k(   90) = (   0.0166667   0.5000000   0.0000000), wk =   0.0165289
        k(   91) = (   0.0000000   0.5000000   0.0000000), wk =   0.0165289
        k(   92) = (   0.0000000   0.4833333   0.0000000), wk =   0.0165289
        k(   93) = (   0.0000000   0.4666667   0.0000000), wk =   0.0165289
        k(   94) = (   0.0000000   0.4500000   0.0000000), wk =   0.0165289
        k(   95) = (   0.0000000   0.4333333   0.0000000), wk =   0.0165289
        k(   96) = (   0.0000000   0.4166667   0.0000000), wk =   0.0165289
        k(   97) = (   0.0000000   0.4000000   0.0000000), wk =   0.0165289
        k(   98) = (   0.0000000   0.3833333   0.0000000), wk =   0.0165289
        k(   99) = (   0.0000000   0.3666667   0.0000000), wk =   0.0165289
        k(  100) = (   0.0000000   0.3500000   0.0000000), wk =   0.0165289
        k(  101) = (   0.0000000   0.3333333   0.0000000), wk =   0.0165289
        k(  102) = (   0.0000000   0.3166667   0.0000000), wk =   0.0165289
        k(  103) = (   0.0000000   0.3000000   0.0000000), wk =   0.0165289
        k(  104) = (   0.0000000   0.2833333   0.0000000), wk =   0.0165289
        k(  105) = (   0.0000000   0.2666667   0.0000000), wk =   0.0165289
        k(  106) = (   0.0000000   0.2500000   0.0000000), wk =   0.0165289
        k(  107) = (   0.0000000   0.2333333   0.0000000), wk =   0.0165289
        k(  108) = (   0.0000000   0.2166667   0.0000000), wk =   0.0165289
        k(  109) = (   0.0000000   0.2000000   0.0000000), wk =   0.0165289
        k(  110) = (   0.0000000   0.1833333   0.0000000), wk =   0.0165289
        k(  111) = (   0.0000000   0.1666667   0.0000000), wk =   0.0165289
        k(  112) = (   0.0000000   0.1500000   0.0000000), wk =   0.0165289
        k(  113) = (   0.0000000   0.1333333   0.0000000), wk =   0.0165289
        k(  114) = (   0.0000000   0.1166667   0.0000000), wk =   0.0165289
        k(  115) = (   0.0000000   0.1000000   0.0000000), wk =   0.0165289
        k(  116) = (   0.0000000   0.0833333   0.0000000), wk =   0.0165289
        k(  117) = (   0.0000000   0.0666667   0.0000000), wk =   0.0165289
        k(  118) = (   0.0000000   0.0500000   0.0000000), wk =   0.0165289
        k(  119) = (   0.0000000   0.0333333   0.0000000), wk =   0.0165289
        k(  120) = (   0.0000000   0.0166667   0.0000000), wk =   0.0165289
        k(  121) = (   0.0000000   0.0000000   0.0000000), wk =   0.0165289

     Dense  grid:   130013 G-vectors     FFT dimensions: ( 128,  48,  48)

     Smooth grid:    32833 G-vectors     FFT dimensions: (  80,  30,  32)

     Dynamical RAM for                 wfc:       1.57 MB

     Dynamical RAM for     wfc (w. buffer):       1.57 MB

     Dynamical RAM for           str. fact:       1.98 MB

     Dynamical RAM for           local pot:       0.00 MB

     Dynamical RAM for          nlocal pot:       4.52 MB

     Dynamical RAM for                qrad:       2.78 MB

     Dynamical RAM for          rho,v,vnew:       6.35 MB

     Dynamical RAM for           G-vectors:       3.84 MB

     Dynamical RAM for          h,s,v(r/c):       0.46 MB

     Dynamical RAM for          <psi|beta>:       0.11 MB

     Dynamical RAM for                 psi:       3.14 MB

     Dynamical RAM for                hpsi:       3.14 MB

     Dynamical RAM for                spsi:       3.14 MB

     Dynamical RAM for      wfcinit/wfcrot:       3.32 MB

     Dynamical RAM for           addusdens:      63.48 MB

     Estimated static dynamical RAM per process >      29.65 MB

     Estimated max dynamical RAM per process >      93.13 MB

     Estimated total dynamical RAM >     558.77 MB

     The potential is recalculated from file :
     ./tmp/SnSe_pnma.save/charge-density

     Starting wfcs are   52 randomized atomic wfcs

     Band Structure Calculation
     Davidson diagonalization with overlap

     Computing kpt #:     1  of    41 on this pool
     total cpu time spent up to now is       18.4 secs

     Computing kpt #:     2  of    41 on this pool
     total cpu time spent up to now is       36.0 secs

     Computing kpt #:     3  of    41 on this pool
     total cpu time spent up to now is       51.2 secs

     Computing kpt #:     4  of    41 on this pool
     total cpu time spent up to now is       67.1 secs

     Computing kpt #:     5  of    41 on this pool
     total cpu time spent up to now is       83.3 secs

     Computing kpt #:     6  of    41 on this pool
     total cpu time spent up to now is       99.7 secs

     Computing kpt #:     7  of    41 on this pool
     total cpu time spent up to now is      118.0 secs

     Computing kpt #:     8  of    41 on this pool
     total cpu time spent up to now is      132.7 secs

     Computing kpt #:     9  of    41 on this pool
     total cpu time spent up to now is      148.2 secs

     Computing kpt #:    10  of    41 on this pool
     total cpu time spent up to now is      165.8 secs

     Computing kpt #:    11  of    41 on this pool
     total cpu time spent up to now is      182.1 secs

     Computing kpt #:    12  of    41 on this pool
     total cpu time spent up to now is      206.4 secs

     Computing kpt #:    13  of    41 on this pool
     total cpu time spent up to now is      226.9 secs

     Computing kpt #:    14  of    41 on this pool
     total cpu time spent up to now is      246.0 secs

     Computing kpt #:    15  of    41 on this pool
     total cpu time spent up to now is      263.5 secs

     Computing kpt #:    16  of    41 on this pool
     total cpu time spent up to now is      286.0 secs

     Computing kpt #:    17  of    41 on this pool
     total cpu time spent up to now is      309.5 secs

     Computing kpt #:    18  of    41 on this pool
     total cpu time spent up to now is      328.8 secs

     Computing kpt #:    19  of    41 on this pool
     total cpu time spent up to now is      349.9 secs

     Computing kpt #:    20  of    41 on this pool
     total cpu time spent up to now is      369.3 secs

     Computing kpt #:    21  of    41 on this pool
     total cpu time spent up to now is      392.6 secs

     Computing kpt #:    22  of    41 on this pool
     total cpu time spent up to now is      414.0 secs

     Computing kpt #:    23  of    41 on this pool
     total cpu time spent up to now is      431.4 secs

     Computing kpt #:    24  of    41 on this pool
     total cpu time spent up to now is      449.6 secs

     Computing kpt #:    25  of    41 on this pool
     total cpu time spent up to now is      471.4 secs

     Computing kpt #:    26  of    41 on this pool
     total cpu time spent up to now is      491.1 secs

     Computing kpt #:    27  of    41 on this pool
     total cpu time spent up to now is      510.2 secs

     Computing kpt #:    28  of    41 on this pool
     total cpu time spent up to now is      530.1 secs

     Computing kpt #:    29  of    41 on this pool
     total cpu time spent up to now is      548.2 secs

     Computing kpt #:    30  of    41 on this pool
     total cpu time spent up to now is      564.3 secs

     Computing kpt #:    31  of    41 on this pool
     total cpu time spent up to now is      584.0 secs

     Computing kpt #:    32  of    41 on this pool
     total cpu time spent up to now is      601.9 secs

     Computing kpt #:    33  of    41 on this pool
     total cpu time spent up to now is      621.1 secs

     Computing kpt #:    34  of    41 on this pool
     total cpu time spent up to now is      637.8 secs

     Computing kpt #:    35  of    41 on this pool
     total cpu time spent up to now is      657.3 secs

     Computing kpt #:    36  of    41 on this pool
     total cpu time spent up to now is      673.4 secs

     Computing kpt #:    37  of    41 on this pool
     total cpu time spent up to now is      691.2 secs

     Computing kpt #:    38  of    41 on this pool
     total cpu time spent up to now is      709.8 secs

     Computing kpt #:    39  of    41 on this pool
     total cpu time spent up to now is      730.4 secs

     Computing kpt #:    40  of    41 on this pool
     total cpu time spent up to now is      748.2 secs

     Computing kpt #:    41  of    41 on this pool
     total cpu time spent up to now is      769.3 secs

     ethr =  1.25E-11,  avg # of iterations = 54.5

     total cpu time spent up to now is      769.3 secs

     End of band structure calculation

          k = 0.0000 0.0000 0.0000 (  4129 PWs)   bands (ev):

   -13.7590 -13.7478 -13.7458 -13.7415 -13.7404 -13.7377 -13.7343 -13.7332
   -13.7262 -13.7233 -13.7218 -13.7216 -13.7118 -13.7080 -13.6918 -13.6878
   -13.6844 -13.6815 -13.6747 -13.6681  -6.0326  -5.6990  -5.0731  -4.6158
     0.4122   1.4682   1.9732   2.5890   2.9238   4.3421   4.4184   4.4252
     4.6972   4.9083   5.4427   5.7917   6.1054   6.5556   6.8493   7.1459
     8.3724  10.2511  10.5145  10.5214  10.6921  10.9585  11.4753  12.0273
    12.1233  12.3152

          k = 0.0167 0.0000 0.0000 (  4133 PWs)   bands (ev):

   -13.7590 -13.7478 -13.7458 -13.7415 -13.7404 -13.7377 -13.7343 -13.7332
   -13.7262 -13.7233 -13.7218 -13.7216 -13.7118 -13.7080 -13.6918 -13.6878
   -13.6844 -13.6815 -13.6747 -13.6681  -6.0325  -5.6994  -5.0726  -4.6160
     0.4125   1.4654   1.9759   2.5889   2.9245   4.3405   4.4186   4.4258
     4.6985   4.9076   5.4436   5.7911   6.1050   6.5519   6.8496   7.1459
     8.3768  10.2501  10.5154  10.5186  10.6950  10.9588  11.4756  12.0171
    12.1336  12.3158

          k = 0.0333 0.0000 0.0000 (  4124 PWs)   bands (ev):

   -13.7590 -13.7479 -13.7458 -13.7415 -13.7404 -13.7377 -13.7343 -13.7332
   -13.7261 -13.7233 -13.7218 -13.7216 -13.7118 -13.7080 -13.6917 -13.6878
   -13.6844 -13.6815 -13.6747 -13.6681  -6.0320  -5.7005  -5.0712  -4.6167
     0.4136   1.4572   1.9837   2.5885   2.9266   4.3356   4.4192   4.4275
     4.7022   4.9054   5.4461   5.7896   6.1041   6.5410   6.8507   7.1458
     8.3900  10.2472  10.5109  10.5181  10.7031  10.9598  11.4763  11.9940
    12.1571  12.3175

          k = 0.0500 0.0000 0.0000 (  4120 PWs)   bands (ev):

   -13.7590 -13.7479 -13.7457 -13.7415 -13.7404 -13.7377 -13.7343 -13.7331
   -13.7261 -13.7233 -13.7218 -13.7216 -13.7118 -13.7081 -13.6917 -13.6879
   -13.6844 -13.6815 -13.6747 -13.6681  -6.0312  -5.7024  -5.0688  -4.6179
     0.4154   1.4442   1.9963   2.5879   2.9301   4.3276   4.4203   4.4303
     4.7082   4.9018   5.4502   5.7869   6.1024   6.5231   6.8525   7.1456
     8.4117  10.2425  10.4993  10.5223  10.7153  10.9614  11.4775  11.9661
    12.1859  12.3205

          k = 0.0667 0.0000 0.0000 (  4114 PWs)   bands (ev):

   -13.7589 -13.7480 -13.7457 -13.7415 -13.7403 -13.7377 -13.7343 -13.7331
   -13.7261 -13.7233 -13.7218 -13.7216 -13.7117 -13.7081 -13.6917 -13.6879
   -13.6844 -13.6815 -13.6746 -13.6681  -6.0301  -5.7051  -5.0656  -4.6196
     0.4179   1.4270   2.0127   2.5871   2.9350   4.3169   4.4217   4.4342
     4.7162   4.8969   5.4559   5.7833   6.1001   6.4988   6.8549   7.1453
     8.4412  10.2363  10.4851  10.5278  10.7304  10.9638  11.4793  11.9364
    12.2167  12.3246

          k = 0.0833 0.0000 0.0000 (  4122 PWs)   bands (ev):

   -13.7589 -13.7482 -13.7456 -13.7416 -13.7403 -13.7377 -13.7342 -13.7331
   -13.7261 -13.7232 -13.7218 -13.7217 -13.7117 -13.7081 -13.6917 -13.6879
   -13.6843 -13.6816 -13.6746 -13.6682  -6.0287  -5.7085  -5.0614  -4.6218
     0.4212   1.4064   2.0323   2.5861   2.9414   4.3036   4.4236   4.4393
     4.7259   4.8908   5.4631   5.7786   6.0971   6.4689   6.8580   7.1449
     8.4780  10.2289  10.4692  10.5341  10.7475  10.9667  11.4817  11.9061
    12.2485  12.3298

          k = 0.1000 0.0000 0.0000 (  4120 PWs)   bands (ev):

   -13.7588 -13.7483 -13.7455 -13.7416 -13.7403 -13.7378 -13.7342 -13.7331
   -13.7261 -13.7232 -13.7218 -13.7217 -13.7117 -13.7081 -13.6916 -13.6879
   -13.6843 -13.6816 -13.6745 -13.6682  -6.0270  -5.7126  -5.0565  -4.6244
     0.4252   1.3831   2.0542   2.5848   2.9493   4.2882   4.4259   4.4455
     4.7370   4.8835   5.4716   5.7730   6.0935   6.4339   6.8617   7.1444
     8.5213  10.2206  10.4522  10.5409  10.7659  10.9703  11.4847  11.8755
    12.2808  12.3360

          k = 0.1167 0.0000 0.0000 (  4112 PWs)   bands (ev):

   -13.7587 -13.7485 -13.7454 -13.7416 -13.7403 -13.7378 -13.7341 -13.7331
   -13.7261 -13.7232 -13.7218 -13.7218 -13.7117 -13.7082 -13.6916 -13.6879
   -13.6843 -13.6816 -13.6745 -13.6683  -6.0250  -5.7173  -5.0507  -4.6275
     0.4299   1.3579   2.0777   2.5832   2.9587   4.2708   4.4286   4.4528
     4.7492   4.8752   5.4814   5.7664   6.0892   6.3948   6.8660   7.1438
     8.5704  10.2116  10.4347  10.5478  10.7853  10.9746  11.4884  11.8449
    12.3135  12.3433

          k = 0.1333 0.0000 0.0000 (  4110 PWs)   bands (ev):

   -13.7586 -13.7487 -13.7453 -13.7417 -13.7403 -13.7378 -13.7341 -13.7331
   -13.7260 -13.7231 -13.7218 -13.7218 -13.7117 -13.7082 -13.6915 -13.6880
   -13.6842 -13.6816 -13.6744 -13.6683  -6.0226  -5.7226  -5.0442  -4.6311
     0.4353   1.3310   2.1023   2.5815   2.9698   4.2517   4.4317   4.4612
     4.7622   4.8660   5.4923   5.7589   6.0843   6.3522   6.8709   7.1430
     8.6245  10.2023  10.4167  10.5544  10.8054  10.9796  11.4928  11.8145
    12.3463  12.3514

          k = 0.1500 0.0000 0.0000 (  4118 PWs)   bands (ev):

   -13.7586 -13.7489 -13.7452 -13.7417 -13.7403 -13.7379 -13.7341 -13.7331
   -13.7260 -13.7231 -13.7219 -13.7218 -13.7116 -13.7083 -13.6915 -13.6880
   -13.6842 -13.6817 -13.6743 -13.6684  -6.0200  -5.7284  -5.0369  -4.6352
     0.4414   1.3031   2.1274   2.5795   2.9825   4.2311   4.4352   4.4707
     4.7758   4.8560   5.5042   5.7506   6.0788   6.3068   6.8763   7.1420
     8.6830  10.1928  10.3987  10.5604  10.8260  10.9852  11.4980  11.7843
    12.3603  12.3791

          k = 0.1667 0.0000 0.0000 (  4122 PWs)   bands (ev):

   -13.7584 -13.7491 -13.7452 -13.7417 -13.7402 -13.7379 -13.7340 -13.7331
   -13.7260 -13.7230 -13.7220 -13.7218 -13.7116 -13.7083 -13.6914 -13.6881
   -13.6842 -13.6817 -13.6742 -13.6685  -6.0171  -5.7347  -5.0291  -4.6397
     0.4483   1.2744   2.1527   2.5773   2.9969   4.2092   4.4392   4.4814
     4.7898   4.8453   5.5169   5.7415   6.0726   6.2593   6.8822   7.1409
     8.7452  10.1834  10.3808  10.5654  10.8470  10.9915  11.5039  11.7543
    12.3700  12.4120

          k = 0.1833 0.0000 0.0000 (  4124 PWs)   bands (ev):

   -13.7583 -13.7493 -13.7451 -13.7418 -13.7402 -13.7380 -13.7340 -13.7331
   -13.7259 -13.7230 -13.7221 -13.7218 -13.7116 -13.7084 -13.6914 -13.6881
   -13.6841 -13.6817 -13.6741 -13.6685  -6.0138  -5.7415  -5.0206  -4.6446
     0.4558   1.2452   2.1778   2.5749   3.0131   4.1860   4.4435   4.4931
     4.8039   4.8341   5.5305   5.7316   6.0659   6.2102   6.8886   7.1395
     8.8105  10.1741  10.3630  10.5692  10.8684  10.9984  11.5105  11.7247
    12.3801  12.4448

          k = 0.2000 0.0000 0.0000 (  4130 PWs)   bands (ev):

   -13.7582 -13.7495 -13.7450 -13.7418 -13.7402 -13.7381 -13.7340 -13.7331
   -13.7259 -13.7229 -13.7222 -13.7218 -13.7115 -13.7085 -13.6913 -13.6882
   -13.6841 -13.6818 -13.6740 -13.6687  -6.0103  -5.7487  -5.0116  -4.6500
     0.4641   1.2157   2.2024   2.5722   3.0310   4.1618   4.4483   4.5059
     4.8181   4.8223   5.5447   5.7211   6.0585   6.1601   6.8955   7.1379
     8.8785  10.1651  10.3454  10.5714  10.8900  11.0060  11.5179  11.6955
    12.3906  12.4775

          k = 0.2167 0.0000 0.0000 (  4128 PWs)   bands (ev):

   -13.7581 -13.7498 -13.7449 -13.7419 -13.7402 -13.7381 -13.7339 -13.7331
   -13.7259 -13.7229 -13.7223 -13.7218 -13.7115 -13.7085 -13.6913 -13.6882
   -13.6840 -13.6818 -13.6739 -13.6687  -6.0065  -5.7562  -5.0022  -4.6558
     0.4732   1.1860   2.2264   2.5693   3.0507   4.1365   4.4534   4.5199
     4.8102   4.8323   5.5595   5.7099   6.0505   6.1095   6.9028   7.1360
     8.9487  10.1564  10.3282  10.5718  10.9120  11.0142  11.5258  11.6667
    12.4013  12.5100

          k = 0.2333 0.0000 0.0000 (  4124 PWs)   bands (ev):

   -13.7579 -13.7500 -13.7448 -13.7419 -13.7401 -13.7382 -13.7338 -13.7330
   -13.7258 -13.7228 -13.7224 -13.7218 -13.7114 -13.7086 -13.6912 -13.6883
   -13.6840 -13.6819 -13.6737 -13.6688  -6.0023  -5.7640  -4.9923  -4.6620
     0.4829   1.1564   2.2496   2.5662   3.0722   4.1102   4.4589   4.5348
     4.7978   4.8461   5.5748   5.6983   6.0420   6.0588   6.9104   7.1338
     9.0205  10.1483  10.3114  10.5702  10.9342  11.0231  11.5340  11.6382
    12.4119  12.5423

          k = 0.2500 0.0000 0.0000 (  4128 PWs)   bands (ev):

   -13.7577 -13.7503 -13.7447 -13.7420 -13.7401 -13.7383 -13.7338 -13.7330
   -13.7258 -13.7227 -13.7225 -13.7218 -13.7114 -13.7087 -13.6911 -13.6884
   -13.6839 -13.6819 -13.6736 -13.6690  -5.9979  -5.7721  -4.9820  -4.6687
     0.4934   1.1269   2.2717   2.5629   3.0955   4.0830   4.4649   4.5509
     4.7851   4.8595   5.5904   5.6861   6.0084   6.0328   6.9184   7.1314
     9.0938  10.1407  10.2950  10.5665  10.9568  11.0326  11.5424  11.6103
    12.4221  12.5437

          k = 0.2667 0.0000 0.0000 (  4124 PWs)   bands (ev):

   -13.7576 -13.7505 -13.7446 -13.7421 -13.7401 -13.7383 -13.7337 -13.7330
   -13.7257 -13.7227 -13.7226 -13.7218 -13.7113 -13.7088 -13.6910 -13.6884
   -13.6839 -13.6820 -13.6735 -13.6691  -5.9932  -5.7803  -4.9713  -4.6757
     0.5046   1.0975   2.2928   2.5593   3.1205   4.0549   4.4712   4.5679
     4.7723   4.8724   5.6065   5.6737   5.9588   6.0232   6.9267   7.1286
     9.1680  10.1337  10.2792  10.5602  10.9797  11.0428  11.5505  11.5827
    12.4316  12.5012

          k = 0.2833 0.0000 0.0000 (  4118 PWs)   bands (ev):

   -13.7574 -13.7508 -13.7445 -13.7421 -13.7400 -13.7384 -13.7337 -13.7330
   -13.7256 -13.7227 -13.7226 -13.7217 -13.7113 -13.7088 -13.6909 -13.6885
   -13.6838 -13.6820 -13.6733 -13.6692  -5.9882  -5.7888  -4.9604  -4.6832
     0.5165   1.0685   2.3128   2.5555   3.1471   4.0259   4.4779   4.5859
     4.7593   4.8844   5.6228   5.6609   5.9103   6.0129   6.9353   7.1255
     9.2428  10.1274  10.2640  10.5515  11.0031  11.0537  11.5557  11.5579
    12.4399  12.4596

          k = 0.3000 0.0000 0.0000 (  4118 PWs)   bands (ev):

   -13.7572 -13.7510 -13.7444 -13.7422 -13.7400 -13.7385 -13.7336 -13.7330
   -13.7256 -13.7228 -13.7225 -13.7217 -13.7112 -13.7089 -13.6909 -13.6886
   -13.6838 -13.6821 -13.6732 -13.6693  -5.9830  -5.7974  -4.9493  -4.6910
     0.5292   1.0398   2.3316   2.5515   3.1753   3.9962   4.4850   4.6049
     4.7463   4.8955   5.6394   5.6481   5.8633   6.0022   6.9441   7.1220
     9.3179  10.1218  10.2493  10.5400  11.0269  11.0652  11.5291  11.5639
    12.4197  12.4468

          k = 0.3167 0.0000 0.0000 (  4114 PWs)   bands (ev):

   -13.7570 -13.7513 -13.7443 -13.7423 -13.7399 -13.7385 -13.7336 -13.7330
   -13.7255 -13.7229 -13.7225 -13.7218 -13.7111 -13.7090 -13.6908 -13.6887
   -13.6837 -13.6821 -13.6730 -13.6694  -5.9775  -5.8061  -4.9379  -4.6992
     0.5426   1.0116   2.3493   2.5472   3.2050   3.9656   4.4924   4.6248
     4.7332   4.9054   5.6352   5.6561   5.8182   5.9909   6.9530   7.1181
     9.3930  10.1170  10.2353  10.5256  11.0512  11.0773  11.5031  11.5679
    12.3827  12.4517

          k = 0.3333 0.0000 0.0000 (  4118 PWs)   bands (ev):

   -13.7568 -13.7516 -13.7442 -13.7424 -13.7399 -13.7386 -13.7335 -13.7330
   -13.7254 -13.7231 -13.7224 -13.7218 -13.7111 -13.7091 -13.6907 -13.6887
   -13.6836 -13.6822 -13.6729 -13.6696  -5.9717  -5.8149  -4.9264  -4.7078
     0.5567   0.9838   2.3658   2.5427   3.2360   3.9343   4.5002   4.6455
     4.7202   4.9138   5.6224   5.6729   5.7754   5.9792   6.9621   7.1139
     9.4678  10.1128  10.2220  10.5082  11.0761  11.0901  11.4776  11.5691
    12.3495  12.4542

          k = 0.3500 0.0000 0.0000 (  4112 PWs)   bands (ev):

   -13.7566 -13.7518 -13.7441 -13.7424 -13.7398 -13.7387 -13.7335 -13.7330
   -13.7253 -13.7232 -13.7223 -13.7218 -13.7110 -13.7092 -13.6906 -13.6888
   -13.6835 -13.6822 -13.6727 -13.6697  -5.9656  -5.8237  -4.9147  -4.7167
     0.5715   0.9564   2.3812   2.5380   3.2682   3.9023   4.5084   4.6669
     4.7072   4.9204   5.6099   5.6898   5.7354   5.9670   6.9712   7.1093
     9.5420  10.1095  10.2094  10.4877  11.1017  11.1036  11.4526  11.5668
    12.3212  12.4538

          k = 0.3667 0.0000 0.0000 (  4112 PWs)   bands (ev):

   -13.7563 -13.7521 -13.7440 -13.7425 -13.7398 -13.7388 -13.7334 -13.7330
   -13.7252 -13.7233 -13.7223 -13.7218 -13.7109 -13.7093 -13.6905 -13.6889
   -13.6835 -13.6823 -13.6726 -13.6699  -5.9593  -5.8326  -4.9030  -4.7259
     0.5870   0.9296   2.3956   2.5329   3.3014   3.8696   4.5170   4.6890
     4.6943   4.9250   5.5978   5.6984   5.7067   5.9543   6.9804   7.1042
     9.6151  10.1069  10.1976  10.4640  11.1177  11.1280  11.4281  11.5602
    12.2987  12.4503

          k = 0.3833 0.0000 0.0000 (  4112 PWs)   bands (ev):

   -13.7561 -13.7524 -13.7439 -13.7426 -13.7397 -13.7388 -13.7334 -13.7330
   -13.7251 -13.7234 -13.7222 -13.7218 -13.7108 -13.7094 -13.6904 -13.6890
   -13.6834 -13.6824 -13.6724 -13.6700  -5.9528  -5.8414  -4.8912  -4.7354
     0.6033   0.9034   2.4091   2.5276   3.3356   3.8362   4.5259   4.6815
     4.7116   4.9273   5.5863   5.6649   5.7236   5.9412   6.9896   7.0988
     9.6870  10.1051  10.1867  10.4369  11.1324  11.1552  11.4043  11.5490
    12.2826  12.4435

          k = 0.4000 0.0000 0.0000 (  4120 PWs)   bands (ev):

   -13.7559 -13.7527 -13.7438 -13.7427 -13.7397 -13.7389 -13.7333 -13.7330
   -13.7250 -13.7236 -13.7222 -13.7218 -13.7107 -13.7095 -13.6903 -13.6891
   -13.6833 -13.6824 -13.6722 -13.6702  -5.9460  -5.8502  -4.8793  -4.7452
     0.6202   0.8777   2.4216   2.5220   3.3705   3.8022   4.5351   4.6689
     4.7345   4.9270   5.5756   5.6353   5.7405   5.9276   6.9988   7.0931
     9.7571  10.1040  10.1768  10.4066  11.1478  11.1832  11.3809  11.5330
    12.2732  12.4333

          k = 0.4167 0.0000 0.0000 (  4120 PWs)   bands (ev):

   -13.7556 -13.7530 -13.7437 -13.7428 -13.7396 -13.7390 -13.7333 -13.7330
   -13.7249 -13.7237 -13.7221 -13.7218 -13.7106 -13.7096 -13.6902 -13.6892
   -13.6833 -13.6825 -13.6721 -13.6703  -5.9390  -5.8589  -4.8675  -4.7554
     0.6379   0.8526   2.4332   2.5161   3.4061   3.7676   4.5447   4.6564
     4.7575   4.9238   5.5661   5.6098   5.7572   5.9137   7.0078   7.0869
     9.8252  10.1035  10.1679  10.3728  11.1638  11.2120  11.3582  11.5126
    12.2704  12.4202

          k = 0.4333 0.0000 0.0000 (  4118 PWs)   bands (ev):

   -13.7554 -13.7532 -13.7436 -13.7429 -13.7396 -13.7391 -13.7332 -13.7330
   -13.7248 -13.7238 -13.7221 -13.7218 -13.7105 -13.7098 -13.6901 -13.6893
   -13.6832 -13.6826 -13.6719 -13.6705  -5.9318  -5.8675  -4.8557  -4.7657
     0.6563   0.8282   2.4441   2.5099   3.4421   3.7325   4.5546   4.6441
     4.7804   4.9176   5.5580   5.5887   5.7739   5.8993   7.0168   7.0803
     9.8906  10.1036  10.1604  10.3359  11.1805  11.2418  11.3360  11.4882
    12.2736  12.4044

          k = 0.4500 0.0000 0.0000 (  4116 PWs)   bands (ev):

   -13.7551 -13.7535 -13.7435 -13.7429 -13.7395 -13.7391 -13.7332 -13.7330
   -13.7247 -13.7240 -13.7220 -13.7219 -13.7104 -13.7098 -13.6900 -13.6894
   -13.6831 -13.6827 -13.6717 -13.6707  -5.9244  -5.8761  -4.8440  -4.7763
     0.6754   0.8043   2.4543   2.5033   3.4785   3.6970   4.5648   4.6320
     4.8029   4.9084   5.5516   5.5719   5.7904   5.8847   7.0256   7.0734
     9.9527  10.1038  10.1546  10.2959  11.1977  11.2725  11.3145  11.4607
    12.2819  12.3865

          k = 0.4667 0.0000 0.0000 (  4120 PWs)   bands (ev):

   -13.7549 -13.7538 -13.7434 -13.7430 -13.7395 -13.7392 -13.7332 -13.7331
   -13.7246 -13.7241 -13.7220 -13.7219 -13.7104 -13.7100 -13.6899 -13.6895
   -13.6830 -13.6827 -13.6715 -13.6708  -5.9168  -5.8845  -4.8324  -4.7872
     0.6951   0.7812   2.4638   2.4963   3.5150   3.6610   4.5753   4.6202
     4.8247   4.8963   5.5472   5.5595   5.8067   5.8696   7.0342   7.0662
    10.0098  10.1035  10.1520  10.2537  11.2157  11.2935  11.3038  11.4310
    12.2945  12.3674

          k = 0.4833 0.0000 0.0000 (  4110 PWs)   bands (ev):

   -13.7546 -13.7541 -13.7433 -13.7431 -13.7394 -13.7393 -13.7331 -13.7331
   -13.7245 -13.7242 -13.7220 -13.7219 -13.7102 -13.7100 -13.6898 -13.6896
   -13.6830 -13.6828 -13.6714 -13.6710  -5.9090  -5.8928  -4.8208  -4.7982
     0.7156   0.7586   2.4727   2.4889   3.5517   3.6248   4.5861   4.6085
     4.8453   4.8815   5.5455   5.5512   5.8228   5.8543   7.0426   7.0586
    10.0581  10.1007  10.1561  10.2115  11.2342  11.2731  11.3357  11.3998
    12.3103  12.3477

          k = 0.5000 0.0000 0.0000 (  4114 PWs)   bands (ev):

   -13.7543 -13.7543 -13.7432 -13.7432 -13.7393 -13.7393 -13.7331 -13.7331
   -13.7243 -13.7243 -13.7219 -13.7219 -13.7101 -13.7101 -13.6897 -13.6897
   -13.6829 -13.6829 -13.6712 -13.6712  -5.9010  -5.9010  -4.8094  -4.8094
     0.7368   0.7368   2.4810   2.4810   3.5883   3.5883   4.5972   4.5972
     4.8644   4.8644   5.5466   5.5466   5.8387   5.8387   7.0508   7.0508
    10.0890  10.0890  10.1754  10.1754  11.2533  11.2533  11.3679  11.3679
    12.3284  12.3284

          k = 0.5000 0.0461 0.0000 (  4116 PWs)   bands (ev):

   -13.7543 -13.7543 -13.7432 -13.7432 -13.7394 -13.7394 -13.7331 -13.7331
   -13.7244 -13.7244 -13.7219 -13.7219 -13.7101 -13.7101 -13.6897 -13.6897
   -13.6829 -13.6829 -13.6712 -13.6712  -5.8996  -5.8996  -4.8090  -4.8090
     0.7348   0.7348   2.4750   2.4750   3.5897   3.5897   4.5928   4.5928
     4.8706   4.8706   5.5483   5.5483   5.8383   5.8383   7.0520   7.0520
    10.0943  10.0943  10.1767  10.1767  11.2335  11.2335  11.3648  11.3648
    12.3367  12.3367

          k = 0.5000 0.0923 0.0000 (  4116 PWs)   bands (ev):

   -13.7541 -13.7541 -13.7431 -13.7431 -13.7394 -13.7394 -13.7332 -13.7332
   -13.7245 -13.7245 -13.7218 -13.7218 -13.7101 -13.7101 -13.6896 -13.6896
   -13.6830 -13.6830 -13.6712 -13.6712  -5.8954  -5.8954  -4.8077  -4.8077
     0.7289   0.7289   2.4569   2.4569   3.5940   3.5940   4.5812   4.5812
     4.8878   4.8878   5.5532   5.5532   5.8375   5.8375   7.0556   7.0556
    10.1088  10.1088  10.1810  10.1810  11.1784  11.1784  11.3546  11.3546
    12.3587  12.3587

          k = 0.5000 0.1384 0.0000 (  4110 PWs)   bands (ev):

   -13.7539 -13.7539 -13.7429 -13.7429 -13.7396 -13.7396 -13.7333 -13.7333
   -13.7246 -13.7246 -13.7217 -13.7217 -13.7100 -13.7100 -13.6895 -13.6895
   -13.6831 -13.6831 -13.6712 -13.6712  -5.8884  -5.8884  -4.8056  -4.8056
     0.7191   0.7191   2.4273   2.4273   3.6011   3.6011   4.5655   4.5655
     4.9127   4.9127   5.5610   5.5610   5.8365   5.8365   7.0612   7.0612
    10.1275  10.1275  10.1905  10.1905  11.0979  11.0979  11.3361  11.3361
    12.3877  12.3877

          k = 0.5000 0.1846 0.0000 (  4110 PWs)   bands (ev):

   -13.7535 -13.7535 -13.7427 -13.7427 -13.7398 -13.7398 -13.7335 -13.7335
   -13.7249 -13.7249 -13.7215 -13.7215 -13.7100 -13.7100 -13.6894 -13.6894
   -13.6832 -13.6832 -13.6713 -13.6713  -5.8786  -5.8786  -4.8028  -4.8028
     0.7055   0.7055   2.3866   2.3866   3.6112   3.6112   4.5487   4.5487
     4.9422   4.9422   5.5715   5.5715   5.8363   5.8363   7.0686   7.0686
    10.1403  10.1403  10.2105  10.2105  11.0036  11.0036  11.3091  11.3091
    12.4164  12.4164

          k = 0.5000 0.2307 0.0000 (  4106 PWs)   bands (ev):

   -13.7531 -13.7531 -13.7424 -13.7424 -13.7400 -13.7400 -13.7338 -13.7338
   -13.7251 -13.7251 -13.7213 -13.7213 -13.7099 -13.7099 -13.6893 -13.6893
   -13.6833 -13.6833 -13.6713 -13.6713  -5.8661  -5.8661  -4.7992  -4.7992
     0.6881   0.6881   2.3355   2.3355   3.6242   3.6242   4.5329   4.5329
     4.9741   4.9741   5.5839   5.5839   5.8376   5.8376   7.0771   7.0771
    10.1388  10.1388  10.2407  10.2407  10.9079  10.9079  11.2740  11.2740
    12.4388  12.4388

          k = 0.5000 0.2769 0.0000 (  4090 PWs)   bands (ev):

   -13.7525 -13.7525 -13.7421 -13.7421 -13.7402 -13.7402 -13.7341 -13.7341
   -13.7254 -13.7254 -13.7210 -13.7210 -13.7098 -13.7098 -13.6892 -13.6892
   -13.6835 -13.6835 -13.6714 -13.6714  -5.8509  -5.8509  -4.7951  -4.7951
     0.6672   0.6672   2.2752   2.2752   3.6402   3.6402   4.5196   4.5196
     5.0071   5.0071   5.5976   5.5976   5.8414   5.8414   7.0862   7.0862
    10.1196  10.1196  10.2716  10.2716  10.8250  10.8250  11.2319  11.2319
    12.4493  12.4493

          k = 0.5000 0.3230 0.0000 (  4090 PWs)   bands (ev):

   -13.7519 -13.7519 -13.7418 -13.7418 -13.7404 -13.7404 -13.7344 -13.7344
   -13.7257 -13.7257 -13.7208 -13.7208 -13.7096 -13.7096 -13.6890 -13.6890
   -13.6837 -13.6837 -13.6714 -13.6714  -5.8330  -5.8330  -4.7904  -4.7904
     0.6429   0.6429   2.2064   2.2064   3.6593   3.6593   4.5096   4.5096
     5.0404   5.0404   5.6118   5.6118   5.8484   5.8484   7.0952   7.0952
    10.0766  10.0766  10.2935  10.2935  10.7690  10.7690  11.1854  11.1854
    12.4400  12.4400

          k = 0.5000 0.3692 0.0000 (  4096 PWs)   bands (ev):

   -13.7513 -13.7513 -13.7416 -13.7416 -13.7405 -13.7405 -13.7348 -13.7348
   -13.7260 -13.7260 -13.7205 -13.7205 -13.7095 -13.7095 -13.6889 -13.6889
   -13.6839 -13.6839 -13.6715 -13.6715  -5.8126  -5.8126  -4.7855  -4.7855
     0.6154   0.6154   2.1304   2.1304   3.6815   3.6815   4.5035   4.5035
     5.0738   5.0738   5.6258   5.6258   5.8590   5.8590   7.1038   7.1038
    10.0045  10.0045  10.3019  10.3019  10.7451  10.7451  11.1387  11.1387
    12.4000  12.4000

          k = 0.5000 0.4153 0.0000 (  4096 PWs)   bands (ev):

   -13.7506 -13.7506 -13.7416 -13.7416 -13.7403 -13.7403 -13.7352 -13.7352
   -13.7263 -13.7263 -13.7202 -13.7202 -13.7094 -13.7094 -13.6889 -13.6889
   -13.6840 -13.6840 -13.6716 -13.6716  -5.7897  -5.7897  -4.7803  -4.7803
     0.5851   0.5851   2.0481   2.0481   3.7069   3.7069   4.5016   4.5016
     5.1073   5.1073   5.6392   5.6392   5.8731   5.8731   7.1112   7.1112
     9.9055   9.9055  10.2978  10.2978  10.7427  10.7427  11.0979  11.0979
    12.3261  12.3261

          k = 0.5000 0.4615 0.0000 (  4102 PWs)   bands (ev):

   -13.7500 -13.7500 -13.7417 -13.7417 -13.7399 -13.7399 -13.7357 -13.7357
   -13.7266 -13.7266 -13.7200 -13.7200 -13.7092 -13.7092 -13.6890 -13.6890
   -13.6841 -13.6841 -13.6716 -13.6716  -5.7643  -5.7643  -4.7752  -4.7752
     0.5524   0.5524   1.9606   1.9606   3.7354   3.7354   4.5040   4.5040
     5.1412   5.1412   5.6517   5.6517   5.8902   5.8902   7.1172   7.1172
     9.7879   9.7879  10.2825  10.2825  10.7443  10.7443  11.0691  11.0691
    12.2283  12.2283

          k = 0.5000 0.5076 0.0000 (  4092 PWs)   bands (ev):

   -13.7493 -13.7493 -13.7419 -13.7419 -13.7395 -13.7395 -13.7361 -13.7361
   -13.7268 -13.7268 -13.7197 -13.7197 -13.7090 -13.7090 -13.6891 -13.6891
   -13.6841 -13.6841 -13.6717 -13.6717  -5.7366  -5.7366  -4.7702  -4.7702
     0.5178   0.5178   1.8690   1.8690   3.7671   3.7671   4.5109   4.5109
     5.1757   5.1757   5.6635   5.6635   5.9093   5.9093   7.1214   7.1214
     9.6602   9.6602  10.2549  10.2549  10.7388  10.7388  11.0536  11.0536
    12.1162  12.1162

          k = 0.5000 0.5537 0.0000 (  4102 PWs)   bands (ev):

   -13.7487 -13.7487 -13.7421 -13.7421 -13.7390 -13.7390 -13.7365 -13.7365
   -13.7271 -13.7271 -13.7194 -13.7194 -13.7089 -13.7089 -13.6894 -13.6894
   -13.6840 -13.6840 -13.6718 -13.6718  -5.7068  -5.7068  -4.7657  -4.7657
     0.4817   0.4817   1.7742   1.7742   3.8022   3.8022   4.5222   4.5222
     5.2111   5.2111   5.6744   5.6744   5.9291   5.9291   7.1234   7.1234
     9.5288   9.5288  10.2133  10.2133  10.7260  10.7260  11.0447  11.0447
    11.9948  11.9948

          k = 0.5000 0.5999 0.0000 (  4118 PWs)   bands (ev):

   -13.7483 -13.7483 -13.7422 -13.7422 -13.7386 -13.7386 -13.7368 -13.7368
   -13.7273 -13.7273 -13.7192 -13.7192 -13.7087 -13.7087 -13.6898 -13.6898
   -13.6837 -13.6837 -13.6718 -13.6718  -5.6748  -5.6748  -4.7617  -4.7617
     0.4447   0.4447   1.6771   1.6771   3.8405   3.8405   4.5379   4.5379
     5.2476   5.2476   5.6846   5.6846   5.9484   5.9484   7.1232   7.1232
     9.3983   9.3983  10.1579  10.1579  10.7101  10.7101  11.0332  11.0332
    11.8667  11.8667

          k = 0.5000 0.6460 0.0000 (  4118 PWs)   bands (ev):

   -13.7480 -13.7480 -13.7422 -13.7422 -13.7383 -13.7383 -13.7369 -13.7369
   -13.7275 -13.7275 -13.7190 -13.7190 -13.7085 -13.7085 -13.6903 -13.6903
   -13.6834 -13.6834 -13.6719 -13.6719  -5.6408  -5.6408  -4.7587  -4.7587
     0.4076   0.4076   1.5785   1.5785   3.8821   3.8821   4.5579   4.5579
     5.2852   5.2852   5.6938   5.6938   5.9661   5.9661   7.1206   7.1206
     9.2719   9.2719  10.0910  10.0910  10.6929  10.6929  11.0134  11.0134
    11.7336  11.7336

          k = 0.5000 0.6922 0.0000 (  4124 PWs)   bands (ev):

   -13.7479 -13.7479 -13.7423 -13.7423 -13.7381 -13.7381 -13.7366 -13.7366
   -13.7276 -13.7276 -13.7188 -13.7188 -13.7083 -13.7083 -13.6909 -13.6909
   -13.6831 -13.6831 -13.6719 -13.6719  -5.6050  -5.6050  -4.7567  -4.7567
     0.3709   0.3709   1.4792   1.4792   3.9270   3.9270   4.5821   4.5821
     5.3240   5.3240   5.7018   5.7018   5.9812   5.9812   7.1152   7.1152
     9.1522   9.1522  10.0161  10.0161  10.6712  10.6712  10.9855  10.9855
    11.5975  11.5975

          k = 0.5000 0.7383 0.0000 (  4132 PWs)   bands (ev):

   -13.7479 -13.7479 -13.7424 -13.7424 -13.7379 -13.7379 -13.7362 -13.7362
   -13.7277 -13.7277 -13.7187 -13.7187 -13.7080 -13.7080 -13.6916 -13.6916
   -13.6826 -13.6826 -13.6720 -13.6720  -5.5676  -5.5676  -4.7562  -4.7562
     0.3355   0.3355   1.3799   1.3799   3.9753   3.9753   4.6101   4.6101
     5.3633   5.3633   5.7083   5.7083   5.9930   5.9930   7.1069   7.1069
     9.0416   9.0416   9.9369   9.9369  10.6396  10.6396  10.9536  10.9536
    11.4612  11.4612

          k = 0.5000 0.7845 0.0000 (  4130 PWs)   bands (ev):

   -13.7481 -13.7481 -13.7427 -13.7427 -13.7376 -13.7376 -13.7357 -13.7357
   -13.7277 -13.7277 -13.7186 -13.7186 -13.7077 -13.7077 -13.6922 -13.6922
   -13.6822 -13.6822 -13.6721 -13.6721  -5.5287  -5.5287  -4.7572  -4.7572
     0.3019   0.3019   1.2813   1.2813   4.0268   4.0268   4.6418   4.6418
     5.4027   5.4027   5.7127   5.7127   6.0015   6.0015   7.0952   7.0952
     8.9421   8.9421   9.8567   9.8567  10.5923  10.5923  10.9214  10.9214
    11.3295  11.3295

          k = 0.5000 0.8306 0.0000 (  4118 PWs)   bands (ev):

   -13.7482 -13.7482 -13.7432 -13.7432 -13.7370 -13.7370 -13.7351 -13.7351
   -13.7277 -13.7277 -13.7185 -13.7185 -13.7074 -13.7074 -13.6930 -13.6930
   -13.6816 -13.6816 -13.6722 -13.6722  -5.4885  -5.4885  -4.7601  -4.7601
     0.2710   0.2710   1.1840   1.1840   4.0815   4.0815   4.6767   4.6767
     5.4408   5.4408   5.7146   5.7146   6.0072   6.0072   7.0794   7.0794
     8.8559   8.8559   9.7780   9.7780  10.5277  10.5277  10.8853  10.8853
    11.2121  11.2121

          k = 0.5000 0.8768 0.0000 (  4126 PWs)   bands (ev):

   -13.7485 -13.7485 -13.7437 -13.7437 -13.7364 -13.7364 -13.7346 -13.7346
   -13.7276 -13.7276 -13.7185 -13.7185 -13.7071 -13.7071 -13.6937 -13.6937
   -13.6811 -13.6811 -13.6723 -13.6723  -5.4472  -5.4472  -4.7651  -4.7651
     0.2434   0.2434   1.0885   1.0885   4.1394   4.1394   4.7143   4.7143
     5.4759   5.4759   5.7136   5.7136   6.0115   6.0115   7.0587   7.0587
     8.7846   8.7846   9.7027   9.7027  10.4485  10.4485  10.8300  10.8300
    11.1255  11.1255

          k = 0.5000 0.9229 0.0000 (  4120 PWs)   bands (ev):

   -13.7487 -13.7487 -13.7443 -13.7443 -13.7358 -13.7358 -13.7342 -13.7342
   -13.7274 -13.7274 -13.7186 -13.7186 -13.7067 -13.7067 -13.6945 -13.6945
   -13.6806 -13.6806 -13.6724 -13.6724  -5.4051  -5.4051  -4.7724  -4.7724
     0.2197   0.2197   0.9954   0.9954   4.2001   4.2001   4.7539   4.7539
     5.5056   5.5056   5.7094   5.7094   6.0167   6.0167   7.0323   7.0323
     8.7297   8.7297   9.6320   9.6320  10.3594  10.3594  10.7427  10.7427
    11.0820  11.0820

          k = 0.5000 0.9690 0.0000 (  4128 PWs)   bands (ev):

   -13.7489 -13.7489 -13.7449 -13.7449 -13.7352 -13.7352 -13.7337 -13.7337
   -13.7271 -13.7271 -13.7187 -13.7187 -13.7063 -13.7063 -13.6953 -13.6953
   -13.6800 -13.6800 -13.6726 -13.6726  -5.3623  -5.3623  -4.7822  -4.7822
     0.2007   0.2007   0.9053   0.9053   4.2636   4.2636   4.7946   4.7946
     5.5266   5.5266   5.7020   5.7020   6.0259   6.0259   6.9995   6.9995
     8.6925   8.6925   9.5668   9.5668  10.2651  10.2651  10.6325  10.6325
    11.0717  11.0717

          k = 0.5000 1.0152 0.0000 (  4124 PWs)   bands (ev):

   -13.7491 -13.7491 -13.7455 -13.7455 -13.7346 -13.7346 -13.7333 -13.7333
   -13.7267 -13.7267 -13.7189 -13.7189 -13.7059 -13.7059 -13.6960 -13.6960
   -13.6795 -13.6795 -13.6728 -13.6728  -5.3192  -5.3192  -4.7946  -4.7946
     0.1867   0.1867   0.8187   0.8187   4.3296   4.3296   4.8353   4.8353
     5.5361   5.5361   5.6918   5.6918   6.0425   6.0425   6.9599   6.9599
     8.6731   8.6731   9.5070   9.5070  10.1696  10.1696  10.5143  10.5143
    11.0795  11.0795

          k = 0.5000 1.0613 0.0000 (  4136 PWs)   bands (ev):

   -13.7493 -13.7493 -13.7461 -13.7461 -13.7341 -13.7341 -13.7330 -13.7330
   -13.7263 -13.7263 -13.7191 -13.7191 -13.7055 -13.7055 -13.6968 -13.6968
   -13.6789 -13.6789 -13.6730 -13.6730  -5.2759  -5.2759  -4.8098  -4.8098
     0.1784   0.1784   0.7359   0.7359   4.3977   4.3977   4.8745   4.8745
     5.5332   5.5332   5.6786   5.6786   6.0689   6.0689   6.9135   6.9135
     8.6714   8.6714   9.4521   9.4521  10.0768  10.0768  10.3967  10.3967
    11.0971  11.0971

          k = 0.5000 1.1075 0.0000 (  4130 PWs)   bands (ev):

   -13.7494 -13.7494 -13.7466 -13.7466 -13.7337 -13.7337 -13.7327 -13.7327
   -13.7258 -13.7258 -13.7194 -13.7194 -13.7050 -13.7050 -13.6975 -13.6975
   -13.6783 -13.6783 -13.6732 -13.6732  -5.2329  -5.2329  -4.8278  -4.8278
     0.1761   0.1761   0.6576   0.6576   4.4673   4.4673   4.9099   4.9099
     5.5198   5.5198   5.6620   5.6620   6.1058   6.1058   6.8608   6.8608
     8.6864   8.6864   9.4003   9.4003   9.9906   9.9906  10.2841  10.2841
    11.1205  11.1205

          k = 0.5000 1.1536 0.0000 (  4126 PWs)   bands (ev):

   -13.7494 -13.7494 -13.7471 -13.7471 -13.7333 -13.7333 -13.7325 -13.7325
   -13.7252 -13.7252 -13.7197 -13.7197 -13.7045 -13.7045 -13.6983 -13.6983
   -13.6778 -13.6778 -13.6735 -13.6735  -5.1902  -5.1902  -4.8487  -4.8487
     0.1801   0.1801   0.5840   0.5840   4.5380   4.5380   4.9386   4.9386
     5.5009   5.5009   5.6415   5.6415   6.1521   6.1521   6.8026   6.8026
     8.7166   8.7166   9.3490   9.3490   9.9154   9.9154  10.1793  10.1793
    11.1479  11.1479

          k = 0.5000 1.1998 0.0000 (  4122 PWs)   bands (ev):

   -13.7495 -13.7495 -13.7476 -13.7476 -13.7330 -13.7330 -13.7324 -13.7324
   -13.7246 -13.7246 -13.7201 -13.7201 -13.7040 -13.7040 -13.6990 -13.6990
   -13.6772 -13.6772 -13.6738 -13.6738  -5.1483  -5.1483  -4.8724  -4.8724
     0.1906   0.1906   0.5156   0.5156   4.6088   4.6088   4.9565   4.9565
     5.4828   5.4828   5.6171   5.6171   6.2061   6.2061   6.7399   6.7399
     8.7601   8.7601   9.2949   9.2949   9.8561   9.8561  10.0840  10.0840
    11.1781  11.1781

          k = 0.5000 1.2459 0.0000 (  4124 PWs)   bands (ev):

   -13.7494 -13.7494 -13.7480 -13.7480 -13.7328 -13.7328 -13.7323 -13.7323
   -13.7240 -13.7240 -13.7206 -13.7206 -13.7034 -13.7034 -13.6997 -13.6997
   -13.6767 -13.6767 -13.6741 -13.6741  -5.1074  -5.1074  -4.8989  -4.8989
     0.2080   0.2080   0.4528   0.4528   4.6789   4.6789   4.9596   4.9596
     5.4715   5.4715   5.5895   5.5895   6.2661   6.2661   6.6739   6.6739
     8.8148   8.8148   9.2351   9.2351   9.8166   9.8166   9.9997   9.9997
    11.2107  11.2107

          k = 0.5000 1.2921 0.0000 (  4126 PWs)   bands (ev):

   -13.7493 -13.7493 -13.7484 -13.7484 -13.7326 -13.7326 -13.7322 -13.7322
   -13.7233 -13.7233 -13.7211 -13.7211 -13.7029 -13.7029 -13.7004 -13.7004
   -13.6762 -13.6762 -13.6744 -13.6744  -5.0679  -5.0679  -4.9281  -4.9281
     0.2321   0.2321   0.3959   0.3959   4.7466   4.7466   4.9450   4.9450
     5.4713   5.4713   5.5600   5.5600   6.3303   6.3303   6.6056   6.6056
     8.8784   8.8784   9.1685   9.1685   9.7993   9.7993   9.9280   9.9280
    11.2450  11.2450

          k = 0.5000 1.3382 0.0000 (  4116 PWs)   bands (ev):

   -13.7492 -13.7492 -13.7487 -13.7487 -13.7324 -13.7324 -13.7322 -13.7322
   -13.7227 -13.7227 -13.7216 -13.7216 -13.7023 -13.7023 -13.7010 -13.7010
   -13.6757 -13.6757 -13.6748 -13.6748  -5.0299  -5.0299  -4.9598  -4.9598
     0.2631   0.2631   0.3451   0.3451   4.8102   4.8102   4.9131   4.9131
     5.4828   5.4828   5.5306   5.5306   6.3974   6.3974   6.5361   6.5361
     8.9485   8.9485   9.0967   9.0967   9.8037   9.8037   9.8702   9.8702
    11.2808  11.2808

          k = 0.5000 1.3844 0.0000 (  4116 PWs)   bands (ev):

   -13.7490 -13.7490 -13.7490 -13.7490 -13.7323 -13.7323 -13.7323 -13.7323
   -13.7221 -13.7221 -13.7221 -13.7221 -13.7016 -13.7016 -13.7016 -13.7016
   -13.6753 -13.6753 -13.6753 -13.6753  -4.9938  -4.9938  -4.9938  -4.9938
     0.3008   0.3008   0.3008   0.3008   4.8668   4.8668   4.8668   4.8668
     5.5038   5.5038   5.5038   5.5038   6.4664   6.4664   6.4664   6.4664
     9.0222   9.0222   9.0222   9.0222   9.8280   9.8280   9.8280   9.8280
    11.3180  11.3180

          k = 0.4833 1.3844 0.0000 (  4124 PWs)   bands (ev):

   -13.7491 -13.7491 -13.7489 -13.7489 -13.7324 -13.7324 -13.7322 -13.7322
   -13.7223 -13.7223 -13.7220 -13.7220 -13.7018 -13.7018 -13.7015 -13.7015
   -13.6753 -13.6753 -13.6752 -13.6752  -4.9952  -4.9952  -4.9924  -4.9924
     0.2855   0.2855   0.3162   0.3162   4.8332   4.8332   4.8998   4.8998
     5.4923   5.4923   5.5161   5.5161   6.4611   6.4611   6.4722   6.4722
     9.0119   9.0119   9.0313   9.0313   9.8112   9.8112   9.8448   9.8448
    11.2727  11.2727

          k = 0.4667 1.3844 0.0000 (  4120 PWs)   bands (ev):

   -13.7491 -13.7491 -13.7488 -13.7488 -13.7325 -13.7325 -13.7321 -13.7321
   -13.7224 -13.7224 -13.7219 -13.7219 -13.7019 -13.7019 -13.7014 -13.7014
   -13.6754 -13.6754 -13.6752 -13.6752  -4.9965  -4.9965  -4.9910  -4.9910
     0.2704   0.2704   0.3318   0.3318   4.7991   4.7991   4.9320   4.9320
     5.4816   5.4816   5.5292   5.5292   6.4564   6.4564   6.4785   6.4785
     9.0005   9.0005   9.0391   9.0391   9.7942   9.7942   9.8614   9.8614
    11.2291  11.2291

          k = 0.4500 1.3844 0.0000 (  4120 PWs)   bands (ev):

   -13.7492 -13.7492 -13.7487 -13.7487 -13.7326 -13.7326 -13.7321 -13.7321
   -13.7225 -13.7225 -13.7218 -13.7218 -13.7020 -13.7020 -13.7013 -13.7013
   -13.6754 -13.6754 -13.6751 -13.6751  -4.9979  -4.9979  -4.9896  -4.9896
     0.2555   0.2555   0.3475   0.3475   4.7646   4.7646   4.9631   4.9631
     5.4715   5.4715   5.5432   5.5432   6.4524   6.4524   6.4852   6.4852
     8.9881   8.9881   9.0454   9.0454   9.7771   9.7771   9.8780   9.8780
    11.1876  11.1876

          k = 0.4333 1.3844 0.0000 (  4112 PWs)   bands (ev):

   -13.7493 -13.7493 -13.7487 -13.7487 -13.7326 -13.7326 -13.7320 -13.7320
   -13.7226 -13.7226 -13.7217 -13.7217 -13.7021 -13.7021 -13.7012 -13.7012
   -13.6755 -13.6755 -13.6751 -13.6751  -4.9993  -4.9993  -4.9882  -4.9882
     0.2409   0.2409   0.3632   0.3632   4.7301   4.7301   4.9931   4.9931
     5.4621   5.4621   5.5580   5.5580   6.4490   6.4490   6.4922   6.4922
     8.9748   8.9748   9.0502   9.0502   9.7597   9.7597   9.8945   9.8945
    11.1483  11.1483

          k = 0.4167 1.3844 0.0000 (  4106 PWs)   bands (ev):

   -13.7494 -13.7494 -13.7486 -13.7486 -13.7327 -13.7327 -13.7319 -13.7319
   -13.7227 -13.7227 -13.7216 -13.7216 -13.7022 -13.7022 -13.7011 -13.7011
   -13.6755 -13.6755 -13.6750 -13.6750  -5.0006  -5.0006  -4.9869  -4.9869
     0.2266   0.2266   0.3789   0.3789   4.6955   4.6955   5.0218   5.0218
     5.4533   5.4533   5.5737   5.5737   6.4465   6.4465   6.4996   6.4996
     8.9607   8.9607   9.0535   9.0535   9.7421   9.7421   9.9110   9.9110
    11.1114  11.1114

          k = 0.4000 1.3844 0.0000 (  4108 PWs)   bands (ev):

   -13.7494 -13.7494 -13.7485 -13.7485 -13.7328 -13.7328 -13.7318 -13.7318
   -13.7228 -13.7228 -13.7215 -13.7215 -13.7023 -13.7023 -13.7010 -13.7010
   -13.6755 -13.6755 -13.6750 -13.6750  -5.0019  -5.0019  -4.9855  -4.9855
     0.2127   0.2127   0.3946   0.3946   4.6611   4.6611   5.0490   5.0490
     5.4451   5.4451   5.5903   5.5903   6.4448   6.4448   6.5072   6.5072
     8.9460   8.9460   9.0551   9.0551   9.7242   9.7242   9.9273   9.9273
    11.0770  11.0770

          k = 0.3833 1.3844 0.0000 (  4120 PWs)   bands (ev):

   -13.7495 -13.7495 -13.7484 -13.7484 -13.7329 -13.7329 -13.7317 -13.7317
   -13.7230 -13.7230 -13.7214 -13.7214 -13.7024 -13.7024 -13.7009 -13.7009
   -13.6756 -13.6756 -13.6749 -13.6749  -5.0032  -5.0032  -4.9842  -4.9842
     0.1991   0.1991   0.4102   0.4102   4.6270   4.6270   5.0747   5.0747
     5.4374   5.4374   5.6076   5.6076   6.4441   6.4441   6.5150   6.5150
     8.9308   8.9308   9.0551   9.0551   9.7060   9.7060   9.9436   9.9436
    11.0454  11.0454

          k = 0.3667 1.3844 0.0000 (  4120 PWs)   bands (ev):

   -13.7496 -13.7496 -13.7483 -13.7483 -13.7329 -13.7329 -13.7316 -13.7316
   -13.7231 -13.7231 -13.7213 -13.7213 -13.7025 -13.7025 -13.7008 -13.7008
   -13.6756 -13.6756 -13.6749 -13.6749  -5.0045  -5.0045  -4.9829  -4.9829
     0.1858   0.1858   0.4256   0.4256   4.5933   4.5933   5.0987   5.0987
     5.4302   5.4302   5.6256   5.6256   6.4444   6.4444   6.5229   6.5229
     8.9153   8.9153   9.0534   9.0534   9.6876   9.6876   9.9596   9.9596
    11.0167  11.0167

          k = 0.3500 1.3844 0.0000 (  4120 PWs)   bands (ev):

   -13.7496 -13.7496 -13.7483 -13.7483 -13.7330 -13.7330 -13.7315 -13.7315
   -13.7232 -13.7232 -13.7212 -13.7212 -13.7026 -13.7026 -13.7008 -13.7008
   -13.6757 -13.6757 -13.6748 -13.6748  -5.0057  -5.0057  -4.9817  -4.9817
     0.1730   0.1730   0.4409   0.4409   4.5602   4.5602   5.1211   5.1211
     5.4235   5.4235   5.6440   5.6440   6.4457   6.4457   6.5309   6.5309
     8.8995   8.8995   9.0500   9.0500   9.6689   9.6689   9.9755   9.9755
    10.9907  10.9907

          k = 0.3333 1.3844 0.0000 (  4124 PWs)   bands (ev):

   -13.7497 -13.7497 -13.7482 -13.7482 -13.7331 -13.7331 -13.7314 -13.7314
   -13.7234 -13.7234 -13.7211 -13.7211 -13.7027 -13.7027 -13.7007 -13.7007
   -13.6757 -13.6757 -13.6748 -13.6748  -5.0069  -5.0069  -4.9804  -4.9804
     0.1607   0.1607   0.4559   0.4559   4.5278   4.5278   5.1419   5.1419
     5.4172   5.4172   5.6629   5.6629   6.4482   6.4482   6.5390   6.5390
     8.8835   8.8835   9.0450   9.0450   9.6500   9.6500   9.9912   9.9912
    10.9677  10.9677

          k = 0.3167 1.3844 0.0000 (  4124 PWs)   bands (ev):

   -13.7498 -13.7498 -13.7481 -13.7481 -13.7331 -13.7331 -13.7314 -13.7314
   -13.7235 -13.7235 -13.7210 -13.7210 -13.7028 -13.7028 -13.7006 -13.7006
   -13.6758 -13.6758 -13.6748 -13.6748  -5.0081  -5.0081  -4.9792  -4.9792
     0.1488   0.1488   0.4706   0.4706   4.4962   4.4962   5.1610   5.1610
     5.4113   5.4113   5.6818   5.6818   6.4518   6.4518   6.5470   6.5470
     8.8676   8.8676   9.0383   9.0383   9.6310   9.6310  10.0066  10.0066
    10.9475  10.9475

          k = 0.3000 1.3844 0.0000 (  4124 PWs)   bands (ev):

   -13.7498 -13.7498 -13.7480 -13.7480 -13.7332 -13.7332 -13.7313 -13.7313
   -13.7236 -13.7236 -13.7209 -13.7209 -13.7028 -13.7028 -13.7005 -13.7005
   -13.6758 -13.6758 -13.6747 -13.6747  -5.0092  -5.0092  -4.9781  -4.9781
     0.1373   0.1373   0.4851   0.4851   4.4656   4.4656   5.1785   5.1785
     5.4058   5.4058   5.7007   5.7007   6.4567   6.4567   6.5550   6.5550
     8.8517   8.8517   9.0301   9.0301   9.6120   9.6120  10.0216  10.0216
    10.9301  10.9301

          k = 0.2833 1.3844 0.0000 (  4124 PWs)   bands (ev):

   -13.7499 -13.7499 -13.7480 -13.7480 -13.7332 -13.7332 -13.7312 -13.7312
   -13.7237 -13.7237 -13.7208 -13.7208 -13.7029 -13.7029 -13.7004 -13.7004
   -13.6758 -13.6758 -13.6747 -13.6747  -5.0103  -5.0103  -4.9769  -4.9769
     0.1264   0.1264   0.4991   0.4991   4.4359   4.4359   5.1945   5.1945
     5.4007   5.4007   5.7194   5.7194   6.4627   6.4627   6.5629   6.5629
     8.8361   8.8361   9.0204   9.0204   9.5932   9.5932  10.0363  10.0363
    10.9154  10.9154

          k = 0.2667 1.3844 0.0000 (  4122 PWs)   bands (ev):

   -13.7499 -13.7499 -13.7479 -13.7479 -13.7333 -13.7333 -13.7311 -13.7311
   -13.7238 -13.7238 -13.7207 -13.7207 -13.7030 -13.7030 -13.7003 -13.7003
   -13.6759 -13.6759 -13.6747 -13.6747  -5.0113  -5.0113  -4.9759  -4.9759
     0.1160   0.1160   0.5127   0.5127   4.4074   4.4074   5.2091   5.2091
     5.3959   5.3959   5.7375   5.7375   6.4700   6.4700   6.5707   6.5707
     8.8207   8.8207   9.0093   9.0093   9.5747   9.5747  10.0505  10.0505
    10.9031  10.9031

          k = 0.2500 1.3844 0.0000 (  4122 PWs)   bands (ev):

   -13.7500 -13.7500 -13.7478 -13.7478 -13.7334 -13.7334 -13.7310 -13.7310
   -13.7239 -13.7239 -13.7206 -13.7206 -13.7031 -13.7031 -13.7003 -13.7003
   -13.6759 -13.6759 -13.6746 -13.6746  -5.0123  -5.0123  -4.9748  -4.9748
     0.1061   0.1061   0.5258   0.5258   4.3801   4.3801   5.2223   5.2223
     5.3914   5.3914   5.7548   5.7548   6.4785   6.4785   6.5783   6.5783
     8.8058   8.8058   8.9970   8.9970   9.5566   9.5566  10.0643  10.0643
    10.8932  10.8932

          k = 0.2333 1.3844 0.0000 (  4122 PWs)   bands (ev):

   -13.7500 -13.7500 -13.7478 -13.7478 -13.7334 -13.7334 -13.7309 -13.7309
   -13.7240 -13.7240 -13.7206 -13.7206 -13.7032 -13.7032 -13.7002 -13.7002
   -13.6759 -13.6759 -13.6746 -13.6746  -5.0132  -5.0132  -4.9739  -4.9739
     0.0968   0.0968   0.5383   0.5383   4.3541   4.3541   5.2342   5.2342
     5.3873   5.3873   5.7713   5.7713   6.4879   6.4879   6.5856   6.5856
     8.7913   8.7913   8.9836   8.9836   9.5391   9.5391  10.0775  10.0775
    10.8854  10.8854

          k = 0.2167 1.3844 0.0000 (  4126 PWs)   bands (ev):

   -13.7501 -13.7501 -13.7477 -13.7477 -13.7335 -13.7335 -13.7309 -13.7309
   -13.7242 -13.7242 -13.7205 -13.7205 -13.7032 -13.7032 -13.7001 -13.7001
   -13.6760 -13.6760 -13.6746 -13.6746  -5.0141  -5.0141  -4.9729  -4.9729
     0.0881   0.0881   0.5503   0.5503   4.3295   4.3295   5.2449   5.2449
     5.3835   5.3835   5.7868   5.7868   6.4984   6.4984   6.5927   6.5927
     8.7775   8.7775   8.9693   8.9693   9.5224   9.5224  10.0901  10.0901
    10.8794  10.8794

          k = 0.2000 1.3844 0.0000 (  4130 PWs)   bands (ev):

   -13.7501 -13.7501 -13.7477 -13.7477 -13.7335 -13.7335 -13.7308 -13.7308
   -13.7243 -13.7243 -13.7204 -13.7204 -13.7033 -13.7033 -13.7001 -13.7001
   -13.6760 -13.6760 -13.6745 -13.6745  -5.0149  -5.0149  -4.9721  -4.9721
     0.0800   0.0800   0.5616   0.5616   4.3064   4.3064   5.2545   5.2545
     5.3800   5.3800   5.8011   5.8011   6.5096   6.5096   6.5994   6.5994
     8.7643   8.7643   8.9543   8.9543   9.5066   9.5066  10.1020  10.1020
    10.8751  10.8751

          k = 0.1833 1.3844 0.0000 (  4130 PWs)   bands (ev):

   -13.7502 -13.7502 -13.7476 -13.7476 -13.7335 -13.7335 -13.7307 -13.7307
   -13.7243 -13.7243 -13.7204 -13.7204 -13.7034 -13.7034 -13.7000 -13.7000
   -13.6760 -13.6760 -13.6745 -13.6745  -5.0157  -5.0157  -4.9713  -4.9713
     0.0724   0.0724   0.5722   0.5722   4.2849   4.2849   5.2631   5.2631
     5.3768   5.3768   5.8141   5.8141   6.5214   6.5214   6.6058   6.6058
     8.7518   8.7518   8.9389   8.9389   9.4918   9.4918  10.1132  10.1132
    10.8722  10.8722

          k = 0.1667 1.3844 0.0000 (  4136 PWs)   bands (ev):

   -13.7502 -13.7502 -13.7476 -13.7476 -13.7336 -13.7336 -13.7307 -13.7307
   -13.7244 -13.7244 -13.7203 -13.7203 -13.7034 -13.7034 -13.7000 -13.7000
   -13.6761 -13.6761 -13.6745 -13.6745  -5.0164  -5.0164  -4.9705  -4.9705
     0.0655   0.0655   0.5821   0.5821   4.2649   4.2649   5.2708   5.2708
     5.3739   5.3739   5.8259   5.8259   6.5335   6.5335   6.6118   6.6118
[...]
     8.6838   8.6838   8.8311   8.8311   9.4150   9.4150  10.1738  10.1738
    10.8740  10.8740

          k = 0.0167 1.3844 0.0000 (  4142 PWs)   bands (ev):

   -13.7504 -13.7504 -13.7473 -13.7473 -13.7338 -13.7338 -13.7303 -13.7303
   -13.7249 -13.7249 -13.7201 -13.7201 -13.7037 -13.7037 -13.6997 -13.6997
   -13.6762 -13.6762 -13.6744 -13.6744  -5.0198  -5.0198  -4.9669  -4.9669
     0.0324   0.0324   0.6311   0.6311   4.1675   4.1675   5.3043   5.3043
     5.3604   5.3604   5.8778   5.8778   6.6120   6.6120   6.6421   6.6421
     8.6820   8.6820   8.8276   8.8276   9.4131   9.4131  10.1755  10.1755
    10.8744  10.8744

          k = 0.0000 1.3844 0.0000 (  4146 PWs)   bands (ev):

   -13.7504 -13.7504 -13.7473 -13.7473 -13.7338 -13.7338 -13.7303 -13.7303
   -13.7249 -13.7249 -13.7201 -13.7201 -13.7037 -13.7037 -13.6997 -13.6997
   -13.6762 -13.6762 -13.6744 -13.6744  -5.0198  -5.0198  -4.9669  -4.9669
     0.0320   0.0320   0.6317   0.6317   4.1665   4.1665   5.3047   5.3047
     5.3603   5.3603   5.8783   5.8783   6.6130   6.6130   6.6424   6.6424
     8.6814   8.6814   8.8264   8.8264   9.4124   9.4124  10.1760  10.1760
    10.8746  10.8746

          k = 0.0000 1.3382 0.0000 (  4138 PWs)   bands (ev):

   -13.7506 -13.7502 -13.7475 -13.7471 -13.7341 -13.7336 -13.7305 -13.7301
   -13.7252 -13.7246 -13.7210 -13.7192 -13.7046 -13.7028 -13.7002 -13.6992
   -13.6768 -13.6756 -13.6747 -13.6741  -5.0648  -4.9893  -4.9765  -4.9470
    -0.0072   0.0785   0.6008   0.6686   4.0891   4.2416   5.2806   5.3018
     5.3225   5.4183   5.7902   5.9606   6.6094   6.6151   6.6266   6.6628
     8.6804   8.6983   8.7517   8.8951   9.3953   9.4380  10.1334  10.2288
    10.8414  10.9235

          k = 0.0000 1.2921 0.0000 (  4134 PWs)   bands (ev):

   -13.7507 -13.7499 -13.7476 -13.7468 -13.7344 -13.7334 -13.7308 -13.7300
   -13.7256 -13.7243 -13.7219 -13.7183 -13.7054 -13.7019 -13.7007 -13.6988
   -13.6774 -13.6750 -13.6750 -13.6739  -5.1111  -5.0141  -4.9352  -4.9300
    -0.0391   0.1321   0.5764   0.7112   4.0104   4.3132   5.2441   5.2511
     5.3337   5.4751   5.7002   6.0317   6.5815   6.6212   6.6462   6.6765
     8.6727   8.6959   8.7301   8.9555   9.3876   9.4717  10.1020  10.2908
    10.8262  10.9858

          k = 0.0000 1.2459 0.0000 (  4142 PWs)   bands (ev):

   -13.7507 -13.7495 -13.7476 -13.7465 -13.7348 -13.7333 -13.7311 -13.7298
   -13.7261 -13.7240 -13.7227 -13.7175 -13.7062 -13.7012 -13.7010 -13.6983
   -13.6781 -13.6754 -13.6745 -13.6737  -5.1586  -5.0411  -4.9158  -4.8959
    -0.0638   0.1927   0.5586   0.7592   3.9312   4.3797   5.1883   5.2169
     5.3380   5.5299   5.6105   6.0855   6.5424   6.6543   6.6692   6.6841
     8.5911   8.7279   8.7752   9.0047   9.3900   9.5141  10.0827  10.3607
    10.8305  11.0593

          k = 0.0000 1.1998 0.0000 (  4126 PWs)   bands (ev):

   -13.7507 -13.7491 -13.7476 -13.7462 -13.7353 -13.7332 -13.7314 -13.7297
   -13.7265 -13.7237 -13.7236 -13.7167 -13.7070 -13.7016 -13.7001 -13.6977
   -13.6787 -13.6758 -13.6740 -13.6735  -5.2069  -5.0701  -4.9044  -4.8591
    -0.0814   0.2600   0.5475   0.8120   3.8522   4.4392   5.1359   5.1790
     5.3354   5.5226   5.5819   6.1182   6.4989   6.6869   6.6938   6.7120
     8.5083   8.7757   8.8319   9.0402   9.4033   9.5663  10.0763  10.4376
    10.8553  11.1420

          k = 0.0000 1.1536 0.0000 (  4126 PWs)   bands (ev):

   -13.7506 -13.7486 -13.7476 -13.7459 -13.7358 -13.7332 -13.7318 -13.7297
   -13.7270 -13.7244 -13.7235 -13.7159 -13.7078 -13.7021 -13.6991 -13.6972
   -13.6794 -13.6762 -13.6735 -13.6734  -5.2557  -5.1008  -4.8960  -4.8247
    -0.0922   0.3339   0.5434   0.8691   3.7742   4.4894   5.0888   5.1384
     5.3261   5.4373   5.6306   6.1311   6.4524   6.6866   6.7188   6.7920
     8.4258   8.8385   8.8985   9.0601   9.4278   9.6296  10.0836  10.5201
    10.9005  11.2320

          k = 0.0000 1.1075 0.0000 (  4122 PWs)   bands (ev):

   -13.7504 -13.7480 -13.7475 -13.7456 -13.7363 -13.7333 -13.7323 -13.7297
   -13.7274 -13.7252 -13.7233 -13.7152 -13.7086 -13.7026 -13.6982 -13.6967
   -13.6801 -13.6766 -13.6733 -13.6731  -5.3049  -5.1328  -4.8905  -4.7930
    -0.0963   0.4140   0.5463   0.9301   3.6975   4.5275   5.0491   5.0962
     5.3107   5.3551   5.6755   6.1288   6.4040   6.6850   6.7431   6.8885
     8.3457   8.9148   8.9734   9.0645   9.4634   9.7042  10.1049  10.6068
    10.9647  11.3278

          k = 0.0000 1.0613 0.0000 (  4122 PWs)   bands (ev):

   -13.7502 -13.7475 -13.7473 -13.7452 -13.7368 -13.7334 -13.7328 -13.7298
   -13.7278 -13.7259 -13.7231 -13.7145 -13.7094 -13.7030 -13.6972 -13.6962
   -13.6808 -13.6770 -13.6732 -13.6727  -5.3540  -5.1660  -4.8877  -4.7641
    -0.0942   0.5000   0.5560   0.9943   3.6227   4.5509   5.0189   5.0535
     5.2761   5.2898   5.7161   6.1161   6.3548   6.6842   6.7663   6.9944
     8.2704   9.0032   9.0550   9.0553   9.5100   9.7889  10.1405  10.6963
    11.0462  11.4279

          k = 0.0000 1.0152 0.0000 (  4122 PWs)   bands (ev):

   -13.7500 -13.7471 -13.7468 -13.7450 -13.7373 -13.7336 -13.7333 -13.7302
   -13.7280 -13.7265 -13.7229 -13.7139 -13.7102 -13.7035 -13.6962 -13.6957
   -13.6815 -13.6775 -13.6732 -13.6723  -5.4028  -5.1999  -4.8876  -4.7380
    -0.0864   0.5725   0.5914   1.0612   3.5502   4.5582   4.9991   5.0113
     5.2005   5.2641   5.7524   6.0964   6.3058   6.6859   6.7878   7.1027
     8.2040   9.0351   9.1022   9.1423   9.5669   9.8825  10.1899  10.7869
    11.1428  11.5309

          k = 0.0000 0.9690 0.0000 (  4112 PWs)   bands (ev):

   -13.7496 -13.7469 -13.7461 -13.7448 -13.7378 -13.7338 -13.7338 -13.7308
   -13.7280 -13.7271 -13.7227 -13.7132 -13.7110 -13.7040 -13.6951 -13.6951
   -13.6822 -13.6779 -13.6732 -13.6720  -5.4511  -5.2344  -4.8899  -4.7147
    -0.0732   0.5956   0.6879   1.1300   3.4803   4.5505   4.9706   4.9882
     5.1282   5.2344   5.7842   6.0720   6.2579   6.6917   6.8072   7.2051
     8.1524   9.0066   9.2105   9.2342   9.6333   9.9829  10.2527  10.8766
    11.2523  11.6354

          k = 0.0000 0.9229 0.0000 (  4106 PWs)   bands (ev):

   -13.7493 -13.7466 -13.7454 -13.7449 -13.7381 -13.7344 -13.7341 -13.7315
   -13.7278 -13.7276 -13.7226 -13.7127 -13.7117 -13.7044 -13.6946 -13.6941
   -13.6829 -13.6784 -13.6732 -13.6717  -5.4986  -5.2692  -4.8944  -4.6942
    -0.0552   0.6249   0.7889   1.2001   3.4135   4.5310   4.9320   4.9827
     5.0594   5.2016   5.8116   6.0443   6.2118   6.7026   6.8245   7.2909
     8.1253   8.9722   9.3267   9.3301   9.7083  10.0885  10.3276  10.9630
    11.3726  11.7402

          k = 0.0000 0.8768 0.0000 (  4108 PWs)   bands (ev):

   -13.7489 -13.7463 -13.7452 -13.7447 -13.7383 -13.7351 -13.7344 -13.7323
   -13.7280 -13.7276 -13.7224 -13.7125 -13.7121 -13.7049 -13.6940 -13.6931
   -13.6836 -13.6789 -13.6733 -13.6714  -5.5451  -5.3039  -4.9009  -4.6763
    -0.0331   0.6600   0.8941   1.2708   3.3501   4.5038   4.8961   4.9787
     4.9943   5.1664   5.8349   6.0140   6.1680   6.7191   6.8393   7.3472
     8.1346   8.9338   9.4293   9.4497   9.7909  10.1974  10.4132  11.0435
    11.5018  11.8437

          k = 0.0000 0.8306 0.0000 (  4104 PWs)   bands (ev):

   -13.7485 -13.7459 -13.7457 -13.7439 -13.7382 -13.7357 -13.7348 -13.7332
   -13.7284 -13.7274 -13.7223 -13.7132 -13.7116 -13.7053 -13.6935 -13.6921
   -13.6843 -13.6793 -13.6734 -13.6711  -5.5904  -5.3383  -4.9092  -4.6611
    -0.0075   0.7005   1.0027   1.3413   3.2903   4.4726   4.8627   4.9335
     4.9731   5.1297   5.8543   5.9819   6.1271   6.7413   6.8517   7.3658
     8.1881   8.8931   9.5314   9.5781   9.8797  10.3076  10.5076  11.1153
    11.6384  11.9445

          k = 0.0000 0.7845 0.0000 (  4106 PWs)   bands (ev):

   -13.7481 -13.7464 -13.7455 -13.7431 -13.7380 -13.7364 -13.7352 -13.7341
   -13.7286 -13.7271 -13.7222 -13.7140 -13.7112 -13.7058 -13.6930 -13.6911
   -13.6850 -13.6798 -13.6735 -13.6708  -5.6343  -5.3722  -4.9189  -4.6483
     0.0211   0.7458   1.1144   1.4109   3.2346   4.4399   4.8298   4.8798
     4.9639   5.0921   5.8703   5.9483   6.0894   6.7686   6.8617   7.3496
     8.2826   8.8510   9.6356   9.7109   9.9735  10.4168  10.6084  11.1757
    11.7808  12.0318

          k = 0.0000 0.7383 0.0000 (  4102 PWs)   bands (ev):

   -13.7477 -13.7473 -13.7451 -13.7424 -13.7376 -13.7370 -13.7357 -13.7351
   -13.7288 -13.7268 -13.7222 -13.7147 -13.7107 -13.7063 -13.6925 -13.6901
   -13.6856 -13.6802 -13.6736 -13.6706  -5.6766  -5.4053  -4.9298  -4.6378
     0.0518   0.7952   1.2285   1.4787   3.1831   4.4078   4.7908   4.8398
     4.9504   5.0541   5.8833   5.9136   6.0554   6.8002   6.8694   7.3088
     8.4073   8.8085   9.7410   9.8469  10.0709  10.5224  10.7132  11.2225
    11.9278  12.0132

          k = 0.0000 0.6922 0.0000 (  4118 PWs)   bands (ev):

   -13.7483 -13.7473 -13.7447 -13.7416 -13.7376 -13.7372 -13.7362 -13.7361
   -13.7289 -13.7265 -13.7222 -13.7154 -13.7104 -13.7067 -13.6920 -13.6891
   -13.6863 -13.6807 -13.6737 -13.6703  -5.7171  -5.4374  -4.9415  -4.6294
     0.0841   0.8481   1.3443   1.5441   3.1362   4.3775   4.7442   4.8155
     4.9323   5.0164   5.8780   5.8935   6.0254   6.8350   6.8750   7.2534
     8.5522   8.7662   9.8462   9.9845  10.1703  10.6211  10.8193  11.2546
    11.9897  12.0778

          k = 0.0000 0.6460 0.0000 (  4132 PWs)   bands (ev):

   -13.7493 -13.7469 -13.7443 -13.7408 -13.7381 -13.7371 -13.7368 -13.7367
   -13.7289 -13.7261 -13.7222 -13.7160 -13.7100 -13.7072 -13.6915 -13.6882
   -13.6869 -13.6811 -13.6739 -13.6701  -5.7556  -5.4684  -4.9539  -4.6228
     0.1173   0.9036   1.4610   1.6061   3.0940   4.3500   4.6961   4.8008
     4.9099   4.9795   5.8418   5.9006   6.0007   6.8717   6.8785   7.1900
     8.7102   8.7247   9.9493  10.1222  10.2700  10.7091  10.9240  11.2722
    11.9576  12.2294

          k = 0.0000 0.5999 0.0000 (  4124 PWs)   bands (ev):

   -13.7503 -13.7466 -13.7439 -13.7401 -13.7385 -13.7381 -13.7372 -13.7363
   -13.7289 -13.7257 -13.7222 -13.7167 -13.7097 -13.7077 -13.6910 -13.6875
   -13.6873 -13.6815 -13.6740 -13.6699  -5.7921  -5.4979  -4.9667  -4.6179
     0.1508   0.9610   1.5780   1.6642   3.0568   4.3259   4.6495   4.7928
     4.8838   4.9438   5.8051   5.9031   5.9831   6.8803   6.9090   7.1228
     8.6842   8.8770  10.0475  10.2574  10.3684  10.7820  11.0252  11.2770
    11.9157  12.3438

          k = 0.0000 0.5537 0.0000 (  4126 PWs)   bands (ev):

   -13.7514 -13.7463 -13.7435 -13.7393 -13.7391 -13.7389 -13.7377 -13.7359
   -13.7288 -13.7253 -13.7222 -13.7173 -13.7094 -13.7081 -13.6906 -13.6881
   -13.6865 -13.6819 -13.6741 -13.6697  -5.8264  -5.5259  -4.9795  -4.6144
     0.1840   1.0193   1.6943   1.7176   3.0247   4.3057   4.6055   4.7902
     4.8545   4.9095   5.7680   5.8988   5.9753   6.8806   6.9457   7.0545
     8.6451   9.0497  10.1376  10.3867  10.4635  10.8354  11.1217  11.2721
    11.8669  12.3907

          k = 0.0000 0.5076 0.0000 (  4118 PWs)   bands (ev):

   -13.7525 -13.7462 -13.7431 -13.7400 -13.7391 -13.7386 -13.7382 -13.7354
   -13.7286 -13.7249 -13.7223 -13.7179 -13.7092 -13.7086 -13.6901 -13.6886
   -13.6857 -13.6822 -13.6742 -13.6695  -5.8583  -5.5523  -4.9922  -4.6122
     0.2163   1.0776   1.7659   1.8090   2.9976   4.2899   4.5644   4.7923
     4.8225   4.8772   5.7309   5.8882   5.9771   6.8795   6.9807   6.9867
     8.6076   9.2261  10.2155  10.5044  10.5533  10.8658  11.2140  11.2632
    11.8166  12.4243

          k = 0.0000 0.4615 0.0000 (  4114 PWs)   bands (ev):

   -13.7535 -13.7462 -13.7427 -13.7409 -13.7392 -13.7387 -13.7379 -13.7350
   -13.7284 -13.7245 -13.7224 -13.7185 -13.7090 -13.7089 -13.6897 -13.6891
   -13.6850 -13.6826 -13.6743 -13.6693  -5.8878  -5.5767  -5.0046  -4.6109
     0.2473   1.1349   1.8087   1.9209   2.9755   4.2788   4.5266   4.7886
     4.7986   4.8470   5.6938   5.8745   5.9854   6.8773   6.9209   7.0131
     8.5719   9.4044  10.2773  10.6016  10.6360  10.8720  11.2595  11.3042
    11.7710  12.4452

          k = 0.0000 0.4153 0.0000 (  4114 PWs)   bands (ev):

   -13.7544 -13.7463 -13.7423 -13.7418 -13.7392 -13.7391 -13.7373 -13.7346
   -13.7282 -13.7241 -13.7225 -13.7190 -13.7094 -13.7087 -13.6896 -13.6894
   -13.6843 -13.6829 -13.6744 -13.6691  -5.9148  -5.5992  -5.0164  -4.6104
     0.2766   1.1904   1.8458   2.0290   2.9581   4.2725   4.4921   4.7530
     4.8084   4.8191   5.6571   5.8603   5.9975   6.8581   6.8744   7.0421
     8.5382   9.5828  10.3203  10.6669  10.7100  10.8556  11.2731  11.3956
    11.7352  12.4550

          k = 0.0000 0.3692 0.0000 (  4108 PWs)   bands (ev):

   -13.7553 -13.7464 -13.7426 -13.7420 -13.7395 -13.7390 -13.7367 -13.7343
   -13.7279 -13.7236 -13.7226 -13.7195 -13.7098 -13.7086 -13.6900 -13.6891
   -13.6837 -13.6832 -13.6745 -13.6689  -5.9392  -5.6197  -5.0274  -4.6106
     0.3036   1.2430   1.8773   2.1319   2.9451   4.2712   4.4610   4.7163
     4.7939   4.8208   5.6211   5.8467   6.0120   6.7993   6.8709   7.0674
     8.5068   9.7596  10.3438  10.6934  10.7737  10.8210  11.3109  11.4909
    11.7133  12.4554

          k = 0.0000 0.3230 0.0000 (  4119 PWs)   bands (ev):

   -13.7562 -13.7466 -13.7433 -13.7417 -13.7400 -13.7388 -13.7361 -13.7340
   -13.7276 -13.7232 -13.7227 -13.7200 -13.7102 -13.7084 -13.6904 -13.6888
   -13.6835 -13.6832 -13.6745 -13.6687  -5.9608  -5.6379  -5.0375  -4.6111
     0.3281   1.2918   1.9033   2.2282   2.9359   4.2749   4.4334   4.6788
     4.7713   4.8351   5.5863   5.8343   6.0279   6.7454   6.8671   7.0888
     8.4778   9.9324  10.3496  10.6864  10.7742  10.8266  11.3650  11.5910
    11.7103  12.4482

          k = 0.0000 0.2769 0.0000 (  4127 PWs)   bands (ev):

   -13.7569 -13.7469 -13.7440 -13.7414 -13.7403 -13.7386 -13.7357 -13.7338
   -13.7273 -13.7229 -13.7228 -13.7204 -13.7106 -13.7083 -13.6908 -13.6885
   -13.6837 -13.6828 -13.6746 -13.6686  -5.9797  -5.6539  -5.0466  -4.6119
     0.3498   1.3361   1.9243   2.3165   2.9298   4.2834   4.4093   4.6408
     4.7517   4.8503   5.5533   5.8232   6.0443   6.6970   6.8632   7.1062
     8.4516  10.0987  10.3417  10.6593  10.7215  10.8686  11.4161  11.6945
    11.7328  12.4347

          k = 0.0000 0.2307 0.0000 (  4121 PWs)   bands (ev):

   -13.7575 -13.7471 -13.7445 -13.7412 -13.7405 -13.7384 -13.7353 -13.7336
   -13.7270 -13.7230 -13.7225 -13.7208 -13.7109 -13.7082 -13.6910 -13.6883
   -13.6839 -13.6824 -13.6746 -13.6684  -5.9958  -5.6675  -5.0545  -4.6128
     0.3686   1.3749   1.9408   2.3950   2.9262   4.2967   4.3889   4.6027
     4.7350   4.8653   5.5229   5.8137   6.0603   6.6550   6.8594   7.1198
     8.4286  10.2548  10.3250  10.6241  10.6684  10.9005  11.4499  11.7825
    11.7982  12.4156

          k = 0.0000 0.1846 0.0000 (  4121 PWs)   bands (ev):

   -13.7581 -13.7473 -13.7450 -13.7412 -13.7406 -13.7381 -13.7349 -13.7334
   -13.7267 -13.7231 -13.7222 -13.7211 -13.7112 -13.7082 -13.6913 -13.6881
   -13.6841 -13.6821 -13.6747 -13.6683  -6.0090  -5.6788  -5.0611  -4.6137
     0.3841   1.4077   1.9533   2.4622   2.9244   4.3144   4.3721   4.5648
     4.7214   4.8793   5.4960   5.8059   6.0750   6.6198   6.8560   7.1301
     8.4090  10.3041  10.3963  10.5886  10.6195  10.9236  11.4663  11.8493
    11.8975  12.3918

          k = 0.0000 0.1384 0.0000 (  4123 PWs)   bands (ev):

   -13.7585 -13.7475 -13.7454 -13.7413 -13.7405 -13.7379 -13.7347 -13.7333
   -13.7265 -13.7232 -13.7219 -13.7214 -13.7115 -13.7081 -13.6915 -13.6880
   -13.6842 -13.6818 -13.6747 -13.6682  -6.0193  -5.6876  -5.0663  -4.6146
     0.3963   1.4338   1.9624   2.5164   2.9237   4.3362   4.3590   4.5274
     4.7108   4.8914   5.4736   5.7997   6.0876   6.5920   6.8532   7.1374
     8.3933  10.2835  10.5175  10.5577  10.5783  10.9396  11.4728  11.9178
    11.9867  12.3655

          k = 0.0000 0.0923 0.0000 (  4123 PWs)   bands (ev):

   -13.7588 -13.7477 -13.7456 -13.7414 -13.7404 -13.7378 -13.7345 -13.7332
   -13.7263 -13.7233 -13.7217 -13.7216 -13.7116 -13.7081 -13.6916 -13.6879
   -13.6843 -13.6816 -13.6747 -13.6681  -6.0267  -5.6939  -5.0700  -4.6152
     0.4051   1.4528   1.9685   2.5563   2.9236   4.3496   4.3617   4.4908
     4.7032   4.9006   5.4568   5.7952   6.0973   6.5719   6.8511   7.1423
     8.3818  10.2663  10.5341  10.5472  10.6116  10.9502  11.4749  11.9756
    12.0588  12.3404

          k = 0.0000 0.0461 0.0000 (  4125 PWs)   bands (ev):

   -13.7590 -13.7478 -13.7458 -13.7415 -13.7404 -13.7377 -13.7343 -13.7332
   -13.7262 -13.7233 -13.7217 -13.7216 -13.7117 -13.7080 -13.6917 -13.6879
   -13.6844 -13.6815 -13.6747 -13.6681  -6.0312  -5.6977  -5.0723  -4.6156
     0.4104   1.4643   1.9720   2.5808   2.9237   4.3440   4.3902   4.4556
     4.6987   4.9064   5.4463   5.7926   6.1033   6.5597   6.8497   7.1450
     8.3748  10.2551  10.5194  10.5279  10.6715  10.9564  11.4753  12.0139
    12.1065  12.3220

          k = 0.0000 0.0000 0.0000 (  4129 PWs)   bands (ev):

   -13.7590 -13.7478 -13.7458 -13.7415 -13.7404 -13.7377 -13.7343 -13.7332
   -13.7262 -13.7233 -13.7218 -13.7216 -13.7118 -13.7080 -13.6918 -13.6878
   -13.6844 -13.6815 -13.6747 -13.6681  -6.0326  -5.6990  -5.0731  -4.6158
     0.4122   1.4682   1.9732   2.5890   2.9238   4.3421   4.4184   4.4252
     4.6972   4.9083   5.4427   5.7917   6.1054   6.5556   6.8493   7.1459
     8.3724  10.2511  10.5145  10.5214  10.6921  10.9585  11.4753  12.0273
    12.1233  12.3152

     Writing output data file ./tmp/SnSe_pnma.save/

     init_run     :      1.84s CPU      2.29s WALL (       1 calls)
     electrons    :    632.69s CPU    766.61s WALL (       1 calls)

     Called by init_run:
     wfcinit      :      0.00s CPU      0.00s WALL (       1 calls)
     wfcinit:atom :      0.08s CPU      0.12s WALL (      41 calls)
     wfcinit:wfcr :      7.47s CPU      8.31s WALL (      41 calls)
     potinit      :      0.29s CPU      0.34s WALL (       1 calls)
     hinit0       :      1.02s CPU      1.04s WALL (       1 calls)

     Called by electrons:
     c_bands      :    632.67s CPU    766.58s WALL (       1 calls)
     v_of_rho     :      0.22s CPU      0.27s WALL (       1 calls)
     v_h          :      0.02s CPU      0.02s WALL (       1 calls)
     v_xc         :      0.20s CPU      0.25s WALL (       1 calls)
     newd         :      0.47s CPU      0.84s WALL (       1 calls)

     Called by c_bands:
     init_us_2    :      0.12s CPU      0.11s WALL (      41 calls)
     cegterg      :    470.45s CPU    598.81s WALL (     145 calls)

     Called by sum_band:

     Called by *egterg:
     cdiaghg      :     70.78s CPU    186.47s WALL (    2453 calls)
     cegterg:over :     84.90s CPU    119.35s WALL (    2412 calls)
     cegterg:upda :     16.07s CPU     17.36s WALL (    2412 calls)
     cegterg:last :     37.87s CPU     23.80s WALL (    1607 calls)
     h_psi        :    216.13s CPU    216.44s WALL (    2598 calls)
     s_psi        :     22.57s CPU     13.09s WALL (    2598 calls)
     g_psi        :      2.07s CPU      1.67s WALL (    2412 calls)

     Called by h_psi:
     h_psi:calbec :     58.42s CPU     78.34s WALL (    2598 calls)
     vloc_psi     :    133.68s CPU    123.58s WALL (    2598 calls)
     add_vuspsi   :     23.21s CPU     13.43s WALL (    2598 calls)

     General routines
     calbec       :     58.40s CPU     78.33s WALL (    2598 calls)
     fft          :      0.19s CPU      0.22s WALL (      13 calls)
     ffts         :      0.00s CPU      0.00s WALL (       1 calls)
     fftw         :    116.77s CPU    108.02s WALL (  167506 calls)
     interpolate  :      0.02s CPU      0.02s WALL (       1 calls)
     davcio       :      0.04s CPU      0.12s WALL (      82 calls)

     Parallel routines
     fft_scatt_xy :     15.35s CPU     14.01s WALL (  167520 calls)
     fft_scatt_yz :     33.88s CPU     32.18s WALL (  167520 calls)

     PWSCF        :  10m35.06s CPU  12m49.67s WALL


   This run was terminated on:  19:18:53  21May2026            

=------------------------------------------------------------------------------=
   JOB DONE.
=------------------------------------------------------------------------------=
