
     Program PWSCF v.6.7MaX starts on 20May2026 at 20:19:58 

     This program is part of the open-source Quantum ESPRESSO suite
     for quantum simulation of materials; please cite
         "P. Giannozzi et al., J. Phys.:Condens. Matter 21 395502 (2009);
         "P. Giannozzi et al., J. Phys.:Condens. Matter 29 465901 (2017);
          URL http://www.quantum-espresso.org", 
     in publications or presentations arising from this work. More details at
     http://www.quantum-espresso.org/quote

     Parallel version (MPI), running on     1 processors

     MPI processes distributed on     1 nodes
     Waiting for input...
     Reading input from standard input

     Current dimensions of program PWSCF are:
     Max number of different atomic species (ntypx) = 10
     Max number of k-points (npk) =  40000
     Max angular momentum in pseudopotentials (lmaxx) =  3

     gamma-point specific algorithms are used

     Subspace diagonalization in iterative solution of the eigenvalue problem:
     a serial algorithm will be used


     G-vector sticks info
     --------------------
     sticks:   dense  smooth     PW     G-vecs:    dense   smooth      PW
     Sum       22151    8869   2217              2782531   703959   88027



     bravais-lattice index     =            0
     lattice parameter (alat)  =      22.6767  a.u.
     unit-cell volume          =   14738.3625 (a.u.)^3
     number of atoms/cell      =            1
     number of atomic types    =            1
     number of electrons       =         6.00
     number of Kohn-Sham states=            8
     kinetic-energy cutoff     =      50.0000  Ry
     charge density cutoff     =     500.0000  Ry
     scf convergence threshold =      1.0E-07
     mixing beta               =       0.3000
     number of iterations used =            8  plain     mixing
     Exchange-correlation= SLA  PW   PBE  PBE
                           (   1   4   3   4   0   0   0)

     celldm(1)=  22.676713  celldm(2)=   0.000000  celldm(3)=   0.000000
     celldm(4)=   0.000000  celldm(5)=   0.000000  celldm(6)=   0.000000

     crystal axes: (cart. coord. in units of alat)
               a(1) = (   1.000000   0.000000   0.000000 )  
               a(2) = (   0.000000   1.083333   0.000000 )  
               a(3) = (   0.000000   0.000000   1.166667 )  

     reciprocal axes: (cart. coord. in units 2 pi/alat)
               b(1) = (  1.000000  0.000000  0.000000 )  
               b(2) = (  0.000000  0.923077  0.000000 )  
               b(3) = (  0.000000  0.000000  0.857143 )  


     PseudoPot. # 1 for Se read from file:
     ../pseudo/Se_pbe_v1.uspp.F.UPF
     MD5 check sum: 1b3568f3a8ae88f9a2a0ad0698632c85
     Pseudo is Ultrasoft + core correction, Zval =  6.0
     Generated by new atomic code, or converted to UPF format
     Using radial grid of  877 points,  6 beta functions with: 
                l(1) =   0
                l(2) =   0
                l(3) =   1
                l(4) =   1
                l(5) =   2
                l(6) =   2
     Q(r) pseudized with  8 coefficients,  rinner =    1.300   1.300   1.300
                                                       1.300   1.300

     atomic species   valence    mass     pseudopotential
        Se             6.00    78.97100     Se( 1.00)

     Starting magnetic structure 
     atomic species   magnetization
        Se           0.000

     No symmetry found


                                    s                        frac. trans.

      isym =  1     identity                                     

 cryst.   s( 1) = (     1          0          0      )
                  (     0          1          0      )
                  (     0          0          1      )

 cart.    s( 1) = (  1.0000000  0.0000000  0.0000000 )
                  (  0.0000000  1.0000000  0.0000000 )
                  (  0.0000000  0.0000000  1.0000000 )


   Cartesian axes

     site n.     atom                  positions (alat units)
         1           Se  tau(   1) = (   0.5000000   0.5416667   0.5833333  )

   Crystallographic axes

     site n.     atom                  positions (cryst. coord.)
         1           Se  tau(   1) = (  0.5000000  0.5000000  0.5000000  )

     number of k points=     1
                       cart. coord. in units 2pi/alat
        k(    1) = (   0.0000000   0.0000000   0.0000000), wk =   1.0000000

                       cryst. coord.
        k(    1) = (   0.0000000   0.0000000   0.0000000), wk =   1.0000000

     Dense  grid:  1391266 G-vectors     FFT dimensions: ( 162, 180, 192)

     Smooth grid:   351980 G-vectors     FFT dimensions: ( 108, 120, 120)

     Occupations read from input 

      Spin-up

        1.0000   1.0000   1.0000   1.0000   0.0000   0.0000   0.0000   0.0000

      Spin-down

        1.0000   1.0000   0.0000   0.0000   0.0000   0.0000   0.0000   0.0000

     Dynamical RAM for                 wfc:       5.37 MB

     Dynamical RAM for     wfc (w. buffer):      16.11 MB

     Dynamical RAM for           str. fact:      21.23 MB

     Dynamical RAM for           local pot:       0.00 MB

     Dynamical RAM for          nlocal pot:      12.08 MB

     Dynamical RAM for                qrad:       1.79 MB

     Dynamical RAM for          rho,v,vnew:     383.66 MB

     Dynamical RAM for               rhoin:     127.89 MB

     Dynamical RAM for            rho*nmix:     679.33 MB

     Dynamical RAM for           G-vectors:      82.29 MB

     Dynamical RAM for          h,s,v(r/c):       0.01 MB

     Dynamical RAM for          <psi|beta>:       0.00 MB

     Dynamical RAM for                 psi:      10.74 MB

     Dynamical RAM for                hpsi:      10.74 MB

     Dynamical RAM for                spsi:      10.74 MB

     Dynamical RAM for      wfcinit/wfcrot:      10.74 MB

     Dynamical RAM for           addusdens:    3991.06 MB

     Estimated static dynamical RAM per process >       1.59 GB

     Estimated max dynamical RAM per process >       5.48 GB
     Generating pointlists ...
     new r_m :   0.4125 (alat units)  9.3541 (a.u.) for type    1

     Initial potential from superposition of free atoms

     starting charge    5.99993, renormalised to    6.00000

     negative rho (up, down):  5.445E-05 5.445E-05
     Starting wfcs are    4 randomized atomic wfcs +    4 random wfcs

     total cpu time spent up to now is       23.9 secs

     Self-consistent Calculation

     iteration #  1     ecut=    50.00 Ry     beta= 0.30
     Davidson diagonalization with overlap
     ethr =  1.00E-02,  avg # of iterations =  8.0

     Threshold (ethr) on eigenvalues was too large:
     Diagonalizing with lowered threshold

     Davidson diagonalization with overlap
     ethr =  7.56E-04,  avg # of iterations =  2.0

     negative rho (up, down):  1.935E-05 4.081E-05

     total cpu time spent up to now is       63.6 secs

     total energy              =     -43.37210001 Ry
     estimated scf accuracy    <       0.04536392 Ry

     total magnetization       =     2.00 Bohr mag/cell
     absolute magnetization    =     2.00 Bohr mag/cell

     iteration #  2     ecut=    50.00 Ry     beta= 0.30
     Davidson diagonalization with overlap
     ethr =  7.56E-04,  avg # of iterations =  1.0

     negative rho (up, down):  6.728E-05 5.289E-05

     total cpu time spent up to now is       89.5 secs

     total energy              =     -43.38007297 Ry
     estimated scf accuracy    <       0.05599380 Ry

     total magnetization       =     2.00 Bohr mag/cell
     absolute magnetization    =     2.00 Bohr mag/cell

     iteration #  3     ecut=    50.00 Ry     beta= 0.30
     Davidson diagonalization with overlap
     ethr =  7.56E-04,  avg # of iterations =  1.0

     negative rho (up, down):  1.765E-04 8.596E-05

     total cpu time spent up to now is      112.4 secs

     total energy              =     -43.40413447 Ry
     estimated scf accuracy    <       0.02565873 Ry

     total magnetization       =     2.00 Bohr mag/cell
     absolute magnetization    =     2.00 Bohr mag/cell

     iteration #  4     ecut=    50.00 Ry     beta= 0.30
     Davidson diagonalization with overlap
     ethr =  4.28E-04,  avg # of iterations =  2.5

     negative rho (up, down):  1.486E-04 8.130E-05

     total cpu time spent up to now is      134.5 secs

     total energy              =     -43.40710149 Ry
     estimated scf accuracy    <       0.00949295 Ry

     total magnetization       =     2.00 Bohr mag/cell
     absolute magnetization    =     2.01 Bohr mag/cell

     iteration #  5     ecut=    50.00 Ry     beta= 0.30
     Davidson diagonalization with overlap
     ethr =  1.58E-04,  avg # of iterations =  2.0

     negative rho (up, down):  1.068E-04 7.526E-05

     total cpu time spent up to now is      156.4 secs

     total energy              =     -43.40792684 Ry
     estimated scf accuracy    <       0.00437340 Ry

     total magnetization       =     2.00 Bohr mag/cell
     absolute magnetization    =     2.02 Bohr mag/cell

     iteration #  6     ecut=    50.00 Ry     beta= 0.30
     Davidson diagonalization with overlap
     ethr =  7.29E-05,  avg # of iterations =  8.5

     negative rho (up, down):  7.826E-05 7.618E-05

     total cpu time spent up to now is      180.8 secs

     total energy              =     -43.40881280 Ry
     estimated scf accuracy    <       0.00293825 Ry

     total magnetization       =     2.00 Bohr mag/cell
     absolute magnetization    =     2.02 Bohr mag/cell

     iteration #  7     ecut=    50.00 Ry     beta= 0.30
     Davidson diagonalization with overlap
     ethr =  4.90E-05,  avg # of iterations =  1.0

     negative rho (up, down):  6.226E-05 8.060E-05

     total cpu time spent up to now is      202.6 secs

     total energy              =     -43.40926186 Ry
     estimated scf accuracy    <       0.00099825 Ry

     total magnetization       =     2.00 Bohr mag/cell
     absolute magnetization    =     2.02 Bohr mag/cell

     iteration #  8     ecut=    50.00 Ry     beta= 0.30
     Davidson diagonalization with overlap
     ethr =  1.66E-05,  avg # of iterations =  9.0

     negative rho (up, down):  5.579E-05 8.684E-05

     total cpu time spent up to now is      225.0 secs

     total energy              =     -43.40942293 Ry
     estimated scf accuracy    <       0.00024534 Ry

     total magnetization       =     2.00 Bohr mag/cell
     absolute magnetization    =     2.03 Bohr mag/cell

     iteration #  9     ecut=    50.00 Ry     beta= 0.30
     Davidson diagonalization with overlap
     c_bands:  1 eigenvalues not converged
     ethr =  4.09E-06,  avg # of iterations = 15.5

     negative rho (up, down):  5.212E-05 8.947E-05

     total cpu time spent up to now is      248.7 secs

     total energy              =     -43.40946734 Ry
     estimated scf accuracy    <       0.00000749 Ry

     total magnetization       =     2.00 Bohr mag/cell
     absolute magnetization    =     2.03 Bohr mag/cell

     iteration # 10     ecut=    50.00 Ry     beta= 0.30
     Davidson diagonalization with overlap
     ethr =  1.25E-07,  avg # of iterations =  2.0

     negative rho (up, down):  5.085E-05 9.152E-05

     total cpu time spent up to now is      268.8 secs

     total energy              =     -43.40946949 Ry
     estimated scf accuracy    <       0.00000022 Ry

     total magnetization       =     2.00 Bohr mag/cell
     absolute magnetization    =     2.03 Bohr mag/cell

     iteration # 11     ecut=    50.00 Ry     beta= 0.30
     Davidson diagonalization with overlap
     ethr =  3.73E-09,  avg # of iterations =  5.0

     negative rho (up, down):  5.061E-05 9.243E-05

     total cpu time spent up to now is      289.5 secs

     total energy              =     -43.40947004 Ry
     estimated scf accuracy    <       0.00000137 Ry

     total magnetization       =     2.00 Bohr mag/cell
     absolute magnetization    =     2.03 Bohr mag/cell

     iteration # 12     ecut=    50.00 Ry     beta= 0.30
     Davidson diagonalization with overlap
     ethr =  3.73E-09,  avg # of iterations =  2.0

     negative rho (up, down):  5.157E-05 9.631E-05

     Magnetic moment per site:
     atom:    1    charge:    5.9999    magn:    2.0000    constr:    0.0000

     total cpu time spent up to now is      308.9 secs

     End of self-consistent calculation

 ------ SPIN UP ------------


          k = 0.0000 0.0000 0.0000 ( 44014 PWs)   bands (ev):

   -17.8153  -7.3886  -7.3884  -6.2433  -0.5914   0.2693   0.4448   0.5039

     occupation numbers 
     1.0000   1.0000   1.0000   1.0000   0.0000   0.0000   0.0000   0.0000

 ------ SPIN DOWN ----------


          k = 0.0000 0.0000 0.0000 ( 44014 PWs)   bands (ev):

   -16.1210  -5.5869  -5.2549  -5.2548  -0.3639   0.4295   0.4914   0.6257

     occupation numbers 
     1.0000   1.0000   0.0000   0.0000   0.0000   0.0000   0.0000   0.0000

     highest occupied, lowest unoccupied level (ev):    -5.5869   -5.2549

!    total energy              =     -43.40947033 Ry
     estimated scf accuracy    <       0.00000001 Ry

     The total energy is the sum of the following terms:
     one-electron contribution =     -21.08245258 Ry
     hartree contribution      =      11.31071677 Ry
     xc contribution           =     -29.49696824 Ry
     ewald contribution        =      -4.14076628 Ry

     total magnetization       =     2.00 Bohr mag/cell
     absolute magnetization    =     2.03 Bohr mag/cell

     convergence has been achieved in  12 iterations

     Writing output data file ./tmp/Se_atom.save/

     init_run     :     25.34s CPU     23.81s WALL (       1 calls)
     electrons    :    487.14s CPU    285.13s WALL (       1 calls)

     Called by init_run:
     wfcinit      :      1.79s CPU      0.66s WALL (       1 calls)
     wfcinit:atom :      0.02s CPU      0.01s WALL (       2 calls)
     wfcinit:wfcr :      1.67s CPU      0.60s WALL (       2 calls)
     potinit      :      8.53s CPU      8.54s WALL (       1 calls)
     hinit0       :      7.79s CPU      8.07s WALL (       1 calls)

     Called by electrons:
     c_bands      :     82.03s CPU     28.80s WALL (      13 calls)
     sum_band     :    248.26s CPU    116.42s WALL (      13 calls)
     v_of_rho     :     67.09s CPU     67.27s WALL (      13 calls)
     v_h          :      2.27s CPU      2.32s WALL (      13 calls)
     v_xc         :     64.82s CPU     64.95s WALL (      13 calls)
     newd         :     81.21s CPU     68.81s WALL (      13 calls)
     mix_rho      :      8.32s CPU      8.41s WALL (      13 calls)

     Called by c_bands:
     init_us_2    :      1.29s CPU      0.62s WALL (      54 calls)
     regterg      :     79.03s CPU     27.36s WALL (      26 calls)

     Called by sum_band:
     sum_band:wei :      0.00s CPU      0.00s WALL (      13 calls)
     sum_band:loo :      8.28s CPU      4.21s WALL (      13 calls)
     sum_band:buf :      0.06s CPU      0.03s WALL (      26 calls)
     sum_band:ini :      0.69s CPU      0.32s WALL (      26 calls)
     sum_band:cal :      0.62s CPU      0.13s WALL (      26 calls)
     sum_band:bec :      0.00s CPU      0.00s WALL (      26 calls)
     addusdens    :    231.77s CPU    106.39s WALL (      13 calls)
     addusd:skk   :      0.05s CPU      0.07s WALL (      13 calls)
     addusd:dgemm :    146.58s CPU     20.52s WALL (      26 calls)
     addusd:qvan2 :     78.36s CPU     72.96s WALL (      26 calls)

     Called by *egterg:
     rdiaghg      :      0.10s CPU      0.03s WALL (     143 calls)
     regterg:over :      3.21s CPU      0.90s WALL (     119 calls)
     regterg:upda :      1.10s CPU      0.23s WALL (     119 calls)
     regterg:last :      2.01s CPU      0.42s WALL (      62 calls)
     h_psi        :     70.79s CPU     25.38s WALL (     147 calls)
     s_psi        :      0.97s CPU      0.18s WALL (     147 calls)
     g_psi        :      0.50s CPU      0.18s WALL (     119 calls)

     Called by h_psi:
     h_psi:calbec :      2.91s CPU      0.77s WALL (     147 calls)
     vloc_psi     :     66.66s CPU     24.34s WALL (     147 calls)
     add_vuspsi   :      1.00s CPU      0.18s WALL (     147 calls)

     General routines
     calbec       :      3.52s CPU      0.90s WALL (     173 calls)
     fft          :     48.42s CPU     33.52s WALL (     268 calls)
     ffts         :      5.59s CPU      2.13s WALL (      52 calls)
     fftw         :     55.81s CPU     20.66s WALL (     782 calls)
     interpolate  :     11.43s CPU      5.62s WALL (      26 calls)

     Parallel routines

     PWSCF        :   8m32.61s CPU   5m 9.29s WALL


   This run was terminated on:  20:25: 7  20May2026            

=------------------------------------------------------------------------------=
   JOB DONE.
=------------------------------------------------------------------------------=
