
     Program PWSCF v.6.7MaX starts on 20May2026 at 18:33:46 

     This program is part of the open-source Quantum ESPRESSO suite
     for quantum simulation of materials; please cite
         "P. Giannozzi et al., J. Phys.:Condens. Matter 21 395502 (2009);
         "P. Giannozzi et al., J. Phys.:Condens. Matter 29 465901 (2017);
          URL http://www.quantum-espresso.org", 
     in publications or presentations arising from this work. More details at
     http://www.quantum-espresso.org/quote

     Parallel version (MPI), running on     1 processors

     MPI processes distributed on     1 nodes
     Waiting for input...
     Reading input from standard input

     Current dimensions of program PWSCF are:
     Max number of different atomic species (ntypx) = 10
     Max number of k-points (npk) =  40000
     Max angular momentum in pseudopotentials (lmaxx) =  3

     gamma-point specific algorithms are used

     Subspace diagonalization in iterative solution of the eigenvalue problem:
     a serial algorithm will be used


     G-vector sticks info
     --------------------
     sticks:   dense  smooth     PW     G-vecs:    dense   smooth      PW
     Sum       22151    8869   2217              2782531   703959   88027



     bravais-lattice index     =            0
     lattice parameter (alat)  =      22.6767  a.u.
     unit-cell volume          =   14738.3625 (a.u.)^3
     number of atoms/cell      =            1
     number of atomic types    =            1
     number of electrons       =        14.00
     number of Kohn-Sham states=           12
     kinetic-energy cutoff     =      50.0000  Ry
     charge density cutoff     =     500.0000  Ry
     scf convergence threshold =      1.0E-07
     mixing beta               =       0.3000
     number of iterations used =            8  plain     mixing
     Exchange-correlation= SLA  PW   PBE  PBE
                           (   1   4   3   4   0   0   0)

     celldm(1)=  22.676713  celldm(2)=   0.000000  celldm(3)=   0.000000
     celldm(4)=   0.000000  celldm(5)=   0.000000  celldm(6)=   0.000000

     crystal axes: (cart. coord. in units of alat)
               a(1) = (   1.000000   0.000000   0.000000 )  
               a(2) = (   0.000000   1.083333   0.000000 )  
               a(3) = (   0.000000   0.000000   1.166667 )  

     reciprocal axes: (cart. coord. in units 2 pi/alat)
               b(1) = (  1.000000  0.000000  0.000000 )  
               b(2) = (  0.000000  0.923077  0.000000 )  
               b(3) = (  0.000000  0.000000  0.857143 )  


     PseudoPot. # 1 for Sn read from file:
     ../pseudo/Sn_pbe_v1.uspp.F.UPF
     MD5 check sum: 4cf58ce39ec5d5d420df3dd08604eb00
     Pseudo is Ultrasoft + core correction, Zval = 14.0
     Generated by new atomic code, or converted to UPF format
     Using radial grid of  891 points,  6 beta functions with: 
                l(1) =   0
                l(2) =   0
                l(3) =   1
                l(4) =   1
                l(5) =   2
                l(6) =   2
     Q(r) pseudized with  6 coefficients,  rinner =    1.200   1.200   1.200
                                                       1.200   1.200

     atomic species   valence    mass     pseudopotential
        Sn            14.00   118.71000     Sn( 1.00)

     Starting magnetic structure 
     atomic species   magnetization
        Sn           0.000

     No symmetry found


                                    s                        frac. trans.

      isym =  1     identity                                     

 cryst.   s( 1) = (     1          0          0      )
                  (     0          1          0      )
                  (     0          0          1      )

 cart.    s( 1) = (  1.0000000  0.0000000  0.0000000 )
                  (  0.0000000  1.0000000  0.0000000 )
                  (  0.0000000  0.0000000  1.0000000 )


   Cartesian axes

     site n.     atom                  positions (alat units)
         1           Sn  tau(   1) = (   0.5000000   0.5416667   0.5833333  )

   Crystallographic axes

     site n.     atom                  positions (cryst. coord.)
         1           Sn  tau(   1) = (  0.5000000  0.5000000  0.5000000  )

     number of k points=     1
                       cart. coord. in units 2pi/alat
        k(    1) = (   0.0000000   0.0000000   0.0000000), wk =   1.0000000

                       cryst. coord.
        k(    1) = (   0.0000000   0.0000000   0.0000000), wk =   1.0000000

     Dense  grid:  1391266 G-vectors     FFT dimensions: ( 162, 180, 192)

     Smooth grid:   351980 G-vectors     FFT dimensions: ( 108, 120, 120)

     Occupations read from input 

      Spin-up

        1.0000   1.0000   1.0000   1.0000   1.0000   1.0000   1.0000   1.0000
        0.0000   0.0000   0.0000   0.0000

      Spin-down

        1.0000   1.0000   1.0000   1.0000   1.0000   1.0000   0.0000   0.0000
        0.0000   0.0000   0.0000   0.0000

     Dynamical RAM for                 wfc:       8.06 MB

     Dynamical RAM for     wfc (w. buffer):      24.17 MB

     Dynamical RAM for           str. fact:      21.23 MB

     Dynamical RAM for           local pot:       0.00 MB

     Dynamical RAM for          nlocal pot:      12.08 MB

     Dynamical RAM for                qrad:       1.79 MB

     Dynamical RAM for          rho,v,vnew:     383.66 MB

     Dynamical RAM for               rhoin:     127.89 MB

     Dynamical RAM for            rho*nmix:     679.33 MB

     Dynamical RAM for           G-vectors:      82.29 MB

     Dynamical RAM for          h,s,v(r/c):       0.01 MB

     Dynamical RAM for          <psi|beta>:       0.00 MB

     Dynamical RAM for                 psi:      16.11 MB

     Dynamical RAM for                hpsi:      16.11 MB

     Dynamical RAM for                spsi:      16.11 MB

     Dynamical RAM for      wfcinit/wfcrot:      16.12 MB

     Dynamical RAM for           addusdens:    3991.06 MB

     Estimated static dynamical RAM per process >       1.59 GB

     Estimated max dynamical RAM per process >       5.49 GB
     Generating pointlists ...
     new r_m :   0.4125 (alat units)  9.3541 (a.u.) for type    1

     Initial potential from superposition of free atoms

     starting charge   12.99995, renormalised to   14.00000

     negative rho (up, down):  3.163E-03 3.163E-03
     Starting wfcs are    9 randomized atomic wfcs +    3 random wfcs

     total cpu time spent up to now is       21.1 secs

     Self-consistent Calculation

     iteration #  1     ecut=    50.00 Ry     beta= 0.30
     Davidson diagonalization with overlap
     ethr =  1.00E-02,  avg # of iterations =  6.0

     negative rho (up, down):  5.380E-04 2.142E-03

     total cpu time spent up to now is       45.2 secs

     total energy              =    -162.97129206 Ry
     estimated scf accuracy    <       1.35058214 Ry

     total magnetization       =     2.00 Bohr mag/cell
     absolute magnetization    =     2.00 Bohr mag/cell

     iteration #  2     ecut=    50.00 Ry     beta= 0.30
     Davidson diagonalization with overlap
     ethr =  9.65E-03,  avg # of iterations =  1.0

     negative rho (up, down):  4.117E-04 1.666E-03

     total cpu time spent up to now is       68.0 secs

     total energy              =    -162.91377588 Ry
     estimated scf accuracy    <       0.25657661 Ry

     total magnetization       =     2.00 Bohr mag/cell
     absolute magnetization    =     2.01 Bohr mag/cell

     iteration #  3     ecut=    50.00 Ry     beta= 0.30
     Davidson diagonalization with overlap
     ethr =  1.83E-03,  avg # of iterations =  2.0

     negative rho (up, down):  3.420E-04 1.358E-03

     total cpu time spent up to now is       89.8 secs

     total energy              =    -163.00269747 Ry
     estimated scf accuracy    <       0.00773540 Ry

     total magnetization       =     2.00 Bohr mag/cell
     absolute magnetization    =     2.01 Bohr mag/cell

     iteration #  4     ecut=    50.00 Ry     beta= 0.30
     Davidson diagonalization with overlap
     ethr =  5.53E-05,  avg # of iterations = 12.0

     negative rho (up, down):  7.229E-04 1.321E-03

     total cpu time spent up to now is      112.4 secs

     total energy              =    -163.00796740 Ry
     estimated scf accuracy    <       0.00401412 Ry

     total magnetization       =     2.00 Bohr mag/cell
     absolute magnetization    =     2.01 Bohr mag/cell

     iteration #  5     ecut=    50.00 Ry     beta= 0.30
     Davidson diagonalization with overlap
     ethr =  2.87E-05,  avg # of iterations =  3.0

     negative rho (up, down):  5.618E-04 1.082E-03

     total cpu time spent up to now is      133.6 secs

     total energy              =    -163.00778775 Ry
     estimated scf accuracy    <       0.00133885 Ry

     total magnetization       =     2.00 Bohr mag/cell
     absolute magnetization    =     2.02 Bohr mag/cell

     iteration #  6     ecut=    50.00 Ry     beta= 0.30
     Davidson diagonalization with overlap
     ethr =  9.56E-06,  avg # of iterations =  7.5

     negative rho (up, down):  5.097E-04 9.588E-04

     total cpu time spent up to now is      155.1 secs

     total energy              =    -163.00822966 Ry
     estimated scf accuracy    <       0.00004259 Ry

     total magnetization       =     2.00 Bohr mag/cell
     absolute magnetization    =     2.02 Bohr mag/cell

     iteration #  7     ecut=    50.00 Ry     beta= 0.30
     Davidson diagonalization with overlap
     ethr =  3.04E-07,  avg # of iterations =  6.5

     negative rho (up, down):  4.819E-04 8.778E-04

     total cpu time spent up to now is      176.2 secs

     total energy              =    -163.00820829 Ry
     estimated scf accuracy    <       0.00001662 Ry

     total magnetization       =     2.00 Bohr mag/cell
     absolute magnetization    =     2.02 Bohr mag/cell

     iteration #  8     ecut=    50.00 Ry     beta= 0.30
     Davidson diagonalization with overlap
     ethr =  1.19E-07,  avg # of iterations =  2.0

     negative rho (up, down):  4.449E-04 8.184E-04

     total cpu time spent up to now is      196.8 secs

     total energy              =    -163.00820854 Ry
     estimated scf accuracy    <       0.00000148 Ry

     total magnetization       =     2.00 Bohr mag/cell
     absolute magnetization    =     2.02 Bohr mag/cell

     iteration #  9     ecut=    50.00 Ry     beta= 0.30
     Davidson diagonalization with overlap
     ethr =  1.06E-08,  avg # of iterations =  2.0

     negative rho (up, down):  4.257E-04 7.791E-04

     total cpu time spent up to now is      219.5 secs

     total energy              =    -163.00820820 Ry
     estimated scf accuracy    <       0.00000089 Ry

     total magnetization       =     2.00 Bohr mag/cell
     absolute magnetization    =     2.02 Bohr mag/cell

     iteration # 10     ecut=    50.00 Ry     beta= 0.30
     Davidson diagonalization with overlap
     ethr =  6.37E-09,  avg # of iterations =  1.5

     negative rho (up, down):  4.118E-04 7.519E-04

     total cpu time spent up to now is      240.9 secs

     total energy              =    -163.00820177 Ry
     estimated scf accuracy    <       0.00000088 Ry

     total magnetization       =     2.00 Bohr mag/cell
     absolute magnetization    =     2.02 Bohr mag/cell

     iteration # 11     ecut=    50.00 Ry     beta= 0.30
     Davidson diagonalization with overlap
     ethr =  6.27E-09,  avg # of iterations =  2.0

     negative rho (up, down):  3.982E-04 7.324E-04

     total cpu time spent up to now is      262.6 secs

     total energy              =    -163.00819540 Ry
     estimated scf accuracy    <       0.00000122 Ry

     total magnetization       =     2.00 Bohr mag/cell
     absolute magnetization    =     2.02 Bohr mag/cell

     iteration # 12     ecut=    50.00 Ry     beta= 0.30
     Davidson diagonalization with overlap
     ethr =  6.27E-09,  avg # of iterations =  3.0

     negative rho (up, down):  3.914E-04 7.195E-04

     total cpu time spent up to now is      283.4 secs

     total energy              =    -163.00820039 Ry
     estimated scf accuracy    <       0.00000044 Ry

     total magnetization       =     2.00 Bohr mag/cell
     absolute magnetization    =     2.02 Bohr mag/cell

     iteration # 13     ecut=    50.00 Ry     beta= 0.30
     Davidson diagonalization with overlap
     ethr =  3.13E-09,  avg # of iterations =  1.5

     negative rho (up, down):  3.866E-04 7.105E-04

     total cpu time spent up to now is      304.0 secs

     total energy              =    -163.00819778 Ry
     estimated scf accuracy    <       0.00000045 Ry

     total magnetization       =     2.00 Bohr mag/cell
     absolute magnetization    =     2.02 Bohr mag/cell

     iteration # 14     ecut=    50.00 Ry     beta= 0.30
     Davidson diagonalization with overlap
     ethr =  3.13E-09,  avg # of iterations =  2.5

     negative rho (up, down):  3.829E-04 7.044E-04

     total cpu time spent up to now is      325.4 secs

     total energy              =    -163.00818064 Ry
     estimated scf accuracy    <       0.00000035 Ry

     total magnetization       =     2.00 Bohr mag/cell
     absolute magnetization    =     2.02 Bohr mag/cell

     iteration # 15     ecut=    50.00 Ry     beta= 0.30
     Davidson diagonalization with overlap
     ethr =  2.47E-09,  avg # of iterations =  4.0

     negative rho (up, down):  3.806E-04 7.000E-04

     total cpu time spent up to now is      346.6 secs

     total energy              =    -163.00819137 Ry
     estimated scf accuracy    <       0.00000054 Ry

     total magnetization       =     2.00 Bohr mag/cell
     absolute magnetization    =     2.02 Bohr mag/cell

     iteration # 16     ecut=    50.00 Ry     beta= 0.30
     Davidson diagonalization with overlap
     ethr =  2.47E-09,  avg # of iterations =  3.0

     negative rho (up, down):  3.791E-04 6.970E-04

     total cpu time spent up to now is      368.8 secs

     total energy              =    -163.00819336 Ry
     estimated scf accuracy    <       0.00000073 Ry

     total magnetization       =     2.00 Bohr mag/cell
     absolute magnetization    =     2.02 Bohr mag/cell

     iteration # 17     ecut=    50.00 Ry     beta= 0.30
     Davidson diagonalization with overlap
     ethr =  2.47E-09,  avg # of iterations =  1.0

     negative rho (up, down):  3.785E-04 6.950E-04

     total cpu time spent up to now is      390.1 secs

     total energy              =    -163.00818806 Ry
     estimated scf accuracy    <       0.00000076 Ry

     total magnetization       =     2.00 Bohr mag/cell
     absolute magnetization    =     2.02 Bohr mag/cell

     iteration # 18     ecut=    50.00 Ry     beta= 0.30
     Davidson diagonalization with overlap
     ethr =  2.47E-09,  avg # of iterations =  3.0

     negative rho (up, down):  3.763E-04 6.933E-04

     total cpu time spent up to now is      412.4 secs

     total energy              =    -163.00818987 Ry
     estimated scf accuracy    <       0.00000194 Ry

     total magnetization       =     2.00 Bohr mag/cell
     absolute magnetization    =     2.02 Bohr mag/cell

     iteration # 19     ecut=    50.00 Ry     beta= 0.30
     Davidson diagonalization with overlap
     ethr =  2.47E-09,  avg # of iterations =  3.0

     negative rho (up, down):  3.759E-04 6.923E-04

     total cpu time spent up to now is      433.8 secs

     total energy              =    -163.00819245 Ry
     estimated scf accuracy    <       0.00000039 Ry

     total magnetization       =     2.00 Bohr mag/cell
     absolute magnetization    =     2.02 Bohr mag/cell

     iteration # 20     ecut=    50.00 Ry     beta= 0.30
     Davidson diagonalization with overlap
     ethr =  2.47E-09,  avg # of iterations =  2.5

     negative rho (up, down):  3.762E-04 6.918E-04

     total cpu time spent up to now is      455.9 secs

     total energy              =    -163.00819245 Ry
     estimated scf accuracy    <       0.00000018 Ry

     total magnetization       =     2.00 Bohr mag/cell
     absolute magnetization    =     2.02 Bohr mag/cell

     iteration # 21     ecut=    50.00 Ry     beta= 0.30
     Davidson diagonalization with overlap
     ethr =  1.27E-09,  avg # of iterations =  2.5

     negative rho (up, down):  3.761E-04 6.912E-04

     total cpu time spent up to now is      477.2 secs

     total energy              =    -163.00818830 Ry
     estimated scf accuracy    <       0.00000112 Ry

     total magnetization       =     2.00 Bohr mag/cell
     absolute magnetization    =     2.02 Bohr mag/cell

     iteration # 22     ecut=    50.00 Ry     beta= 0.30
     Davidson diagonalization with overlap
     ethr =  1.27E-09,  avg # of iterations =  4.0

     negative rho (up, down):  3.755E-04 6.909E-04

     total cpu time spent up to now is      498.9 secs

     total energy              =    -163.00812252 Ry
     estimated scf accuracy    <       0.00000135 Ry

     total magnetization       =     2.00 Bohr mag/cell
     absolute magnetization    =     2.02 Bohr mag/cell

     iteration # 23     ecut=    50.00 Ry     beta= 0.30
     Davidson diagonalization with overlap
     ethr =  1.27E-09,  avg # of iterations =  5.0

     negative rho (up, down):  3.780E-04 6.908E-04

     total cpu time spent up to now is      521.3 secs

     total energy              =    -163.00811076 Ry
     estimated scf accuracy    <       0.00000074 Ry

     total magnetization       =     2.00 Bohr mag/cell
     absolute magnetization    =     2.02 Bohr mag/cell

     iteration # 24     ecut=    50.00 Ry     beta= 0.30
     Davidson diagonalization with overlap
     ethr =  1.27E-09,  avg # of iterations =  5.0

     negative rho (up, down):  3.768E-04 6.906E-04

     total cpu time spent up to now is      543.8 secs

     total energy              =    -163.00818051 Ry
     estimated scf accuracy    <       0.00002672 Ry

     total magnetization       =     2.00 Bohr mag/cell
     absolute magnetization    =     2.02 Bohr mag/cell

     iteration # 25     ecut=    50.00 Ry     beta= 0.30
     Davidson diagonalization with overlap
     ethr =  1.27E-09,  avg # of iterations =  3.5

     negative rho (up, down):  3.921E-04 6.906E-04

     total cpu time spent up to now is      565.3 secs

     total energy              =    -163.00804300 Ry
     estimated scf accuracy    <       0.00001784 Ry

     total magnetization       =     2.00 Bohr mag/cell
     absolute magnetization    =     2.02 Bohr mag/cell

     iteration # 26     ecut=    50.00 Ry     beta= 0.30
     Davidson diagonalization with overlap
     ethr =  1.27E-09,  avg # of iterations =  5.0

     negative rho (up, down):  3.758E-04 6.905E-04

     total cpu time spent up to now is      587.8 secs

     total energy              =    -163.00780377 Ry
     estimated scf accuracy    <       0.00012917 Ry

     total magnetization       =     2.00 Bohr mag/cell
     absolute magnetization    =     2.02 Bohr mag/cell

     iteration # 27     ecut=    50.00 Ry     beta= 0.30
     Davidson diagonalization with overlap
     ethr =  1.27E-09,  avg # of iterations =  5.0

     negative rho (up, down):  3.765E-04 6.904E-04

     total cpu time spent up to now is      610.4 secs

     total energy              =    -163.00817613 Ry
     estimated scf accuracy    <       0.00000150 Ry

     total magnetization       =     2.00 Bohr mag/cell
     absolute magnetization    =     2.02 Bohr mag/cell

     iteration # 28     ecut=    50.00 Ry     beta= 0.30
     Davidson diagonalization with overlap
     ethr =  1.27E-09,  avg # of iterations =  4.0

     negative rho (up, down):  3.767E-04 6.904E-04

     total cpu time spent up to now is      632.5 secs

     total energy              =    -163.00819311 Ry
     estimated scf accuracy    <       0.00000450 Ry

     total magnetization       =     2.00 Bohr mag/cell
     absolute magnetization    =     2.02 Bohr mag/cell

     iteration # 29     ecut=    50.00 Ry     beta= 0.30
     Davidson diagonalization with overlap
     ethr =  1.27E-09,  avg # of iterations =  3.0

     negative rho (up, down):  3.765E-04 6.904E-04

     total cpu time spent up to now is      653.9 secs

     total energy              =    -163.00819388 Ry
     estimated scf accuracy    <       0.00000486 Ry

     total magnetization       =     2.00 Bohr mag/cell
     absolute magnetization    =     2.02 Bohr mag/cell

     iteration # 30     ecut=    50.00 Ry     beta= 0.30
     Davidson diagonalization with overlap
     ethr =  1.27E-09,  avg # of iterations =  1.5

     negative rho (up, down):  3.781E-04 6.904E-04

     total cpu time spent up to now is      674.5 secs

     total energy              =    -163.00818364 Ry
     estimated scf accuracy    <       0.00000499 Ry

     total magnetization       =     2.00 Bohr mag/cell
     absolute magnetization    =     2.02 Bohr mag/cell

     iteration # 31     ecut=    50.00 Ry     beta= 0.30
     Davidson diagonalization with overlap
     ethr =  1.27E-09,  avg # of iterations =  4.0

     negative rho (up, down):  3.794E-04 6.904E-04

     total cpu time spent up to now is      696.8 secs

     total energy              =    -163.00818116 Ry
     estimated scf accuracy    <       0.00001757 Ry

     total magnetization       =     2.00 Bohr mag/cell
     absolute magnetization    =     2.02 Bohr mag/cell

     iteration # 32     ecut=    50.00 Ry     beta= 0.30
     Davidson diagonalization with overlap
     ethr =  1.27E-09,  avg # of iterations =  4.0

     negative rho (up, down):  3.792E-04 6.904E-04

     total cpu time spent up to now is      720.9 secs

     total energy              =    -163.00819912 Ry
     estimated scf accuracy    <       0.00002217 Ry

     total magnetization       =     2.00 Bohr mag/cell
     absolute magnetization    =     2.02 Bohr mag/cell

     iteration # 33     ecut=    50.00 Ry     beta= 0.30
     Davidson diagonalization with overlap
     ethr =  1.27E-09,  avg # of iterations =  2.5

     negative rho (up, down):  3.793E-04 6.903E-04

     total cpu time spent up to now is      742.7 secs

     total energy              =    -163.00819911 Ry
     estimated scf accuracy    <       0.00001820 Ry

     total magnetization       =     2.00 Bohr mag/cell
     absolute magnetization    =     2.02 Bohr mag/cell

     iteration # 34     ecut=    50.00 Ry     beta= 0.30
     Davidson diagonalization with overlap
     ethr =  1.27E-09,  avg # of iterations =  2.5

     negative rho (up, down):  3.798E-04 6.904E-04

     total cpu time spent up to now is      764.3 secs

     total energy              =    -163.00819891 Ry
     estimated scf accuracy    <       0.00002068 Ry

     total magnetization       =     2.00 Bohr mag/cell
     absolute magnetization    =     2.02 Bohr mag/cell

     iteration # 35     ecut=    50.00 Ry     beta= 0.30
     Davidson diagonalization with overlap
     ethr =  1.27E-09,  avg # of iterations =  2.5

     negative rho (up, down):  3.755E-04 6.904E-04

     total cpu time spent up to now is      785.9 secs

     total energy              =    -163.00778100 Ry
     estimated scf accuracy    <       0.00002486 Ry

     total magnetization       =     2.00 Bohr mag/cell
     absolute magnetization    =     2.02 Bohr mag/cell

     iteration # 36     ecut=    50.00 Ry     beta= 0.30
     Davidson diagonalization with overlap
     ethr =  1.27E-09,  avg # of iterations =  5.0

     negative rho (up, down):  3.751E-04 6.904E-04

     total cpu time spent up to now is      810.8 secs

     total energy              =    -163.00818462 Ry
     estimated scf accuracy    <       0.00000147 Ry

     total magnetization       =     2.00 Bohr mag/cell
     absolute magnetization    =     2.02 Bohr mag/cell

     iteration # 37     ecut=    50.00 Ry     beta= 0.30
     Davidson diagonalization with overlap
     ethr =  1.27E-09,  avg # of iterations =  3.0

     negative rho (up, down):  3.746E-04 6.904E-04

     total cpu time spent up to now is      833.4 secs

     total energy              =    -163.00814483 Ry
     estimated scf accuracy    <       0.00000457 Ry

     total magnetization       =     2.00 Bohr mag/cell
     absolute magnetization    =     2.02 Bohr mag/cell

     iteration # 38     ecut=    50.00 Ry     beta= 0.30
     Davidson diagonalization with overlap
     ethr =  1.27E-09,  avg # of iterations =  5.0

     negative rho (up, down):  3.746E-04 6.904E-04

     total cpu time spent up to now is      855.8 secs

     total energy              =    -163.00818716 Ry
     estimated scf accuracy    <       0.00002710 Ry

     total magnetization       =     2.00 Bohr mag/cell
     absolute magnetization    =     2.02 Bohr mag/cell

     iteration # 39     ecut=    50.00 Ry     beta= 0.30
     Davidson diagonalization with overlap
     ethr =  1.27E-09,  avg # of iterations =  2.5

     negative rho (up, down):  3.750E-04 6.904E-04

     total cpu time spent up to now is      877.6 secs

     total energy              =    -163.00816833 Ry
     estimated scf accuracy    <       0.00002807 Ry

     total magnetization       =     2.00 Bohr mag/cell
     absolute magnetization    =     2.02 Bohr mag/cell

     iteration # 40     ecut=    50.00 Ry     beta= 0.30
     Davidson diagonalization with overlap
     ethr =  1.27E-09,  avg # of iterations =  4.0

     negative rho (up, down):  3.760E-04 6.904E-04

     total cpu time spent up to now is      900.0 secs

     total energy              =    -163.00818992 Ry
     estimated scf accuracy    <       0.00002997 Ry

     total magnetization       =     2.00 Bohr mag/cell
     absolute magnetization    =     2.02 Bohr mag/cell

     iteration # 41     ecut=    50.00 Ry     beta= 0.30
     Davidson diagonalization with overlap
     ethr =  1.27E-09,  avg # of iterations =  4.0

     negative rho (up, down):  3.762E-04 6.904E-04

     total cpu time spent up to now is      922.9 secs

     total energy              =    -163.00816951 Ry
     estimated scf accuracy    <       0.00000272 Ry

     total magnetization       =     2.00 Bohr mag/cell
     absolute magnetization    =     2.02 Bohr mag/cell

     iteration # 42     ecut=    50.00 Ry     beta= 0.30
     Davidson diagonalization with overlap
     ethr =  1.27E-09,  avg # of iterations =  4.0

     negative rho (up, down):  3.763E-04 6.903E-04

     total cpu time spent up to now is      944.9 secs

     total energy              =    -163.00818715 Ry
     estimated scf accuracy    <       0.00000918 Ry

     total magnetization       =     2.00 Bohr mag/cell
     absolute magnetization    =     2.02 Bohr mag/cell

     iteration # 43     ecut=    50.00 Ry     beta= 0.30
     Davidson diagonalization with overlap
     ethr =  1.27E-09,  avg # of iterations =  4.0

     negative rho (up, down):  3.767E-04 6.903E-04

     total cpu time spent up to now is      967.1 secs

     total energy              =    -163.00819381 Ry
     estimated scf accuracy    <       0.00000362 Ry

     total magnetization       =     2.00 Bohr mag/cell
     absolute magnetization    =     2.02 Bohr mag/cell

     iteration # 44     ecut=    50.00 Ry     beta= 0.30
     Davidson diagonalization with overlap
     ethr =  1.27E-09,  avg # of iterations =  3.0

     negative rho (up, down):  3.762E-04 6.903E-04

     total cpu time spent up to now is      989.7 secs

     total energy              =    -163.00815099 Ry
     estimated scf accuracy    <       0.00000413 Ry

     total magnetization       =     2.00 Bohr mag/cell
     absolute magnetization    =     2.02 Bohr mag/cell

     iteration # 45     ecut=    50.00 Ry     beta= 0.30
     Davidson diagonalization with overlap
     ethr =  1.27E-09,  avg # of iterations =  4.5

     negative rho (up, down):  3.758E-04 6.903E-04

     total cpu time spent up to now is     1013.1 secs

     total energy              =    -163.00818618 Ry
     estimated scf accuracy    <       0.00000488 Ry

     total magnetization       =     2.00 Bohr mag/cell
     absolute magnetization    =     2.02 Bohr mag/cell

     iteration # 46     ecut=    50.00 Ry     beta= 0.30
     Davidson diagonalization with overlap
     ethr =  1.27E-09,  avg # of iterations =  4.0

     negative rho (up, down):  3.758E-04 6.903E-04

     total cpu time spent up to now is     1035.8 secs

     total energy              =    -163.00819185 Ry
     estimated scf accuracy    <       0.00000263 Ry

     total magnetization       =     2.00 Bohr mag/cell
     absolute magnetization    =     2.02 Bohr mag/cell

     iteration # 47     ecut=    50.00 Ry     beta= 0.30
     Davidson diagonalization with overlap
     ethr =  1.27E-09,  avg # of iterations =  3.0

     negative rho (up, down):  3.756E-04 6.904E-04

     total cpu time spent up to now is     1058.0 secs

     total energy              =    -163.00819008 Ry
     estimated scf accuracy    <       0.00000213 Ry

     total magnetization       =     2.00 Bohr mag/cell
     absolute magnetization    =     2.02 Bohr mag/cell

     iteration # 48     ecut=    50.00 Ry     beta= 0.30
     Davidson diagonalization with overlap
     ethr =  1.27E-09,  avg # of iterations =  3.5

     negative rho (up, down):  3.767E-04 6.903E-04

     total cpu time spent up to now is     1079.6 secs

     total energy              =    -163.00818952 Ry
     estimated scf accuracy    <       0.00000531 Ry

     total magnetization       =     2.00 Bohr mag/cell
     absolute magnetization    =     2.02 Bohr mag/cell

     iteration # 49     ecut=    50.00 Ry     beta= 0.30
     Davidson diagonalization with overlap
     ethr =  1.27E-09,  avg # of iterations =  4.0

     negative rho (up, down):  3.757E-04 6.902E-04

     total cpu time spent up to now is     1101.3 secs

     total energy              =    -163.00815216 Ry
     estimated scf accuracy    <       0.00000544 Ry

     total magnetization       =     2.00 Bohr mag/cell
     absolute magnetization    =     2.02 Bohr mag/cell

     iteration # 50     ecut=    50.00 Ry     beta= 0.30
     Davidson diagonalization with overlap
     ethr =  1.27E-09,  avg # of iterations =  4.0

     negative rho (up, down):  3.775E-04 6.903E-04

     total cpu time spent up to now is     1123.8 secs

     total energy              =    -163.00814919 Ry
     estimated scf accuracy    <       0.00000267 Ry

     total magnetization       =     2.00 Bohr mag/cell
     absolute magnetization    =     2.02 Bohr mag/cell

     iteration # 51     ecut=    50.00 Ry     beta= 0.30
     Davidson diagonalization with overlap
     ethr =  1.27E-09,  avg # of iterations =  4.5

     negative rho (up, down):  3.765E-04 6.902E-04

     total cpu time spent up to now is     1146.7 secs

     total energy              =    -163.00790589 Ry
     estimated scf accuracy    <       0.00001365 Ry

     total magnetization       =     2.00 Bohr mag/cell
     absolute magnetization    =     2.02 Bohr mag/cell

     iteration # 52     ecut=    50.00 Ry     beta= 0.30
     Davidson diagonalization with overlap
     ethr =  1.27E-09,  avg # of iterations =  5.0

     negative rho (up, down):  3.794E-04 6.903E-04

     total cpu time spent up to now is     1169.9 secs

     total energy              =    -163.00813933 Ry
     estimated scf accuracy    <       0.00001654 Ry

     total magnetization       =     2.00 Bohr mag/cell
     absolute magnetization    =     2.02 Bohr mag/cell

     iteration # 53     ecut=    50.00 Ry     beta= 0.30
     Davidson diagonalization with overlap
     ethr =  1.27E-09,  avg # of iterations =  4.5

     negative rho (up, down):  3.748E-04 6.903E-04

     total cpu time spent up to now is     1192.4 secs

     total energy              =    -163.00807427 Ry
     estimated scf accuracy    <       0.00004678 Ry

     total magnetization       =     2.00 Bohr mag/cell
     absolute magnetization    =     2.02 Bohr mag/cell

     iteration # 54     ecut=    50.00 Ry     beta= 0.30
     Davidson diagonalization with overlap
     ethr =  1.27E-09,  avg # of iterations =  5.0

     negative rho (up, down):  3.763E-04 6.903E-04

     total cpu time spent up to now is     1215.5 secs

     total energy              =    -163.00818240 Ry
     estimated scf accuracy    <       0.00003939 Ry

     total magnetization       =     2.00 Bohr mag/cell
     absolute magnetization    =     2.02 Bohr mag/cell

     iteration # 55     ecut=    50.00 Ry     beta= 0.30
     Davidson diagonalization with overlap
     ethr =  1.27E-09,  avg # of iterations =  4.0

     negative rho (up, down):  3.752E-04 6.903E-04

     total cpu time spent up to now is     1237.9 secs

     total energy              =    -163.00814583 Ry
     estimated scf accuracy    <       0.00000703 Ry

     total magnetization       =     2.00 Bohr mag/cell
     absolute magnetization    =     2.02 Bohr mag/cell

     iteration # 56     ecut=    50.00 Ry     beta= 0.30
     Davidson diagonalization with overlap
     ethr =  1.27E-09,  avg # of iterations =  4.5

     negative rho (up, down):  3.763E-04 6.903E-04

     total cpu time spent up to now is     1260.2 secs

     total energy              =    -163.00819052 Ry
     estimated scf accuracy    <       0.00000880 Ry

     total magnetization       =     2.00 Bohr mag/cell
     absolute magnetization    =     2.02 Bohr mag/cell

     iteration # 57     ecut=    50.00 Ry     beta= 0.30
     Davidson diagonalization with overlap
     ethr =  1.27E-09,  avg # of iterations =  3.5

     negative rho (up, down):  3.761E-04 6.903E-04

     total cpu time spent up to now is     1282.7 secs

     total energy              =    -163.00819235 Ry
     estimated scf accuracy    <       0.00000474 Ry

     total magnetization       =     2.00 Bohr mag/cell
     absolute magnetization    =     2.02 Bohr mag/cell

     iteration # 58     ecut=    50.00 Ry     beta= 0.30
     Davidson diagonalization with overlap
     ethr =  1.27E-09,  avg # of iterations =  3.5

     negative rho (up, down):  3.761E-04 6.903E-04

     total cpu time spent up to now is     1304.7 secs

     total energy              =    -163.00813862 Ry
     estimated scf accuracy    <       0.00000289 Ry

     total magnetization       =     2.00 Bohr mag/cell
     absolute magnetization    =     2.02 Bohr mag/cell

     iteration # 59     ecut=    50.00 Ry     beta= 0.30
     Davidson diagonalization with overlap
     ethr =  1.27E-09,  avg # of iterations =  4.5

     negative rho (up, down):  3.772E-04 6.903E-04

     total cpu time spent up to now is     1327.0 secs

     total energy              =    -163.00817942 Ry
     estimated scf accuracy    <       0.00000731 Ry

     total magnetization       =     2.00 Bohr mag/cell
     absolute magnetization    =     2.02 Bohr mag/cell

     iteration # 60     ecut=    50.00 Ry     beta= 0.30
     Davidson diagonalization with overlap
     ethr =  1.27E-09,  avg # of iterations =  4.0

     negative rho (up, down):  3.765E-04 6.903E-04

     total cpu time spent up to now is     1348.8 secs

     total energy              =    -163.00818675 Ry
     estimated scf accuracy    <       0.00001689 Ry

     total magnetization       =     2.00 Bohr mag/cell
     absolute magnetization    =     2.02 Bohr mag/cell

     iteration # 61     ecut=    50.00 Ry     beta= 0.30
     Davidson diagonalization with overlap
     ethr =  1.27E-09,  avg # of iterations =  4.0

     negative rho (up, down):  3.777E-04 6.904E-04

     total cpu time spent up to now is     1370.4 secs

     total energy              =    -163.00819141 Ry
     estimated scf accuracy    <       0.00000353 Ry

     total magnetization       =     2.00 Bohr mag/cell
     absolute magnetization    =     2.02 Bohr mag/cell

     iteration # 62     ecut=    50.00 Ry     beta= 0.30
     Davidson diagonalization with overlap
     ethr =  1.27E-09,  avg # of iterations =  3.5

     negative rho (up, down):  3.771E-04 6.903E-04

     total cpu time spent up to now is     1391.9 secs

     total energy              =    -163.00806166 Ry
     estimated scf accuracy    <       0.00001152 Ry

     total magnetization       =     2.00 Bohr mag/cell
     absolute magnetization    =     2.02 Bohr mag/cell

     iteration # 63     ecut=    50.00 Ry     beta= 0.30
     Davidson diagonalization with overlap
     ethr =  1.27E-09,  avg # of iterations =  5.0

     negative rho (up, down):  3.766E-04 6.903E-04

     total cpu time spent up to now is     1414.3 secs

     total energy              =    -163.00817627 Ry
     estimated scf accuracy    <       0.00002024 Ry

     total magnetization       =     2.00 Bohr mag/cell
     absolute magnetization    =     2.02 Bohr mag/cell

     iteration # 64     ecut=    50.00 Ry     beta= 0.30
     Davidson diagonalization with overlap
     ethr =  1.27E-09,  avg # of iterations =  4.0

     negative rho (up, down):  3.745E-04 6.903E-04

     total cpu time spent up to now is     1436.3 secs

     total energy              =    -163.00818489 Ry
     estimated scf accuracy    <       0.00000979 Ry

     total magnetization       =     2.00 Bohr mag/cell
     absolute magnetization    =     2.02 Bohr mag/cell

     iteration # 65     ecut=    50.00 Ry     beta= 0.30
     Davidson diagonalization with overlap
     ethr =  1.27E-09,  avg # of iterations =  4.0

     negative rho (up, down):  3.758E-04 6.903E-04

     total cpu time spent up to now is     1458.8 secs

     total energy              =    -163.00811368 Ry
     estimated scf accuracy    <       0.00000631 Ry

     total magnetization       =     2.00 Bohr mag/cell
     absolute magnetization    =     2.02 Bohr mag/cell

     iteration # 66     ecut=    50.00 Ry     beta= 0.30
     Davidson diagonalization with overlap
     ethr =  1.27E-09,  avg # of iterations =  5.0

     negative rho (up, down):  3.754E-04 6.903E-04

     total cpu time spent up to now is     1482.0 secs

     total energy              =    -163.00818294 Ry
     estimated scf accuracy    <       0.00001061 Ry

     total magnetization       =     2.00 Bohr mag/cell
     absolute magnetization    =     2.02 Bohr mag/cell

     iteration # 67     ecut=    50.00 Ry     beta= 0.30
     Davidson diagonalization with overlap
     ethr =  1.27E-09,  avg # of iterations =  3.5

     negative rho (up, down):  3.897E-04 6.903E-04

     total cpu time spent up to now is     1507.1 secs

     total energy              =    -163.00806413 Ry
     estimated scf accuracy    <       0.00000617 Ry

     total magnetization       =     2.00 Bohr mag/cell
     absolute magnetization    =     2.02 Bohr mag/cell

     iteration # 68     ecut=    50.00 Ry     beta= 0.30
     Davidson diagonalization with overlap
     ethr =  1.27E-09,  avg # of iterations =  5.0

     negative rho (up, down):  3.774E-04 6.903E-04

     total cpu time spent up to now is     1530.6 secs

     total energy              =    -163.00762237 Ry
     estimated scf accuracy    <       0.00011987 Ry

     total magnetization       =     2.00 Bohr mag/cell
     absolute magnetization    =     2.02 Bohr mag/cell

     iteration # 69     ecut=    50.00 Ry     beta= 0.30
     Davidson diagonalization with overlap
     ethr =  1.27E-09,  avg # of iterations =  5.5

     negative rho (up, down):  3.772E-04 6.903E-04

     total cpu time spent up to now is     1553.6 secs

     total energy              =    -163.00819021 Ry
     estimated scf accuracy    <       0.00001318 Ry

     total magnetization       =     2.00 Bohr mag/cell
     absolute magnetization    =     2.02 Bohr mag/cell

     iteration # 70     ecut=    50.00 Ry     beta= 0.30
     Davidson diagonalization with overlap
     ethr =  1.27E-09,  avg # of iterations =  3.0

     negative rho (up, down):  3.917E-04 6.904E-04

     total cpu time spent up to now is     1574.9 secs

     total energy              =    -163.00794638 Ry
     estimated scf accuracy    <       0.00001293 Ry

     total magnetization       =     2.00 Bohr mag/cell
     absolute magnetization    =     2.02 Bohr mag/cell

     iteration # 71     ecut=    50.00 Ry     beta= 0.30
     Davidson diagonalization with overlap
     ethr =  1.27E-09,  avg # of iterations =  5.0

     negative rho (up, down):  3.767E-04 6.903E-04

     total cpu time spent up to now is     1597.6 secs

     total energy              =    -163.00807777 Ry
     estimated scf accuracy    <       0.00010263 Ry

     total magnetization       =     2.00 Bohr mag/cell
     absolute magnetization    =     2.02 Bohr mag/cell

     iteration # 72     ecut=    50.00 Ry     beta= 0.30
     Davidson diagonalization with overlap
     ethr =  1.27E-09,  avg # of iterations =  5.0

     negative rho (up, down):  3.788E-04 6.903E-04

     total cpu time spent up to now is     1620.6 secs

     total energy              =    -163.00819234 Ry
     estimated scf accuracy    <       0.00000432 Ry

     total magnetization       =     2.00 Bohr mag/cell
     absolute magnetization    =     2.02 Bohr mag/cell

     iteration # 73     ecut=    50.00 Ry     beta= 0.30
     Davidson diagonalization with overlap
     ethr =  1.27E-09,  avg # of iterations =  3.5

     negative rho (up, down):  3.767E-04 6.903E-04

     total cpu time spent up to now is     1643.9 secs

     total energy              =    -163.00817889 Ry
     estimated scf accuracy    <       0.00002639 Ry

     total magnetization       =     2.00 Bohr mag/cell
     absolute magnetization    =     2.02 Bohr mag/cell

     iteration # 74     ecut=    50.00 Ry     beta= 0.30
     Davidson diagonalization with overlap
     ethr =  1.27E-09,  avg # of iterations =  4.0

     negative rho (up, down):  3.773E-04 6.904E-04

     total cpu time spent up to now is     1665.8 secs

     total energy              =    -163.00817693 Ry
     estimated scf accuracy    <       0.00000868 Ry

     total magnetization       =     2.00 Bohr mag/cell
     absolute magnetization    =     2.02 Bohr mag/cell

     iteration # 75     ecut=    50.00 Ry     beta= 0.30
     Davidson diagonalization with overlap
     ethr =  1.27E-09,  avg # of iterations =  4.0

     negative rho (up, down):  3.761E-04 6.903E-04

     total cpu time spent up to now is     1687.5 secs

     total energy              =    -163.00816177 Ry
     estimated scf accuracy    <       0.00001707 Ry

     total magnetization       =     2.00 Bohr mag/cell
     absolute magnetization    =     2.02 Bohr mag/cell

     iteration # 76     ecut=    50.00 Ry     beta= 0.30
     Davidson diagonalization with overlap
     ethr =  1.27E-09,  avg # of iterations =  4.0

     negative rho (up, down):  3.764E-04 6.903E-04

     total cpu time spent up to now is     1710.9 secs

     total energy              =    -163.00817838 Ry
     estimated scf accuracy    <       0.00000770 Ry

     total magnetization       =     2.00 Bohr mag/cell
     absolute magnetization    =     2.02 Bohr mag/cell

     iteration # 77     ecut=    50.00 Ry     beta= 0.30
     Davidson diagonalization with overlap
     ethr =  1.27E-09,  avg # of iterations =  4.0

     negative rho (up, down):  3.761E-04 6.903E-04

     total cpu time spent up to now is     1733.4 secs

     total energy              =    -163.00818372 Ry
     estimated scf accuracy    <       0.00001384 Ry

     total magnetization       =     2.00 Bohr mag/cell
     absolute magnetization    =     2.02 Bohr mag/cell

     iteration # 78     ecut=    50.00 Ry     beta= 0.30
     Davidson diagonalization with overlap
     ethr =  1.27E-09,  avg # of iterations =  3.5

     negative rho (up, down):  3.758E-04 6.903E-04

     total cpu time spent up to now is     1757.3 secs

     total energy              =    -163.00818654 Ry
     estimated scf accuracy    <       0.00000925 Ry

     total magnetization       =     2.00 Bohr mag/cell
     absolute magnetization    =     2.02 Bohr mag/cell

     iteration # 79     ecut=    50.00 Ry     beta= 0.30
     Davidson diagonalization with overlap
     ethr =  1.27E-09,  avg # of iterations =  2.5

     negative rho (up, down):  3.757E-04 6.903E-04

     total cpu time spent up to now is     1780.8 secs

     total energy              =    -163.00818072 Ry
     estimated scf accuracy    <       0.00000650 Ry

     total magnetization       =     2.00 Bohr mag/cell
     absolute magnetization    =     2.02 Bohr mag/cell

     iteration # 80     ecut=    50.00 Ry     beta= 0.30
     Davidson diagonalization with overlap
     ethr =  1.27E-09,  avg # of iterations =  3.5

     negative rho (up, down):  3.852E-04 6.904E-04

     total cpu time spent up to now is     1803.9 secs

     total energy              =    -163.00801785 Ry
     estimated scf accuracy    <       0.00000645 Ry

     total magnetization       =     2.00 Bohr mag/cell
     absolute magnetization    =     2.02 Bohr mag/cell

     iteration # 81     ecut=    50.00 Ry     beta= 0.30
     Davidson diagonalization with overlap
     ethr =  1.27E-09,  avg # of iterations =  5.0

     negative rho (up, down):  4.645E-04 6.904E-04

     total cpu time spent up to now is     1828.3 secs

     total energy              =    -163.00799265 Ry
     estimated scf accuracy    <       0.00009390 Ry

     total magnetization       =     2.00 Bohr mag/cell
     absolute magnetization    =     2.02 Bohr mag/cell

     iteration # 82     ecut=    50.00 Ry     beta= 0.30
     Davidson diagonalization with overlap
     ethr =  1.27E-09,  avg # of iterations =  5.0

     negative rho (up, down):  3.766E-04 6.903E-04

     total cpu time spent up to now is     1852.6 secs

     total energy              =    -163.00791235 Ry
     estimated scf accuracy    <       0.00035471 Ry

     total magnetization       =     2.00 Bohr mag/cell
     absolute magnetization    =     2.02 Bohr mag/cell

     iteration # 83     ecut=    50.00 Ry     beta= 0.30
     Davidson diagonalization with overlap
     ethr =  1.27E-09,  avg # of iterations =  5.0

     negative rho (up, down):  3.774E-04 6.903E-04

     total cpu time spent up to now is     1875.4 secs

     total energy              =    -163.00817782 Ry
     estimated scf accuracy    <       0.00002366 Ry

     total magnetization       =     2.00 Bohr mag/cell
     absolute magnetization    =     2.02 Bohr mag/cell

     iteration # 84     ecut=    50.00 Ry     beta= 0.30
     Davidson diagonalization with overlap
     ethr =  1.27E-09,  avg # of iterations =  3.5

     negative rho (up, down):  3.776E-04 6.903E-04

     total cpu time spent up to now is     1896.8 secs

     total energy              =    -163.00817876 Ry
     estimated scf accuracy    <       0.00003365 Ry

     total magnetization       =     2.00 Bohr mag/cell
     absolute magnetization    =     2.02 Bohr mag/cell

     iteration # 85     ecut=    50.00 Ry     beta= 0.30
     Davidson diagonalization with overlap
     ethr =  1.27E-09,  avg # of iterations =  2.5

     negative rho (up, down):  3.760E-04 6.903E-04

     total cpu time spent up to now is     1918.5 secs

     total energy              =    -163.00816634 Ry
     estimated scf accuracy    <       0.00003549 Ry

     total magnetization       =     2.00 Bohr mag/cell
     absolute magnetization    =     2.02 Bohr mag/cell

     iteration # 86     ecut=    50.00 Ry     beta= 0.30
     Davidson diagonalization with overlap
     ethr =  1.27E-09,  avg # of iterations =  4.0

     negative rho (up, down):  3.750E-04 6.903E-04

     total cpu time spent up to now is     1942.6 secs

     total energy              =    -163.00817872 Ry
     estimated scf accuracy    <       0.00001508 Ry

     total magnetization       =     2.00 Bohr mag/cell
     absolute magnetization    =     2.02 Bohr mag/cell

     iteration # 87     ecut=    50.00 Ry     beta= 0.30
     Davidson diagonalization with overlap
     ethr =  1.27E-09,  avg # of iterations =  4.0

     negative rho (up, down):  3.749E-04 6.903E-04

     total cpu time spent up to now is     1966.8 secs

     total energy              =    -163.00818315 Ry
     estimated scf accuracy    <       0.00000146 Ry

     total magnetization       =     2.00 Bohr mag/cell
     absolute magnetization    =     2.02 Bohr mag/cell

     iteration # 88     ecut=    50.00 Ry     beta= 0.30
     Davidson diagonalization with overlap
     ethr =  1.27E-09,  avg # of iterations =  3.0

     negative rho (up, down):  3.748E-04 6.903E-04

     total cpu time spent up to now is     1993.3 secs

     total energy              =    -163.00818463 Ry
     estimated scf accuracy    <       0.00000180 Ry

     total magnetization       =     2.00 Bohr mag/cell
     absolute magnetization    =     2.02 Bohr mag/cell

     iteration # 89     ecut=    50.00 Ry     beta= 0.30
     Davidson diagonalization with overlap
     ethr =  1.27E-09,  avg # of iterations =  2.5

     negative rho (up, down):  3.747E-04 6.903E-04

     total cpu time spent up to now is     2015.2 secs

     total energy              =    -163.00818326 Ry
     estimated scf accuracy    <       0.00000144 Ry

     total magnetization       =     2.00 Bohr mag/cell
     absolute magnetization    =     2.02 Bohr mag/cell

     iteration # 90     ecut=    50.00 Ry     beta= 0.30
     Davidson diagonalization with overlap
     ethr =  1.27E-09,  avg # of iterations =  3.0

     negative rho (up, down):  3.750E-04 6.903E-04

     total cpu time spent up to now is     2037.2 secs

     total energy              =    -163.00816627 Ry
     estimated scf accuracy    <       0.00000034 Ry

     total magnetization       =     2.00 Bohr mag/cell
     absolute magnetization    =     2.02 Bohr mag/cell

     iteration # 91     ecut=    50.00 Ry     beta= 0.30
     Davidson diagonalization with overlap
     ethr =  1.27E-09,  avg # of iterations =  4.0

     negative rho (up, down):  3.751E-04 6.903E-04

     total cpu time spent up to now is     2059.2 secs

     total energy              =    -163.00818344 Ry
     estimated scf accuracy    <       0.00000202 Ry

     total magnetization       =     2.00 Bohr mag/cell
     absolute magnetization    =     2.02 Bohr mag/cell

     iteration # 92     ecut=    50.00 Ry     beta= 0.30
     Davidson diagonalization with overlap
     ethr =  1.27E-09,  avg # of iterations =  3.5

     negative rho (up, down):  3.752E-04 6.903E-04

     total cpu time spent up to now is     2080.6 secs

     total energy              =    -163.00818635 Ry
     estimated scf accuracy    <       0.00000266 Ry

     total magnetization       =     2.00 Bohr mag/cell
     absolute magnetization    =     2.02 Bohr mag/cell

     iteration # 93     ecut=    50.00 Ry     beta= 0.30
     Davidson diagonalization with overlap
     ethr =  1.27E-09,  avg # of iterations =  2.5

     negative rho (up, down):  3.746E-04 6.903E-04

     total cpu time spent up to now is     2101.7 secs

     total energy              =    -163.00814783 Ry
     estimated scf accuracy    <       0.00000320 Ry

     total magnetization       =     2.00 Bohr mag/cell
     absolute magnetization    =     2.02 Bohr mag/cell

     iteration # 94     ecut=    50.00 Ry     beta= 0.30
     Davidson diagonalization with overlap
     ethr =  1.27E-09,  avg # of iterations =  4.0

     negative rho (up, down):  3.753E-04 6.903E-04

     total cpu time spent up to now is     2123.5 secs

     total energy              =    -163.00812585 Ry
     estimated scf accuracy    <       0.00000060 Ry

     total magnetization       =     2.00 Bohr mag/cell
     absolute magnetization    =     2.02 Bohr mag/cell

     iteration # 95     ecut=    50.00 Ry     beta= 0.30
     Davidson diagonalization with overlap
     ethr =  1.27E-09,  avg # of iterations =  5.0

     negative rho (up, down):  3.757E-04 6.903E-04

     total cpu time spent up to now is     2145.5 secs

     total energy              =    -163.00816585 Ry
     estimated scf accuracy    <       0.00000457 Ry

     total magnetization       =     2.00 Bohr mag/cell
     absolute magnetization    =     2.02 Bohr mag/cell

     iteration # 96     ecut=    50.00 Ry     beta= 0.30
     Davidson diagonalization with overlap
     ethr =  1.27E-09,  avg # of iterations =  4.0

     negative rho (up, down):  3.750E-04 6.903E-04

     total cpu time spent up to now is     2167.1 secs

     total energy              =    -163.00816890 Ry
     estimated scf accuracy    <       0.00000866 Ry

     total magnetization       =     2.00 Bohr mag/cell
     absolute magnetization    =     2.02 Bohr mag/cell

     iteration # 97     ecut=    50.00 Ry     beta= 0.30
     Davidson diagonalization with overlap
     ethr =  1.27E-09,  avg # of iterations =  4.0

     negative rho (up, down):  3.744E-04 6.903E-04

     total cpu time spent up to now is     2188.7 secs

     total energy              =    -163.00817613 Ry
     estimated scf accuracy    <       0.00000193 Ry

     total magnetization       =     2.00 Bohr mag/cell
     absolute magnetization    =     2.02 Bohr mag/cell

     iteration # 98     ecut=    50.00 Ry     beta= 0.30
     Davidson diagonalization with overlap
     ethr =  1.27E-09,  avg # of iterations =  4.0

     negative rho (up, down):  3.748E-04 6.903E-04

     total cpu time spent up to now is     2210.3 secs

     total energy              =    -163.00817709 Ry
     estimated scf accuracy    <       0.00000034 Ry

     total magnetization       =     2.00 Bohr mag/cell
     absolute magnetization    =     2.02 Bohr mag/cell

     iteration # 99     ecut=    50.00 Ry     beta= 0.30
     Davidson diagonalization with overlap
     ethr =  1.27E-09,  avg # of iterations =  3.5

     negative rho (up, down):  3.745E-04 6.903E-04

     total cpu time spent up to now is     2231.8 secs

     total energy              =    -163.00818324 Ry
     estimated scf accuracy    <       0.00000038 Ry

     total magnetization       =     2.00 Bohr mag/cell
     absolute magnetization    =     2.02 Bohr mag/cell

     iteration #100     ecut=    50.00 Ry     beta= 0.30
     Davidson diagonalization with overlap
     ethr =  1.27E-09,  avg # of iterations =  2.5

     negative rho (up, down):  3.744E-04 6.903E-04

     total cpu time spent up to now is     2252.9 secs

     total energy              =    -163.00818354 Ry
     estimated scf accuracy    <       0.00000013 Ry

     total magnetization       =     2.00 Bohr mag/cell
     absolute magnetization    =     2.02 Bohr mag/cell

     iteration #101     ecut=    50.00 Ry     beta= 0.30
     Davidson diagonalization with overlap
     ethr =  9.01E-10,  avg # of iterations =  2.5

     negative rho (up, down):  3.743E-04 6.903E-04

     total cpu time spent up to now is     2273.9 secs

     total energy              =    -163.00818130 Ry
     estimated scf accuracy    <       0.00000023 Ry

     total magnetization       =     2.00 Bohr mag/cell
     absolute magnetization    =     2.02 Bohr mag/cell

     iteration #102     ecut=    50.00 Ry     beta= 0.30
     Davidson diagonalization with overlap
     ethr =  9.01E-10,  avg # of iterations =  3.5

     negative rho (up, down):  3.745E-04 6.903E-04

     total cpu time spent up to now is     2295.2 secs

     total energy              =    -163.00818319 Ry
     estimated scf accuracy    <       0.00000048 Ry

     total magnetization       =     2.00 Bohr mag/cell
     absolute magnetization    =     2.02 Bohr mag/cell

     iteration #103     ecut=    50.00 Ry     beta= 0.30
     Davidson diagonalization with overlap
     ethr =  9.01E-10,  avg # of iterations =  3.0

     negative rho (up, down):  3.745E-04 6.903E-04

     Magnetic moment per site:
     atom:    1    charge:   13.9991    magn:    1.9991    constr:    0.0000

     total cpu time spent up to now is     2315.7 secs

     End of self-consistent calculation

 ------ SPIN UP ------------


          k = 0.0000 0.0000 0.0000 ( 44014 PWs)   bands (ev):

   -25.7521 -25.6731 -25.6731 -25.4085 -25.4085 -10.7310  -3.9307  -3.9305
    -3.8430  -0.5484   0.3950   0.4121

     occupation numbers 
     1.0000   1.0000   1.0000   1.0000   1.0000   1.0000   1.0000   1.0000
     0.0000   0.0000   0.0000   0.0000

 ------ SPIN DOWN ----------


          k = 0.0000 0.0000 0.0000 ( 44014 PWs)   bands (ev):

   -25.6700 -25.5441 -25.5440 -25.1887 -25.1887  -9.6158  -3.1961  -2.4296
    -2.4293  -0.1641   0.5910   0.7216

     occupation numbers 
     1.0000   1.0000   1.0000   1.0000   1.0000   1.0000   0.0000   0.0000
     0.0000   0.0000   0.0000   0.0000

     highest occupied, lowest unoccupied level (ev):    -3.9305   -3.8430

!    total energy              =    -163.00818375 Ry
     estimated scf accuracy    <          4.5E-09 Ry

     The total energy is the sum of the following terms:
     one-electron contribution =    -191.85184912 Ry
     hartree contribution      =      98.74203324 Ry
     xc contribution           =     -47.35419589 Ry
     ewald contribution        =     -22.54417199 Ry

     total magnetization       =     2.00 Bohr mag/cell
     absolute magnetization    =     2.02 Bohr mag/cell

     convergence has been achieved in 103 iterations

     Writing output data file ./tmp/Sn_atom.save/

     init_run     :     22.95s CPU     21.04s WALL (       1 calls)
     electrons    :   4105.67s CPU   2294.77s WALL (       1 calls)

     Called by init_run:
     wfcinit      :      2.22s CPU      0.86s WALL (       1 calls)
     wfcinit:atom :      0.04s CPU      0.01s WALL (       2 calls)
     wfcinit:wfcr :      2.13s CPU      0.81s WALL (       2 calls)
     potinit      :      8.64s CPU      8.55s WALL (       1 calls)
     hinit0       :      5.48s CPU      5.67s WALL (       1 calls)

     Called by electrons:
     c_bands      :    933.87s CPU    303.75s WALL (     103 calls)
     sum_band     :   1878.50s CPU    838.11s WALL (     103 calls)
     v_of_rho     :    534.28s CPU    531.06s WALL (     104 calls)
     v_h          :     16.58s CPU     16.65s WALL (     104 calls)
     v_xc         :    517.69s CPU    514.40s WALL (     104 calls)
     newd         :    595.29s CPU    507.37s WALL (     104 calls)
     mix_rho      :     78.76s CPU     76.75s WALL (     103 calls)

     Called by c_bands:
     init_us_2    :      9.80s CPU      4.38s WALL (     414 calls)
     regterg      :    909.69s CPU    292.42s WALL (     206 calls)

     Called by sum_band:
     sum_band:wei :      0.01s CPU      0.00s WALL (     103 calls)
     sum_band:loo :     79.59s CPU     43.72s WALL (     103 calls)
     sum_band:buf :      0.67s CPU      0.28s WALL (     206 calls)
     sum_band:ini :      5.39s CPU      2.27s WALL (     206 calls)
     sum_band:cal :      5.64s CPU      1.10s WALL (     206 calls)
     sum_band:bec :      0.01s CPU      0.00s WALL (     206 calls)
     addusdens    :   1739.40s CPU    752.59s WALL (     103 calls)
     addusd:skk   :      0.35s CPU      0.37s WALL (     103 calls)
     addusd:dgemm :   1124.06s CPU    138.77s WALL (     206 calls)
     addusd:qvan2 :    558.32s CPU    513.50s WALL (     206 calls)

     Called by *egterg:
     rdiaghg      :      0.95s CPU      0.24s WALL (     983 calls)
     regterg:over :     37.52s CPU      6.83s WALL (     777 calls)
     regterg:upda :     14.47s CPU      2.31s WALL (     777 calls)
     regterg:last :     29.66s CPU      5.05s WALL (     527 calls)
     h_psi        :    793.74s CPU    270.07s WALL (     985 calls)
     s_psi        :      8.55s CPU      1.03s WALL (     985 calls)
     g_psi        :      5.99s CPU      2.15s WALL (     777 calls)

     Called by h_psi:
     h_psi:calbec :     27.37s CPU      5.22s WALL (     985 calls)
     vloc_psi     :    755.79s CPU    262.92s WALL (     985 calls)
     add_vuspsi   :      8.18s CPU      1.00s WALL (     985 calls)

     General routines
     calbec       :     32.97s CPU      6.31s WALL (    1191 calls)
     fft          :    399.44s CPU    262.13s WALL (    2177 calls)
     ffts         :     39.59s CPU     14.37s WALL (     414 calls)
     fftw         :    629.60s CPU    224.42s WALL (    8986 calls)
     interpolate  :     89.57s CPU     41.33s WALL (     208 calls)

     Parallel routines

     PWSCF        :      1h 8m CPU  38m36.13s WALL


   This run was terminated on:  19:12:22  20May2026            

=------------------------------------------------------------------------------=
   JOB DONE.
=------------------------------------------------------------------------------=
