     Message from routine get_command_line:
     unexpected argument # 2     :

     Program PWSCF v.6.7MaX starts on 21May2026 at 12:18:50 

     This program is part of the open-source Quantum ESPRESSO suite
     for quantum simulation of materials; please cite
         "P. Giannozzi et al., J. Phys.:Condens. Matter 21 395502 (2009);
         "P. Giannozzi et al., J. Phys.:Condens. Matter 29 465901 (2017);
          URL http://www.quantum-espresso.org", 
     in publications or presentations arising from this work. More details at
     http://www.quantum-espresso.org/quote

     Parallel version (MPI), running on     6 processors

     MPI processes distributed on     1 nodes
     R & G space division:  proc/nbgrp/npool/nimage =       6
     Waiting for input...
     Reading input from standard input

     Current dimensions of program PWSCF are:
     Max number of different atomic species (ntypx) = 10
     Max number of k-points (npk) =  40000
     Max angular momentum in pseudopotentials (lmaxx) =  3

     --------------------------------------------
     Parameters for DFT-D3 Dispersion Correction:
     --------------------------------------------
       Reference C6 values for interpolation: 

         atom   Coordination number   C6
         Se         0.000           427.35
         Se         0.990           427.57
         Se         1.981           421.05
         Sn         0.000          1255.14
         Sn         0.951          1084.09
         Sn         1.950          1010.83
         Sn         2.926           818.29
         Sn         3.912           672.20

       Values used:

         atom   Coordination number  R0_AB[au]  C6      C8
         Se         3.412            3.332    421.05  29958.36
         Sn         4.106            3.957    672.80  84444.47
         Se         3.412            3.332    421.05  29958.36
         Sn         4.106            3.957    672.80  84444.47
         Se         3.412            3.332    421.05  29958.36
         Sn         4.106            3.957    672.80  84444.47
         Se         3.412            3.332    421.05  29958.36
         Sn         4.106            3.957    672.80  84444.47

         Molecular C6 ( Ry / a.u.^6 ) =     34513.28


     Subspace diagonalization in iterative solution of the eigenvalue problem:
     one sub-group per band group will be used
     scalapack distributed-memory algorithm (size of sub-group:  2*  2 procs)


     Parallelization info
     --------------------
     sticks:   dense  smooth     PW     G-vecs:    dense   smooth      PW
     Min        1140     457    131                46601    11797    1807
     Max        1142     459    132                46602    11798    1808
     Sum        6847    2745    787               279611    70783   10843



     bravais-lattice index     =            8
     lattice parameter (alat)  =      21.8252  a.u.
     unit-cell volume          =    1481.0643 (a.u.)^3
     number of atoms/cell      =            8
     number of atomic types    =            2
     number of electrons       =        80.00
     number of Kohn-Sham states=           40
     kinetic-energy cutoff     =      50.0000  Ry
     charge density cutoff     =     500.0000  Ry
     scf convergence threshold =      1.0E-08
     mixing beta               =       0.7000
     number of iterations used =            8  plain     mixing
     Exchange-correlation= SLA  PW   PBE  PBE
                           (   1   4   3   4   0   0   0)

     celldm(1)=  21.825203  celldm(2)=   0.361179  celldm(3)=   0.394436
     celldm(4)=   0.000000  celldm(5)=   0.000000  celldm(6)=   0.000000

     crystal axes: (cart. coord. in units of alat)
               a(1) = (   1.000000   0.000000   0.000000 )  
               a(2) = (   0.000000   0.361179   0.000000 )  
               a(3) = (   0.000000   0.000000   0.394436 )  

     reciprocal axes: (cart. coord. in units 2 pi/alat)
               b(1) = (  1.000000  0.000000  0.000000 )  
               b(2) = (  0.000000  2.768711  0.000000 )  
               b(3) = (  0.000000  0.000000  2.535265 )  


     PseudoPot. # 1 for Sn read from file:
     ../pseudo/Sn_pbe_v1.uspp.F.UPF
     MD5 check sum: 4cf58ce39ec5d5d420df3dd08604eb00
     Pseudo is Ultrasoft + core correction, Zval = 14.0
     Generated by new atomic code, or converted to UPF format
     Using radial grid of  891 points,  6 beta functions with: 
                l(1) =   0
                l(2) =   0
                l(3) =   1
                l(4) =   1
                l(5) =   2
                l(6) =   2
     Q(r) pseudized with  6 coefficients,  rinner =    1.200   1.200   1.200
                                                       1.200   1.200

     PseudoPot. # 2 for Se read from file:
     ../pseudo/Se_pbe_v1.uspp.F.UPF
     MD5 check sum: 1b3568f3a8ae88f9a2a0ad0698632c85
     Pseudo is Ultrasoft + core correction, Zval =  6.0
     Generated by new atomic code, or converted to UPF format
     Using radial grid of  877 points,  6 beta functions with: 
                l(1) =   0
                l(2) =   0
                l(3) =   1
                l(4) =   1
                l(5) =   2
                l(6) =   2
     Q(r) pseudized with  8 coefficients,  rinner =    1.300   1.300   1.300
                                                       1.300   1.300

     atomic species   valence    mass     pseudopotential
        Sn            14.00   118.71000     Sn( 1.00)
        Se             6.00    78.97100     Se( 1.00)

      8 Sym. Ops., with inversion, found ( 6 have fractional translation)


                                    s                        frac. trans.

      isym =  1     identity                                     

 cryst.   s( 1) = (     1          0          0      )
                  (     0          1          0      )
                  (     0          0          1      )

 cart.    s( 1) = (  1.0000000  0.0000000  0.0000000 )
                  (  0.0000000  1.0000000  0.0000000 )
                  (  0.0000000  0.0000000  1.0000000 )


      isym =  2     180 deg rotation - cart. axis [0,0,1]        

 cryst.   s( 2) = (    -1          0          0      )    f =(  0.5000000 )
                  (     0         -1          0      )       (  0.0000000 )
                  (     0          0          1      )       ( -0.5000000 )

 cart.    s( 2) = ( -1.0000000  0.0000000  0.0000000 )    f =(  0.5000000 )
                  (  0.0000000 -1.0000000  0.0000000 )       (  0.0000000 )
                  (  0.0000000  0.0000000  1.0000000 )       ( -0.1972180 )


      isym =  3     180 deg rotation - cart. axis [0,1,0]        

 cryst.   s( 3) = (    -1          0          0      )    f =(  0.0000000 )
                  (     0          1          0      )       ( -0.5000000 )
                  (     0          0         -1      )       (  0.0000000 )

 cart.    s( 3) = ( -1.0000000  0.0000000  0.0000000 )    f =(  0.0000000 )
                  (  0.0000000  1.0000000  0.0000000 )       ( -0.1805895 )
                  (  0.0000000  0.0000000 -1.0000000 )       (  0.0000000 )


      isym =  4     180 deg rotation - cart. axis [1,0,0]        

 cryst.   s( 4) = (     1          0          0      )    f =(  0.5000000 )
                  (     0         -1          0      )       (  0.5000000 )
                  (     0          0         -1      )       (  0.5000000 )

 cart.    s( 4) = (  1.0000000  0.0000000  0.0000000 )    f =(  0.5000000 )
                  (  0.0000000 -1.0000000  0.0000000 )       (  0.1805895 )
                  (  0.0000000  0.0000000 -1.0000000 )       (  0.1972180 )


      isym =  5     inversion                                    

 cryst.   s( 5) = (    -1          0          0      )
                  (     0         -1          0      )
                  (     0          0         -1      )

 cart.    s( 5) = ( -1.0000000  0.0000000  0.0000000 )
                  (  0.0000000 -1.0000000  0.0000000 )
                  (  0.0000000  0.0000000 -1.0000000 )


      isym =  6     inv. 180 deg rotation - cart. axis [0,0,1]   

 cryst.   s( 6) = (     1          0          0      )    f =(  0.5000000 )
                  (     0          1          0      )       (  0.0000000 )
                  (     0          0         -1      )       (  0.5000000 )

 cart.    s( 6) = (  1.0000000  0.0000000  0.0000000 )    f =(  0.5000000 )
                  (  0.0000000  1.0000000  0.0000000 )       (  0.0000000 )
                  (  0.0000000  0.0000000 -1.0000000 )       (  0.1972180 )


      isym =  7     inv. 180 deg rotation - cart. axis [0,1,0]   

 cryst.   s( 7) = (     1          0          0      )    f =(  0.0000000 )
                  (     0         -1          0      )       (  0.5000000 )
                  (     0          0          1      )       (  0.0000000 )

 cart.    s( 7) = (  1.0000000  0.0000000  0.0000000 )    f =(  0.0000000 )
                  (  0.0000000 -1.0000000  0.0000000 )       (  0.1805895 )
                  (  0.0000000  0.0000000  1.0000000 )       (  0.0000000 )


      isym =  8     inv. 180 deg rotation - cart. axis [1,0,0]   

 cryst.   s( 8) = (    -1          0          0      )    f =(  0.5000000 )
                  (     0          1          0      )       ( -0.5000000 )
                  (     0          0          1      )       ( -0.5000000 )

 cart.    s( 8) = ( -1.0000000  0.0000000  0.0000000 )    f =(  0.5000000 )
                  (  0.0000000  1.0000000  0.0000000 )       ( -0.1805895 )
                  (  0.0000000  0.0000000  1.0000000 )       ( -0.1972180 )


     point group D_2h (mmm) 
     there are  8 classes
     the character table:

       E     C2    C2'   C2''  i     s_v   s_v'  s_v''
A_g    1.00  1.00  1.00  1.00  1.00  1.00  1.00  1.00
B_1g   1.00  1.00 -1.00 -1.00  1.00  1.00 -1.00 -1.00
B_2g   1.00 -1.00  1.00 -1.00  1.00 -1.00  1.00 -1.00
B_3g   1.00 -1.00 -1.00  1.00  1.00 -1.00 -1.00  1.00
A_u    1.00  1.00  1.00  1.00 -1.00 -1.00 -1.00 -1.00
B_1u   1.00  1.00 -1.00 -1.00 -1.00 -1.00  1.00  1.00
B_2u   1.00 -1.00  1.00 -1.00 -1.00  1.00 -1.00  1.00
B_3u   1.00 -1.00 -1.00  1.00 -1.00  1.00  1.00 -1.00

     the symmetry operations in each class and the name of the first element:

     E        1
          identity                                               
     C2       2
          180 deg rotation - cart. axis [0,0,1]                  
     C2'      4
          180 deg rotation - cart. axis [1,0,0]                  
     C2''     3
          180 deg rotation - cart. axis [0,1,0]                  
     i        5
          inversion                                              
     s_v      6
          inv. 180 deg rotation - cart. axis [0,0,1]             
     s_v'     8
          inv. 180 deg rotation - cart. axis [1,0,0]             
     s_v''    7
          inv. 180 deg rotation - cart. axis [0,1,0]             

   Cartesian axes

     site n.     atom                  positions (alat units)
         1           Se  tau(   1) = (   0.8549563   0.0902947   0.1906105  )
         2           Sn  tau(   2) = (   0.1165395   0.0902947   0.0442901  )
         3           Se  tau(   3) = (   0.6450437   0.2708842   0.3878285  )
         4           Sn  tau(   4) = (   0.3834605   0.2708842   0.2415081  )
         5           Se  tau(   5) = (   0.3549563   0.0902947   0.0066076  )
         6           Sn  tau(   6) = (   0.6165395   0.0902947   0.1529280  )
         7           Se  tau(   7) = (   0.1450437   0.2708842   0.2038256  )
         8           Sn  tau(   8) = (   0.8834605   0.2708842   0.3501460  )

   Crystallographic axes

     site n.     atom                  positions (cryst. coord.)
         1           Se  tau(   1) = (  0.8549563  0.2500000  0.4832481  )
         2           Sn  tau(   2) = (  0.1165395  0.2500000  0.1122870  )
         3           Se  tau(   3) = (  0.6450437  0.7500000  0.9832481  )
         4           Sn  tau(   4) = (  0.3834605  0.7500000  0.6122870  )
         5           Se  tau(   5) = (  0.3549563  0.2500000  0.0167519  )
         6           Sn  tau(   6) = (  0.6165395  0.2500000  0.3877130  )
         7           Se  tau(   7) = (  0.1450437  0.7500000  0.5167519  )
         8           Sn  tau(   8) = (  0.8834605  0.7500000  0.8877130  )

     number of k points=    32
                       cart. coord. in units 2pi/alat
        k(    1) = (   0.1666667   0.1730444   0.1584541), wk =   0.0833333
        k(    2) = (   0.1666667   0.1730444   0.4753622), wk =   0.0833333
        k(    3) = (   0.1666667   0.1730444   0.7922703), wk =   0.0833333
        k(    4) = (   0.1666667   0.1730444   1.1091785), wk =   0.0833333
        k(    5) = (   0.1666667   0.5191333   0.1584541), wk =   0.0833333
        k(    6) = (   0.1666667   0.5191333   0.4753622), wk =   0.0833333
        k(    7) = (   0.1666667   0.5191333   0.7922703), wk =   0.0833333
        k(    8) = (   0.1666667   0.5191333   1.1091785), wk =   0.0833333
        k(    9) = (   0.1666667   0.8652221   0.1584541), wk =   0.0833333
        k(   10) = (   0.1666667   0.8652221   0.4753622), wk =   0.0833333
        k(   11) = (   0.1666667   0.8652221   0.7922703), wk =   0.0833333
        k(   12) = (   0.1666667   0.8652221   1.1091785), wk =   0.0833333
        k(   13) = (   0.1666667   1.2113110   0.1584541), wk =   0.0833333
        k(   14) = (   0.1666667   1.2113110   0.4753622), wk =   0.0833333
        k(   15) = (   0.1666667   1.2113110   0.7922703), wk =   0.0833333
        k(   16) = (   0.1666667   1.2113110   1.1091785), wk =   0.0833333
        k(   17) = (  -0.5000000   0.1730444   0.1584541), wk =   0.0416667
        k(   18) = (  -0.5000000   0.1730444   0.4753622), wk =   0.0416667
        k(   19) = (  -0.5000000   0.1730444   0.7922703), wk =   0.0416667
        k(   20) = (  -0.5000000   0.1730444   1.1091785), wk =   0.0416667
        k(   21) = (  -0.5000000   0.5191333   0.1584541), wk =   0.0416667
        k(   22) = (  -0.5000000   0.5191333   0.4753622), wk =   0.0416667
        k(   23) = (  -0.5000000   0.5191333   0.7922703), wk =   0.0416667
        k(   24) = (  -0.5000000   0.5191333   1.1091785), wk =   0.0416667
        k(   25) = (  -0.5000000   0.8652221   0.1584541), wk =   0.0416667
        k(   26) = (  -0.5000000   0.8652221   0.4753622), wk =   0.0416667
        k(   27) = (  -0.5000000   0.8652221   0.7922703), wk =   0.0416667
        k(   28) = (  -0.5000000   0.8652221   1.1091785), wk =   0.0416667
        k(   29) = (  -0.5000000   1.2113110   0.1584541), wk =   0.0416667
        k(   30) = (  -0.5000000   1.2113110   0.4753622), wk =   0.0416667
        k(   31) = (  -0.5000000   1.2113110   0.7922703), wk =   0.0416667
        k(   32) = (  -0.5000000   1.2113110   1.1091785), wk =   0.0416667

                       cryst. coord.
        k(    1) = (   0.1666667   0.0625000   0.0625000), wk =   0.0833333
        k(    2) = (   0.1666667   0.0625000   0.1875000), wk =   0.0833333
        k(    3) = (   0.1666667   0.0625000   0.3125000), wk =   0.0833333
        k(    4) = (   0.1666667   0.0625000   0.4375000), wk =   0.0833333
        k(    5) = (   0.1666667   0.1875000   0.0625000), wk =   0.0833333
        k(    6) = (   0.1666667   0.1875000   0.1875000), wk =   0.0833333
        k(    7) = (   0.1666667   0.1875000   0.3125000), wk =   0.0833333
        k(    8) = (   0.1666667   0.1875000   0.4375000), wk =   0.0833333
        k(    9) = (   0.1666667   0.3125000   0.0625000), wk =   0.0833333
        k(   10) = (   0.1666667   0.3125000   0.1875000), wk =   0.0833333
        k(   11) = (   0.1666667   0.3125000   0.3125000), wk =   0.0833333
        k(   12) = (   0.1666667   0.3125000   0.4375000), wk =   0.0833333
        k(   13) = (   0.1666667   0.4375000   0.0625000), wk =   0.0833333
        k(   14) = (   0.1666667   0.4375000   0.1875000), wk =   0.0833333
        k(   15) = (   0.1666667   0.4375000   0.3125000), wk =   0.0833333
        k(   16) = (   0.1666667   0.4375000   0.4375000), wk =   0.0833333
        k(   17) = (  -0.5000000   0.0625000   0.0625000), wk =   0.0416667
        k(   18) = (  -0.5000000   0.0625000   0.1875000), wk =   0.0416667
        k(   19) = (  -0.5000000   0.0625000   0.3125000), wk =   0.0416667
        k(   20) = (  -0.5000000   0.0625000   0.4375000), wk =   0.0416667
        k(   21) = (  -0.5000000   0.1875000   0.0625000), wk =   0.0416667
        k(   22) = (  -0.5000000   0.1875000   0.1875000), wk =   0.0416667
        k(   23) = (  -0.5000000   0.1875000   0.3125000), wk =   0.0416667
        k(   24) = (  -0.5000000   0.1875000   0.4375000), wk =   0.0416667
        k(   25) = (  -0.5000000   0.3125000   0.0625000), wk =   0.0416667
        k(   26) = (  -0.5000000   0.3125000   0.1875000), wk =   0.0416667
        k(   27) = (  -0.5000000   0.3125000   0.3125000), wk =   0.0416667
        k(   28) = (  -0.5000000   0.3125000   0.4375000), wk =   0.0416667
        k(   29) = (  -0.5000000   0.4375000   0.0625000), wk =   0.0416667
        k(   30) = (  -0.5000000   0.4375000   0.1875000), wk =   0.0416667
        k(   31) = (  -0.5000000   0.4375000   0.3125000), wk =   0.0416667
        k(   32) = (  -0.5000000   0.4375000   0.4375000), wk =   0.0416667

     Dense  grid:   279611 G-vectors     FFT dimensions: ( 160,  60,  64)

     Smooth grid:    70783 G-vectors     FFT dimensions: ( 100,  36,  40)

     Dynamical RAM for                 wfc:       0.90 MB

     Dynamical RAM for     wfc (w. buffer):      29.67 MB

     Dynamical RAM for           str. fact:       1.42 MB

     Dynamical RAM for           local pot:       0.00 MB

     Dynamical RAM for          nlocal pot:       3.24 MB

     Dynamical RAM for                qrad:       3.59 MB

     Dynamical RAM for          rho,v,vnew:       4.55 MB

     Dynamical RAM for               rhoin:       1.52 MB

     Dynamical RAM for            rho*nmix:      11.38 MB

     Dynamical RAM for           G-vectors:       2.76 MB

     Dynamical RAM for          h,s,v(r/c):       0.07 MB

     Dynamical RAM for          <psi|beta>:       0.09 MB

     Dynamical RAM for                 psi:       1.80 MB

     Dynamical RAM for                hpsi:       1.80 MB

     Dynamical RAM for                spsi:       1.80 MB

     Dynamical RAM for      wfcinit/wfcrot:       2.40 MB

     Dynamical RAM for           addusdens:     135.11 MB

     Dynamical RAM for          addusforce:     139.74 MB

     Estimated static dynamical RAM per process >      64.28 MB

     Estimated max dynamical RAM per process >     204.02 MB

     Estimated total dynamical RAM >       1.20 GB

     Initial potential from superposition of free atoms

     starting charge   75.99954, renormalised to   80.00000
     Starting wfcs are   52 randomized atomic wfcs

     total cpu time spent up to now is       11.5 secs

     Self-consistent Calculation

     iteration #  1     ecut=    50.00 Ry     beta= 0.70
     Davidson diagonalization with overlap
     ethr =  1.00E-02,  avg # of iterations =  2.0

     total cpu time spent up to now is       39.2 secs

     total energy              =    -826.63147249 Ry
     estimated scf accuracy    <       2.68898733 Ry

     iteration #  2     ecut=    50.00 Ry     beta= 0.70
     Davidson diagonalization with overlap
     ethr =  3.36E-03,  avg # of iterations =  3.0

     total cpu time spent up to now is       68.2 secs

     total energy              =    -827.53689411 Ry
     estimated scf accuracy    <       0.99918496 Ry

     iteration #  3     ecut=    50.00 Ry     beta= 0.70
     Davidson diagonalization with overlap
     ethr =  1.25E-03,  avg # of iterations =  2.6

     total cpu time spent up to now is       91.2 secs

     total energy              =    -827.73968117 Ry
     estimated scf accuracy    <       0.01053876 Ry

     iteration #  4     ecut=    50.00 Ry     beta= 0.70
     Davidson diagonalization with overlap
     ethr =  1.32E-05,  avg # of iterations =  4.9

     total cpu time spent up to now is      131.1 secs

     total energy              =    -827.74637203 Ry
     estimated scf accuracy    <       0.00525500 Ry

     iteration #  5     ecut=    50.00 Ry     beta= 0.70
     Davidson diagonalization with overlap
     ethr =  6.57E-06,  avg # of iterations =  3.0

     total cpu time spent up to now is      158.0 secs

     total energy              =    -827.74798834 Ry
     estimated scf accuracy    <       0.00060403 Ry

     iteration #  6     ecut=    50.00 Ry     beta= 0.70
     Davidson diagonalization with overlap
     ethr =  7.55E-07,  avg # of iterations =  2.4

     total cpu time spent up to now is      181.6 secs

     total energy              =    -827.74793856 Ry
     estimated scf accuracy    <       0.00034542 Ry

     iteration #  7     ecut=    50.00 Ry     beta= 0.70
     Davidson diagonalization with overlap
     ethr =  4.32E-07,  avg # of iterations =  2.0

     total cpu time spent up to now is      203.4 secs

     total energy              =    -827.74797861 Ry
     estimated scf accuracy    <       0.00001619 Ry

     iteration #  8     ecut=    50.00 Ry     beta= 0.70
     Davidson diagonalization with overlap
     ethr =  2.02E-08,  avg # of iterations =  5.3

     total cpu time spent up to now is      246.7 secs

     total energy              =    -827.74799282 Ry
     estimated scf accuracy    <       0.00001615 Ry

     iteration #  9     ecut=    50.00 Ry     beta= 0.70
     Davidson diagonalization with overlap
     ethr =  2.02E-08,  avg # of iterations =  2.0

     total cpu time spent up to now is      269.9 secs

     total energy              =    -827.74799478 Ry
     estimated scf accuracy    <       0.00000083 Ry

     iteration # 10     ecut=    50.00 Ry     beta= 0.70
     Davidson diagonalization with overlap
     ethr =  1.04E-09,  avg # of iterations =  4.8

     total cpu time spent up to now is      312.3 secs

     total energy              =    -827.74799536 Ry
     estimated scf accuracy    <       0.00000004 Ry

     iteration # 11     ecut=    50.00 Ry     beta= 0.70
     Davidson diagonalization with overlap
     ethr =  4.77E-11,  avg # of iterations =  5.2

     total cpu time spent up to now is      359.6 secs

     total energy              =    -827.74799538 Ry
     estimated scf accuracy    <       0.00000002 Ry

     iteration # 12     ecut=    50.00 Ry     beta= 0.70
     Davidson diagonalization with overlap
     ethr =  2.14E-11,  avg # of iterations =  3.2

     total cpu time spent up to now is      389.1 secs

     End of self-consistent calculation

          k = 0.1667 0.1730 0.1585 (  8828 PWs)   bands (ev):

   -13.7601 -13.7512 -13.7474 -13.7443 -13.7436 -13.7415 -13.7376 -13.7361
   -13.7299 -13.7257 -13.7251 -13.7239 -13.7139 -13.7111 -13.6938 -13.6912
   -13.6869 -13.6853 -13.6770 -13.6717  -5.9835  -5.7050  -5.0203  -4.6434
     0.3710   1.2027   2.0307   2.4099   3.0062   4.2248   4.3670   4.6353
     4.8882   4.9370   5.5017   5.8089   6.0459   6.4228   6.8453   7.1387

     occupation numbers 
     1.0000   1.0000   1.0000   1.0000   1.0000   1.0000   1.0000   1.0000
     1.0000   1.0000   1.0000   1.0000   1.0000   1.0000   1.0000   1.0000
     1.0000   1.0000   1.0000   1.0000   1.0000   1.0000   1.0000   1.0000
     1.0000   1.0000   1.0000   1.0000   1.0000   1.0000   1.0000   1.0000
     1.0000   1.0000   1.0000   1.0000   1.0000   1.0000   1.0000   1.0000

          k = 0.1667 0.1730 0.4754 (  8831 PWs)   bands (ev):

   -13.7588 -13.7507 -13.7474 -13.7451 -13.7437 -13.7427 -13.7380 -13.7364
   -13.7299 -13.7260 -13.7230 -13.7213 -13.7133 -13.7111 -13.6940 -13.6906
   -13.6878 -13.6858 -13.6766 -13.6721  -5.8688  -5.6000  -5.0164  -4.6755
     0.0536   0.9385   1.5083   2.0769   3.1002   4.2723   4.4830   5.0015
     5.2140   5.4634   5.5105   5.9169   6.3124   6.6162   6.8931   7.1453

     occupation numbers 
     1.0000   1.0000   1.0000   1.0000   1.0000   1.0000   1.0000   1.0000
     1.0000   1.0000   1.0000   1.0000   1.0000   1.0000   1.0000   1.0000
     1.0000   1.0000   1.0000   1.0000   1.0000   1.0000   1.0000   1.0000
     1.0000   1.0000   1.0000   1.0000   1.0000   1.0000   1.0000   1.0000
     1.0000   1.0000   1.0000   1.0000   1.0000   1.0000   1.0000   1.0000

          k = 0.1667 0.1730 0.7923 (  8830 PWs)   bands (ev):

   -13.7565 -13.7504 -13.7476 -13.7465 -13.7442 -13.7437 -13.7386 -13.7373
   -13.7294 -13.7266 -13.7196 -13.7176 -13.7130 -13.7113 -13.6938 -13.6902
   -13.6887 -13.6866 -13.6759 -13.6729  -5.6630  -5.4132  -5.0473  -4.7627
    -0.2609   0.4336   1.0707   1.5924   3.4017   4.5033   4.7050   5.2783
     5.4829   5.6323   5.8763   6.0038   6.4801   6.9497   6.9711   7.3959

     occupation numbers 
     1.0000   1.0000   1.0000   1.0000   1.0000   1.0000   1.0000   1.0000
     1.0000   1.0000   1.0000   1.0000   1.0000   1.0000   1.0000   1.0000
     1.0000   1.0000   1.0000   1.0000   1.0000   1.0000   1.0000   1.0000
     1.0000   1.0000   1.0000   1.0000   1.0000   1.0000   1.0000   1.0000
     1.0000   1.0000   1.0000   1.0000   1.0000   1.0000   1.0000   1.0000

          k = 0.1667 0.1730 1.1092 (  8836 PWs)   bands (ev):

   -13.7539 -13.7516 -13.7477 -13.7473 -13.7448 -13.7443 -13.7388 -13.7383
   -13.7285 -13.7274 -13.7162 -13.7145 -13.7136 -13.7120 -13.6929 -13.6914
   -13.6882 -13.6874 -13.6749 -13.6739  -5.4185  -5.2486  -5.1011  -4.9230
    -0.3288  -0.0718   0.9709   1.1711   3.8727   4.3837   5.0743   5.3334
     5.5449   5.6658   5.9099   6.1998   6.7677   7.0858   7.2510   7.3370

     occupation numbers 
     1.0000   1.0000   1.0000   1.0000   1.0000   1.0000   1.0000   1.0000
     1.0000   1.0000   1.0000   1.0000   1.0000   1.0000   1.0000   1.0000
     1.0000   1.0000   1.0000   1.0000   1.0000   1.0000   1.0000   1.0000
     1.0000   1.0000   1.0000   1.0000   1.0000   1.0000   1.0000   1.0000
     1.0000   1.0000   1.0000   1.0000   1.0000   1.0000   1.0000   1.0000

          k = 0.1667 0.5191 0.1585 (  8847 PWs)   bands (ev):

   -13.7545 -13.7494 -13.7463 -13.7431 -13.7426 -13.7413 -13.7407 -13.7385
   -13.7317 -13.7283 -13.7241 -13.7208 -13.7122 -13.7112 -13.6932 -13.6913
   -13.6887 -13.6853 -13.6767 -13.6727  -5.8240  -5.5673  -4.9528  -4.6366
     0.2189   0.9451   1.7106   1.8180   3.1212   4.0996   4.3979   4.7109
     5.0179   5.1966   5.5202   5.8526   6.0931   6.7127   6.9640   7.0653

     occupation numbers 
     1.0000   1.0000   1.0000   1.0000   1.0000   1.0000   1.0000   1.0000
     1.0000   1.0000   1.0000   1.0000   1.0000   1.0000   1.0000   1.0000
     1.0000   1.0000   1.0000   1.0000   1.0000   1.0000   1.0000   1.0000
     1.0000   1.0000   1.0000   1.0000   1.0000   1.0000   1.0000   1.0000
     1.0000   1.0000   1.0000   1.0000   1.0000   1.0000   1.0000   1.0000

          k = 0.1667 0.5191 0.4754 (  8834 PWs)   bands (ev):

   -13.7544 -13.7493 -13.7477 -13.7437 -13.7427 -13.7417 -13.7402 -13.7394
   -13.7316 -13.7285 -13.7218 -13.7186 -13.7126 -13.7102 -13.6930 -13.6911
   -13.6890 -13.6861 -13.6763 -13.6730  -5.7152  -5.4687  -4.9466  -4.6589
     0.0587   0.8741   1.3620   1.7220   3.2536   3.6997   3.9820   4.7759
     4.9756   5.5268   5.7539   5.9042   6.5317   6.6604   6.9608   7.1383

     occupation numbers 
     1.0000   1.0000   1.0000   1.0000   1.0000   1.0000   1.0000   1.0000
     1.0000   1.0000   1.0000   1.0000   1.0000   1.0000   1.0000   1.0000
     1.0000   1.0000   1.0000   1.0000   1.0000   1.0000   1.0000   1.0000
     1.0000   1.0000   1.0000   1.0000   1.0000   1.0000   1.0000   1.0000
     1.0000   1.0000   1.0000   1.0000   1.0000   1.0000   1.0000   1.0000

          k = 0.1667 0.5191 0.7923 (  8827 PWs)   bands (ev):

   -13.7543 -13.7504 -13.7485 -13.7449 -13.7432 -13.7416 -13.7408 -13.7397
   -13.7309 -13.7288 -13.7188 -13.7155 -13.7125 -13.7096 -13.6924 -13.6906
   -13.6895 -13.6874 -13.6757 -13.6735  -5.5220  -5.2953  -4.9697  -4.7262
    -0.1216   0.5399   1.1019   1.4927   3.5117   3.6516   3.9315   4.6958
     4.8039   5.5617   5.6228   6.1833   6.3996   6.6507   6.8538   7.1319

     occupation numbers 
     1.0000   1.0000   1.0000   1.0000   1.0000   1.0000   1.0000   1.0000
     1.0000   1.0000   1.0000   1.0000   1.0000   1.0000   1.0000   1.0000
     1.0000   1.0000   1.0000   1.0000   1.0000   1.0000   1.0000   1.0000
     1.0000   1.0000   1.0000   1.0000   1.0000   1.0000   1.0000   1.0000
     1.0000   1.0000   1.0000   1.0000   1.0000   1.0000   1.0000   1.0000

          k = 0.1667 0.5191 1.1092 (  8849 PWs)   bands (ev):

   -13.7539 -13.7526 -13.7476 -13.7464 -13.7433 -13.7425 -13.7406 -13.7400
   -13.7300 -13.7294 -13.7160 -13.7144 -13.7114 -13.7099 -13.6915 -13.6906
   -13.6894 -13.6886 -13.6749 -13.6741  -5.2969  -5.1444  -5.0142  -4.8592
    -0.1369   0.1054   1.0784   1.2315   3.8297   3.8905   4.1576   4.4312
     4.7212   5.0495   5.6942   5.9790   6.3392   6.5844   6.8446   7.0306

     occupation numbers 
     1.0000   1.0000   1.0000   1.0000   1.0000   1.0000   1.0000   1.0000
     1.0000   1.0000   1.0000   1.0000   1.0000   1.0000   1.0000   1.0000
     1.0000   1.0000   1.0000   1.0000   1.0000   1.0000   1.0000   1.0000
     1.0000   1.0000   1.0000   1.0000   1.0000   1.0000   1.0000   1.0000
     1.0000   1.0000   1.0000   1.0000   1.0000   1.0000   1.0000   1.0000

          k = 0.1667 0.8652 0.1585 (  8858 PWs)   bands (ev):

   -13.7522 -13.7501 -13.7479 -13.7473 -13.7411 -13.7379 -13.7373 -13.7358
   -13.7309 -13.7305 -13.7241 -13.7172 -13.7131 -13.7082 -13.6969 -13.6960
   -13.6863 -13.6822 -13.6761 -13.6743  -5.5344  -5.3287  -4.8786  -4.6852
     0.0114   0.6125   0.9524   1.2594   3.4592   4.2180   4.5833   4.9181
     5.2814   5.3466   5.6680   5.8497   6.2233   6.6957   6.8013   7.1604

     occupation numbers 
     1.0000   1.0000   1.0000   1.0000   1.0000   1.0000   1.0000   1.0000
     1.0000   1.0000   1.0000   1.0000   1.0000   1.0000   1.0000   1.0000
     1.0000   1.0000   1.0000   1.0000   1.0000   1.0000   1.0000   1.0000
     1.0000   1.0000   1.0000   1.0000   1.0000   1.0000   1.0000   1.0000
     1.0000   1.0000   1.0000   1.0000   1.0000   1.0000   1.0000   1.0000

          k = 0.1667 0.8652 0.4754 (  8857 PWs)   bands (ev):

   -13.7547 -13.7518 -13.7493 -13.7478 -13.7417 -13.7373 -13.7368 -13.7357
   -13.7305 -13.7302 -13.7223 -13.7164 -13.7123 -13.7077 -13.6964 -13.6955
   -13.6863 -13.6829 -13.6759 -13.6743  -5.4395  -5.2445  -4.8644  -4.6850
     0.0493   0.7059   0.9798   1.1956   3.4623   3.5776   3.9242   4.5063
     4.9361   5.4930   5.5866   6.0294   6.1266   6.4601   6.6931   6.9260

     occupation numbers 
     1.0000   1.0000   1.0000   1.0000   1.0000   1.0000   1.0000   1.0000
     1.0000   1.0000   1.0000   1.0000   1.0000   1.0000   1.0000   1.0000
     1.0000   1.0000   1.0000   1.0000   1.0000   1.0000   1.0000   1.0000
     1.0000   1.0000   1.0000   1.0000   1.0000   1.0000   1.0000   1.0000
     1.0000   1.0000   1.0000   1.0000   1.0000   1.0000   1.0000   1.0000

          k = 0.1667 0.8652 0.7923 (  8846 PWs)   bands (ev):

   -13.7573 -13.7550 -13.7509 -13.7497 -13.7413 -13.7377 -13.7361 -13.7354
   -13.7298 -13.7297 -13.7198 -13.7158 -13.7103 -13.7071 -13.6955 -13.6948
   -13.6862 -13.6838 -13.6755 -13.6744  -5.2756  -5.1012  -4.8663  -4.7082
     0.1059   0.6636   1.0323   1.1990   3.0749   3.4097   3.8440   4.0969
     4.3947   4.9945   5.3032   5.6535   5.9535   6.2031   6.4116   6.8845

     occupation numbers 
     1.0000   1.0000   1.0000   1.0000   1.0000   1.0000   1.0000   1.0000
     1.0000   1.0000   1.0000   1.0000   1.0000   1.0000   1.0000   1.0000
     1.0000   1.0000   1.0000   1.0000   1.0000   1.0000   1.0000   1.0000
     1.0000   1.0000   1.0000   1.0000   1.0000   1.0000   1.0000   1.0000
     1.0000   1.0000   1.0000   1.0000   1.0000   1.0000   1.0000   1.0000

          k = 0.1667 0.8652 1.1092 (  8836 PWs)   bands (ev):

   -13.7585 -13.7576 -13.7519 -13.7514 -13.7402 -13.7388 -13.7356 -13.7354
   -13.7293 -13.7293 -13.7176 -13.7162 -13.7081 -13.7071 -13.6947 -13.6945
   -13.6856 -13.6848 -13.6750 -13.6746  -5.0943  -4.9810  -4.8882  -4.7823
     0.2067   0.4091   1.1611   1.2175   3.0897   3.4304   3.5039   3.8842
     4.2643   4.6715   5.0036   5.3988   5.6069   5.8624   6.4911   6.6326

     occupation numbers 
     1.0000   1.0000   1.0000   1.0000   1.0000   1.0000   1.0000   1.0000
     1.0000   1.0000   1.0000   1.0000   1.0000   1.0000   1.0000   1.0000
     1.0000   1.0000   1.0000   1.0000   1.0000   1.0000   1.0000   1.0000
     1.0000   1.0000   1.0000   1.0000   1.0000   1.0000   1.0000   1.0000
     1.0000   1.0000   1.0000   1.0000   1.0000   1.0000   1.0000   1.0000

          k = 0.1667 1.2113 0.1585 (  8861 PWs)   bands (ev):

   -13.7539 -13.7524 -13.7512 -13.7499 -13.7376 -13.7359 -13.7342 -13.7330
   -13.7287 -13.7264 -13.7253 -13.7200 -13.7093 -13.7051 -13.7029 -13.7010
   -13.6813 -13.6789 -13.6769 -13.6765  -5.1807  -5.0692  -4.8989  -4.8666
    -0.0250   0.2935   0.5116   0.7632   3.9770   4.4254   4.7991   5.1128
     5.2948   5.3497   5.7494   6.0123   6.3498   6.5440   6.6099   6.7727

     occupation numbers 
     1.0000   1.0000   1.0000   1.0000   1.0000   1.0000   1.0000   1.0000
     1.0000   1.0000   1.0000   1.0000   1.0000   1.0000   1.0000   1.0000
     1.0000   1.0000   1.0000   1.0000   1.0000   1.0000   1.0000   1.0000
     1.0000   1.0000   1.0000   1.0000   1.0000   1.0000   1.0000   1.0000
     1.0000   1.0000   1.0000   1.0000   1.0000   1.0000   1.0000   1.0000

          k = 0.1667 1.2113 0.4754 (  8876 PWs)   bands (ev):

   -13.7565 -13.7550 -13.7528 -13.7517 -13.7379 -13.7360 -13.7331 -13.7324
   -13.7283 -13.7266 -13.7235 -13.7196 -13.7084 -13.7055 -13.7010 -13.7000
   -13.6815 -13.6796 -13.6765 -13.6763  -5.1110  -5.0087  -4.8658  -4.8319
     0.1203   0.4316   0.6389   0.8167   3.7344   3.9286   4.1925   4.4781
     4.6460   5.0988   5.5387   5.7242   5.8441   6.1306   6.5856   6.8528

     occupation numbers 
     1.0000   1.0000   1.0000   1.0000   1.0000   1.0000   1.0000   1.0000
     1.0000   1.0000   1.0000   1.0000   1.0000   1.0000   1.0000   1.0000
     1.0000   1.0000   1.0000   1.0000   1.0000   1.0000   1.0000   1.0000
     1.0000   1.0000   1.0000   1.0000   1.0000   1.0000   1.0000   1.0000
     1.0000   1.0000   1.0000   1.0000   1.0000   1.0000   1.0000   1.0000

          k = 0.1667 1.2113 0.7923 (  8838 PWs)   bands (ev):

   -13.7597 -13.7586 -13.7550 -13.7543 -13.7379 -13.7364 -13.7322 -13.7317
   -13.7275 -13.7263 -13.7217 -13.7192 -13.7068 -13.7052 -13.6989 -13.6985
   -13.6816 -13.6804 -13.6761 -13.6760  -4.9985  -4.9136  -4.8262  -4.7884
     0.3661   0.6445   0.8391   0.9004   3.0890   3.5340   3.6333   3.9779
     4.1989   4.5613   4.8739   5.3375   5.4331   5.7004   6.4421   6.5869

     occupation numbers 
     1.0000   1.0000   1.0000   1.0000   1.0000   1.0000   1.0000   1.0000
     1.0000   1.0000   1.0000   1.0000   1.0000   1.0000   1.0000   1.0000
     1.0000   1.0000   1.0000   1.0000   1.0000   1.0000   1.0000   1.0000
     1.0000   1.0000   1.0000   1.0000   1.0000   1.0000   1.0000   1.0000
     1.0000   1.0000   1.0000   1.0000   1.0000   1.0000   1.0000   1.0000

          k = 0.1667 1.2113 1.1092 (  8845 PWs)   bands (ev):

   -13.7617 -13.7613 -13.7565 -13.7563 -13.7376 -13.7370 -13.7317 -13.7315
   -13.7266 -13.7262 -13.7203 -13.7194 -13.7053 -13.7049 -13.6976 -13.6975
   -13.6814 -13.6809 -13.6759 -13.6759  -4.8904  -4.8413  -4.8069  -4.7747
     0.6059   0.7257   1.0024   1.0336   2.8320   3.0350   3.4129   3.5701
     3.9940   4.0539   4.5434   4.8623   5.4052   5.5961   6.3200   6.3660

     occupation numbers 
     1.0000   1.0000   1.0000   1.0000   1.0000   1.0000   1.0000   1.0000
     1.0000   1.0000   1.0000   1.0000   1.0000   1.0000   1.0000   1.0000
     1.0000   1.0000   1.0000   1.0000   1.0000   1.0000   1.0000   1.0000
     1.0000   1.0000   1.0000   1.0000   1.0000   1.0000   1.0000   1.0000
     1.0000   1.0000   1.0000   1.0000   1.0000   1.0000   1.0000   1.0000

          k =-0.5000 0.1730 0.1585 (  8832 PWs)   bands (ev):

   -13.7562 -13.7562 -13.7456 -13.7456 -13.7428 -13.7428 -13.7364 -13.7364
   -13.7281 -13.7281 -13.7241 -13.7241 -13.7127 -13.7127 -13.6923 -13.6923
   -13.6862 -13.6862 -13.6742 -13.6742  -5.8690  -5.8690  -4.8071  -4.8071
     0.6642   0.6642   2.3211   2.3211   3.6465   3.6465   4.5417   4.5417
     4.9853   4.9853   5.5816   5.5816   5.9265   5.9265   7.0454   7.0454

     occupation numbers 
     1.0000   1.0000   1.0000   1.0000   1.0000   1.0000   1.0000   1.0000
     1.0000   1.0000   1.0000   1.0000   1.0000   1.0000   1.0000   1.0000
     1.0000   1.0000   1.0000   1.0000   1.0000   1.0000   1.0000   1.0000
     1.0000   1.0000   1.0000   1.0000   1.0000   1.0000   1.0000   1.0000
     1.0000   1.0000   1.0000   1.0000   1.0000   1.0000   1.0000   1.0000

          k =-0.5000 0.1730 0.4754 (  8818 PWs)   bands (ev):

   -13.7553 -13.7553 -13.7456 -13.7456 -13.7437 -13.7437 -13.7371 -13.7371
   -13.7280 -13.7280 -13.7219 -13.7219 -13.7124 -13.7124 -13.6922 -13.6922
   -13.6868 -13.6868 -13.6742 -13.6742  -5.7593  -5.7593  -4.8210  -4.8210
     0.3712   0.3712   1.8626   1.8626   3.8601   3.8601   4.6012   4.6012
     5.2860   5.2860   5.7322   5.7322   6.3847   6.3847   6.9436   6.9436

     occupation numbers 
     1.0000   1.0000   1.0000   1.0000   1.0000   1.0000   1.0000   1.0000
     1.0000   1.0000   1.0000   1.0000   1.0000   1.0000   1.0000   1.0000
     1.0000   1.0000   1.0000   1.0000   1.0000   1.0000   1.0000   1.0000
     1.0000   1.0000   1.0000   1.0000   1.0000   1.0000   1.0000   1.0000
     1.0000   1.0000   1.0000   1.0000   1.0000   1.0000   1.0000   1.0000

          k =-0.5000 0.1730 0.7923 (  8832 PWs)   bands (ev):

   -13.7539 -13.7539 -13.7465 -13.7465 -13.7441 -13.7441 -13.7382 -13.7382
   -13.7278 -13.7278 -13.7185 -13.7185 -13.7123 -13.7123 -13.6921 -13.6921
   -13.6876 -13.6876 -13.6743 -13.6743  -5.5650  -5.5650  -4.8784  -4.8784
     0.0298   0.0298   1.3226   1.3226   4.1769   4.1769   4.8807   4.8807
     5.4257   5.4257   5.9598   5.9598   6.5974   6.5974   7.1318   7.1318

     occupation numbers 
     1.0000   1.0000   1.0000   1.0000   1.0000   1.0000   1.0000   1.0000
     1.0000   1.0000   1.0000   1.0000   1.0000   1.0000   1.0000   1.0000
     1.0000   1.0000   1.0000   1.0000   1.0000   1.0000   1.0000   1.0000
     1.0000   1.0000   1.0000   1.0000   1.0000   1.0000   1.0000   1.0000
     1.0000   1.0000   1.0000   1.0000   1.0000   1.0000   1.0000   1.0000

          k =-0.5000 0.1730 1.1092 (  8836 PWs)   bands (ev):

   -13.7526 -13.7526 -13.7477 -13.7477 -13.7443 -13.7443 -13.7390 -13.7390
   -13.7276 -13.7276 -13.7155 -13.7155 -13.7128 -13.7128 -13.6920 -13.6920
   -13.6880 -13.6880 -13.6743 -13.6743  -5.3545  -5.3545  -4.9918  -4.9918
    -0.1656  -0.1656   0.9697   0.9697   4.5867   4.5867   5.1810   5.1810
     5.2612   5.2612   5.8091   5.8091   6.9844   6.9844   7.2610   7.2610

     occupation numbers 
     1.0000   1.0000   1.0000   1.0000   1.0000   1.0000   1.0000   1.0000
     1.0000   1.0000   1.0000   1.0000   1.0000   1.0000   1.0000   1.0000
     1.0000   1.0000   1.0000   1.0000   1.0000   1.0000   1.0000   1.0000
     1.0000   1.0000   1.0000   1.0000   1.0000   1.0000   1.0000   1.0000
     1.0000   1.0000   1.0000   1.0000   1.0000   1.0000   1.0000   1.0000

          k =-0.5000 0.5191 0.1585 (  8830 PWs)   bands (ev):

   -13.7519 -13.7519 -13.7451 -13.7451 -13.7422 -13.7422 -13.7392 -13.7392
   -13.7300 -13.7300 -13.7222 -13.7222 -13.7118 -13.7118 -13.6922 -13.6922
   -13.6870 -13.6870 -13.6746 -13.6746  -5.7179  -5.7179  -4.7720  -4.7720
     0.4923   0.4923   1.8141   1.8141   3.7744   3.7744   4.4210   4.4210
     5.2969   5.2969   5.4779   5.4779   6.1484   6.1484   7.1130   7.1130

     occupation numbers 
     1.0000   1.0000   1.0000   1.0000   1.0000   1.0000   1.0000   1.0000
     1.0000   1.0000   1.0000   1.0000   1.0000   1.0000   1.0000   1.0000
     1.0000   1.0000   1.0000   1.0000   1.0000   1.0000   1.0000   1.0000
     1.0000   1.0000   1.0000   1.0000   1.0000   1.0000   1.0000   1.0000
     1.0000   1.0000   1.0000   1.0000   1.0000   1.0000   1.0000   1.0000

          k =-0.5000 0.5191 0.4754 (  8836 PWs)   bands (ev):

   -13.7519 -13.7519 -13.7463 -13.7463 -13.7420 -13.7420 -13.7396 -13.7396
   -13.7299 -13.7299 -13.7202 -13.7202 -13.7114 -13.7114 -13.6920 -13.6920
   -13.6876 -13.6876 -13.6745 -13.6745  -5.6142  -5.6142  -4.7802  -4.7802
     0.3614   0.3614   1.5988   1.5988   3.7229   3.7229   4.2856   4.2856
     4.9603   4.9603   5.9401   5.9401   6.5327   6.5327   7.0454   7.0454

     occupation numbers 
     1.0000   1.0000   1.0000   1.0000   1.0000   1.0000   1.0000   1.0000
     1.0000   1.0000   1.0000   1.0000   1.0000   1.0000   1.0000   1.0000
     1.0000   1.0000   1.0000   1.0000   1.0000   1.0000   1.0000   1.0000
     1.0000   1.0000   1.0000   1.0000   1.0000   1.0000   1.0000   1.0000
     1.0000   1.0000   1.0000   1.0000   1.0000   1.0000   1.0000   1.0000

          k =-0.5000 0.5191 0.7923 (  8836 PWs)   bands (ev):

   -13.7522 -13.7522 -13.7479 -13.7479 -13.7419 -13.7419 -13.7398 -13.7398
   -13.7296 -13.7296 -13.7176 -13.7176 -13.7108 -13.7108 -13.6917 -13.6917
   -13.6885 -13.6885 -13.6744 -13.6744  -5.4325  -5.4325  -4.8242  -4.8242
     0.1576   0.1576   1.2973   1.2973   3.7164   3.7164   4.4570   4.4570
     4.8134   4.8134   6.0022   6.0022   6.3918   6.3918   7.0047   7.0047

     occupation numbers 
     1.0000   1.0000   1.0000   1.0000   1.0000   1.0000   1.0000   1.0000
     1.0000   1.0000   1.0000   1.0000   1.0000   1.0000   1.0000   1.0000
     1.0000   1.0000   1.0000   1.0000   1.0000   1.0000   1.0000   1.0000
     1.0000   1.0000   1.0000   1.0000   1.0000   1.0000   1.0000   1.0000
     1.0000   1.0000   1.0000   1.0000   1.0000   1.0000   1.0000   1.0000

          k =-0.5000 0.5191 1.1092 (  8842 PWs)   bands (ev):

   -13.7525 -13.7525 -13.7491 -13.7491 -13.7418 -13.7418 -13.7399 -13.7399
   -13.7295 -13.7295 -13.7158 -13.7158 -13.7103 -13.7103 -13.6913 -13.6913
   -13.6891 -13.6891 -13.6743 -13.6743  -5.2392  -5.2392  -4.9187  -4.9187
     0.0141   0.0141   1.0734   1.0734   3.9549   3.9549   4.3543   4.3543
     5.0574   5.0574   5.6018   5.6018   6.2767   6.2767   6.8310   6.8310

     occupation numbers 
     1.0000   1.0000   1.0000   1.0000   1.0000   1.0000   1.0000   1.0000
     1.0000   1.0000   1.0000   1.0000   1.0000   1.0000   1.0000   1.0000
     1.0000   1.0000   1.0000   1.0000   1.0000   1.0000   1.0000   1.0000
     1.0000   1.0000   1.0000   1.0000   1.0000   1.0000   1.0000   1.0000
     1.0000   1.0000   1.0000   1.0000   1.0000   1.0000   1.0000   1.0000

          k =-0.5000 0.8652 0.1585 (  8842 PWs)   bands (ev):

   -13.7516 -13.7516 -13.7469 -13.7469 -13.7393 -13.7393 -13.7374 -13.7374
   -13.7304 -13.7304 -13.7210 -13.7210 -13.7101 -13.7101 -13.6966 -13.6966
   -13.6841 -13.6841 -13.6752 -13.6752  -5.4480  -5.4480  -4.7648  -4.7648
     0.2594   0.2594   1.1118   1.1118   4.0613   4.0613   4.5986   4.5986
     5.4642   5.4642   5.6300   5.6300   6.1715   6.1715   6.9904   6.9904

     occupation numbers 
     1.0000   1.0000   1.0000   1.0000   1.0000   1.0000   1.0000   1.0000
     1.0000   1.0000   1.0000   1.0000   1.0000   1.0000   1.0000   1.0000
     1.0000   1.0000   1.0000   1.0000   1.0000   1.0000   1.0000   1.0000
     1.0000   1.0000   1.0000   1.0000   1.0000   1.0000   1.0000   1.0000
     1.0000   1.0000   1.0000   1.0000   1.0000   1.0000   1.0000   1.0000

          k =-0.5000 0.8652 0.4754 (  8844 PWs)   bands (ev):

   -13.7534 -13.7534 -13.7486 -13.7486 -13.7394 -13.7394 -13.7366 -13.7366
   -13.7299 -13.7299 -13.7200 -13.7200 -13.7093 -13.7093 -13.6963 -13.6963
   -13.6844 -13.6844 -13.6751 -13.6751  -5.3583  -5.3583  -4.7581  -4.7581
     0.3154   0.3154   1.1085   1.1085   3.6143   3.6143   4.4002   4.4002
     4.8771   4.8771   5.8833   5.8833   6.0962   6.0962   6.8850   6.8850

     occupation numbers 
     1.0000   1.0000   1.0000   1.0000   1.0000   1.0000   1.0000   1.0000
     1.0000   1.0000   1.0000   1.0000   1.0000   1.0000   1.0000   1.0000
     1.0000   1.0000   1.0000   1.0000   1.0000   1.0000   1.0000   1.0000
     1.0000   1.0000   1.0000   1.0000   1.0000   1.0000   1.0000   1.0000
     1.0000   1.0000   1.0000   1.0000   1.0000   1.0000   1.0000   1.0000

          k =-0.5000 0.8652 0.7923 (  8846 PWs)   bands (ev):

   -13.7557 -13.7557 -13.7510 -13.7510 -13.7392 -13.7392 -13.7359 -13.7359
   -13.7292 -13.7292 -13.7187 -13.7187 -13.7078 -13.7078 -13.6958 -13.6958
   -13.6847 -13.6847 -13.6749 -13.6749  -5.2056  -5.2056  -4.7701  -4.7701
     0.3500   0.3500   1.1164   1.1164   3.2662   3.2662   4.0690   4.0690
     4.6871   4.6871   5.3593   5.3593   5.9354   5.9354   6.7244   6.7244

     occupation numbers 
     1.0000   1.0000   1.0000   1.0000   1.0000   1.0000   1.0000   1.0000
     1.0000   1.0000   1.0000   1.0000   1.0000   1.0000   1.0000   1.0000
     1.0000   1.0000   1.0000   1.0000   1.0000   1.0000   1.0000   1.0000
     1.0000   1.0000   1.0000   1.0000   1.0000   1.0000   1.0000   1.0000
     1.0000   1.0000   1.0000   1.0000   1.0000   1.0000   1.0000   1.0000

          k =-0.5000 0.8652 1.1092 (  8840 PWs)   bands (ev):

   -13.7574 -13.7574 -13.7527 -13.7527 -13.7391 -13.7391 -13.7356 -13.7356
   -13.7288 -13.7288 -13.7179 -13.7179 -13.7066 -13.7066 -13.6954 -13.6954
   -13.6849 -13.6849 -13.6747 -13.6747  -5.0509  -5.0509  -4.8222  -4.8222
     0.3272   0.3272   1.1447   1.1447   3.2788   3.2788   3.6340   3.6340
     4.6851   4.6851   4.9950   4.9950   5.8836   5.8836   6.3863   6.3863

     occupation numbers 
     1.0000   1.0000   1.0000   1.0000   1.0000   1.0000   1.0000   1.0000
     1.0000   1.0000   1.0000   1.0000   1.0000   1.0000   1.0000   1.0000
     1.0000   1.0000   1.0000   1.0000   1.0000   1.0000   1.0000   1.0000
     1.0000   1.0000   1.0000   1.0000   1.0000   1.0000   1.0000   1.0000
     1.0000   1.0000   1.0000   1.0000   1.0000   1.0000   1.0000   1.0000

          k =-0.5000 1.2113 0.1585 (  8852 PWs)   bands (ev):

   -13.7528 -13.7528 -13.7511 -13.7511 -13.7357 -13.7357 -13.7350 -13.7350
   -13.7270 -13.7270 -13.7228 -13.7228 -13.7068 -13.7068 -13.7022 -13.7022
   -13.6800 -13.6800 -13.6767 -13.6767  -5.1316  -5.1316  -4.8765  -4.8765
     0.2126   0.2126   0.5136   0.5136   4.5263   4.5263   4.8731   4.8731
     5.3651   5.3651   5.6018   5.6018   6.2915   6.2915   6.6426   6.6426

     occupation numbers 
     1.0000   1.0000   1.0000   1.0000   1.0000   1.0000   1.0000   1.0000
     1.0000   1.0000   1.0000   1.0000   1.0000   1.0000   1.0000   1.0000
     1.0000   1.0000   1.0000   1.0000   1.0000   1.0000   1.0000   1.0000
     1.0000   1.0000   1.0000   1.0000   1.0000   1.0000   1.0000   1.0000
     1.0000   1.0000   1.0000   1.0000   1.0000   1.0000   1.0000   1.0000

          k =-0.5000 1.2113 0.4754 (  8850 PWs)   bands (ev):

   -13.7549 -13.7549 -13.7532 -13.7532 -13.7357 -13.7357 -13.7346 -13.7346
   -13.7263 -13.7263 -13.7223 -13.7223 -13.7058 -13.7058 -13.7014 -13.7014
   -13.6801 -13.6801 -13.6767 -13.6767  -5.0662  -5.0662  -4.8427  -4.8427
     0.3461   0.3461   0.6205   0.6205   3.9002   3.9002   4.4212   4.4212
     4.9508   4.9508   5.3926   5.3926   6.0499   6.0499   6.4833   6.4833

     occupation numbers 
     1.0000   1.0000   1.0000   1.0000   1.0000   1.0000   1.0000   1.0000
     1.0000   1.0000   1.0000   1.0000   1.0000   1.0000   1.0000   1.0000
     1.0000   1.0000   1.0000   1.0000   1.0000   1.0000   1.0000   1.0000
     1.0000   1.0000   1.0000   1.0000   1.0000   1.0000   1.0000   1.0000
     1.0000   1.0000   1.0000   1.0000   1.0000   1.0000   1.0000   1.0000

          k =-0.5000 1.2113 0.7923 (  8834 PWs)   bands (ev):

   -13.7578 -13.7578 -13.7561 -13.7561 -13.7358 -13.7358 -13.7343 -13.7343
   -13.7253 -13.7253 -13.7215 -13.7215 -13.7041 -13.7041 -13.7002 -13.7002
   -13.6802 -13.6802 -13.6766 -13.6766  -4.9626  -4.9626  -4.8010  -4.8010
     0.5464   0.5464   0.8046   0.8046   3.3301   3.3301   3.8413   3.8413
     4.3934   4.3934   4.8491   4.8491   5.9385   5.9385   6.3082   6.3082

     occupation numbers 
     1.0000   1.0000   1.0000   1.0000   1.0000   1.0000   1.0000   1.0000
     1.0000   1.0000   1.0000   1.0000   1.0000   1.0000   1.0000   1.0000
     1.0000   1.0000   1.0000   1.0000   1.0000   1.0000   1.0000   1.0000
     1.0000   1.0000   1.0000   1.0000   1.0000   1.0000   1.0000   1.0000
     1.0000   1.0000   1.0000   1.0000   1.0000   1.0000   1.0000   1.0000

          k =-0.5000 1.2113 1.1092 (  8830 PWs)   bands (ev):

   -13.7598 -13.7598 -13.7581 -13.7581 -13.7360 -13.7360 -13.7342 -13.7342
   -13.7246 -13.7246 -13.7210 -13.7210 -13.7029 -13.7029 -13.6993 -13.6993
   -13.6802 -13.6802 -13.6766 -13.6766  -4.8707  -4.8707  -4.7861  -4.7861
     0.6791   0.6791   0.9882   0.9882   3.1278   3.1278   3.3755   3.3755
     4.0289   4.0289   4.3299   4.3299   6.0331   6.0331   6.2183   6.2183

     occupation numbers 
     1.0000   1.0000   1.0000   1.0000   1.0000   1.0000   1.0000   1.0000
     1.0000   1.0000   1.0000   1.0000   1.0000   1.0000   1.0000   1.0000
     1.0000   1.0000   1.0000   1.0000   1.0000   1.0000   1.0000   1.0000
     1.0000   1.0000   1.0000   1.0000   1.0000   1.0000   1.0000   1.0000
     1.0000   1.0000   1.0000   1.0000   1.0000   1.0000   1.0000   1.0000

     highest occupied level (ev):     7.3959

!    total energy              =    -827.74799539 Ry
     estimated scf accuracy    <          2.4E-10 Ry

     The total energy is the sum of the following terms:
     one-electron contribution =    -266.48519685 Ry
     hartree contribution      =     182.42576347 Ry
     xc contribution           =    -308.98360570 Ry
     ewald contribution        =    -434.58518412 Ry
     DFT-D3 Dispersion         =      -0.11977218 Ry

     convergence has been achieved in  12 iterations

     Forces acting on atoms (cartesian axes, Ry/au):

     atom    1 type  2   force =    -0.00004301    0.00000000   -0.00040683
     atom    2 type  1   force =    -0.00008420    0.00000000   -0.00004720
     atom    3 type  2   force =     0.00004301    0.00000000   -0.00040683
     atom    4 type  1   force =     0.00008420    0.00000000   -0.00004720
     atom    5 type  2   force =    -0.00004301    0.00000000    0.00040683
     atom    6 type  1   force =    -0.00008420   -0.00000000    0.00004720
     atom    7 type  2   force =     0.00004301    0.00000000    0.00040683
     atom    8 type  1   force =     0.00008420    0.00000000    0.00004720
     The non-local contrib.  to forces
     atom    1 type  2   force =    -0.10304740    0.00000000    0.11351425
     atom    2 type  1   force =     0.34580176    0.00000000    0.30339928
     atom    3 type  2   force =     0.10304740    0.00000000    0.11351425
     atom    4 type  1   force =    -0.34580176    0.00000000    0.30339928
     atom    5 type  2   force =    -0.10304740    0.00000000   -0.11351425
     atom    6 type  1   force =     0.34580176    0.00000000   -0.30339928
     atom    7 type  2   force =     0.10304740    0.00000000   -0.11351425
     atom    8 type  1   force =    -0.34580176    0.00000000   -0.30339928
     The ionic contribution  to forces
     atom    1 type  2   force =     1.14652820   -0.00000000   -1.31153196
     atom    2 type  1   force =    -0.60889419   -0.00000000   -0.74633219
     atom    3 type  2   force =    -1.14652820    0.00000000   -1.31153196
     atom    4 type  1   force =     0.60889419   -0.00000000   -0.74633219
     atom    5 type  2   force =     1.14652820   -0.00000000    1.31153196
     atom    6 type  1   force =    -0.60889419   -0.00000000    0.74633219
     atom    7 type  2   force =    -1.14652820    0.00000000    1.31153196
     atom    8 type  1   force =     0.60889419    0.00000000    0.74633219
     The local contribution  to forces
     atom    1 type  2   force =    -1.05440003    0.00000000    1.20851057
     atom    2 type  1   force =     0.26994792    0.00000000    0.44693444
     atom    3 type  2   force =     1.05440003   -0.00000000    1.20851057
     atom    4 type  1   force =    -0.26994792    0.00000000    0.44693444
     atom    5 type  2   force =    -1.05440003    0.00000000   -1.20851057
     atom    6 type  1   force =     0.26994792    0.00000000   -0.44693444
     atom    7 type  2   force =     1.05440003   -0.00000000   -1.20851057
     atom    8 type  1   force =    -0.26994792   -0.00000000   -0.44693444
     The core correction contribution to forces
     atom    1 type  2   force =     0.01155150   -0.00000000   -0.01255919
     atom    2 type  1   force =    -0.00627700    0.00000000   -0.00500181
     atom    3 type  2   force =    -0.01155150   -0.00000000   -0.01255919
     atom    4 type  1   force =     0.00627700    0.00000000   -0.00500181
     atom    5 type  2   force =     0.01155150   -0.00000000    0.01255919
     atom    6 type  1   force =    -0.00627700    0.00000000    0.00500181
     atom    7 type  2   force =    -0.01155150    0.00000000    0.01255919
     atom    8 type  1   force =     0.00627700   -0.00000000    0.00500181
     The Hubbard contrib.    to forces
     atom    1 type  2   force =     0.00000000    0.00000000    0.00000000
     atom    2 type  1   force =     0.00000000    0.00000000    0.00000000
     atom    3 type  2   force =     0.00000000    0.00000000    0.00000000
     atom    4 type  1   force =     0.00000000    0.00000000    0.00000000
     atom    5 type  2   force =     0.00000000    0.00000000    0.00000000
     atom    6 type  1   force =     0.00000000    0.00000000    0.00000000
     atom    7 type  2   force =     0.00000000    0.00000000    0.00000000
     atom    8 type  1   force =     0.00000000    0.00000000    0.00000000
     The SCF correction term to forces
     atom    1 type  2   force =     0.00000324   -0.00000000   -0.00000057
     atom    2 type  1   force =    -0.00003546   -0.00000000   -0.00001808
     atom    3 type  2   force =    -0.00000324   -0.00000000   -0.00000057
     atom    4 type  1   force =     0.00003546    0.00000000   -0.00001808
     atom    5 type  2   force =     0.00000324   -0.00000000    0.00000057
     atom    6 type  1   force =    -0.00003546    0.00000000    0.00001808
     atom    7 type  2   force =    -0.00000324   -0.00000000    0.00000057
     atom    8 type  1   force =     0.00003546    0.00000000    0.00001808

     DFT-D3 dispersion contribution to forces:
     atom    1 type  2   force =    -0.00067853    0.00000000    0.00166007
     atom    2 type  1   force =    -0.00062722    0.00000000    0.00097115
     atom    3 type  2   force =     0.00067853   -0.00000000    0.00166007
     atom    4 type  1   force =     0.00062722   -0.00000000    0.00097115
     atom    5 type  2   force =    -0.00067853    0.00000000   -0.00166007
     atom    6 type  1   force =    -0.00062722    0.00000000   -0.00097115
     atom    7 type  2   force =     0.00067853   -0.00000000   -0.00166007
     atom    8 type  1   force =     0.00062722   -0.00000000   -0.00097115

     Total force =     0.000841     Total SCF correction =     0.000080

     DFT-D3 dispersion Force =     0.004267

     Writing output data file ./tmp/SnSe_pnma.save/

     init_run     :     10.62s CPU     11.22s WALL (       1 calls)
     electrons    :    393.69s CPU    377.71s WALL (       1 calls)
     forces       :      8.40s CPU      9.05s WALL (       1 calls)

     Called by init_run:
     wfcinit      :      7.54s CPU      7.00s WALL (       1 calls)
     wfcinit:atom :      0.04s CPU      0.03s WALL (      32 calls)
     wfcinit:wfcr :      7.24s CPU      6.74s WALL (      32 calls)
     potinit      :      0.68s CPU      0.73s WALL (       1 calls)
     hinit0       :      1.05s CPU      1.08s WALL (       1 calls)

     Called by electrons:
     c_bands      :    352.31s CPU    331.11s WALL (      12 calls)
     sum_band     :     24.99s CPU     23.59s WALL (      12 calls)
     v_of_rho     :      1.63s CPU      1.74s WALL (      13 calls)
     v_h          :      0.13s CPU      0.14s WALL (      13 calls)
     v_xc         :      1.60s CPU      1.72s WALL (      14 calls)
     newd         :     15.39s CPU     22.93s WALL (      13 calls)
     mix_rho      :      0.26s CPU      0.27s WALL (      12 calls)

     Called by c_bands:
     init_us_2    :      1.93s CPU      1.69s WALL (     832 calls)
     cegterg      :    342.44s CPU    322.52s WALL (     384 calls)

     Called by sum_band:
     sum_band:wei :      0.00s CPU      0.00s WALL (      12 calls)
     sum_band:loo :     16.02s CPU     14.29s WALL (      12 calls)
     sum_band:buf :      0.22s CPU      0.21s WALL (     384 calls)
     sum_band:ini :      0.90s CPU      0.79s WALL (     384 calls)
     sum_band:cal :      5.81s CPU      4.71s WALL (     384 calls)
     sum_band:bec :      0.03s CPU      0.03s WALL (     384 calls)
     addusdens    :      8.36s CPU      8.67s WALL (      12 calls)
     addusd:skk   :      0.03s CPU      0.06s WALL (      24 calls)
     addusd:dgemm :      3.02s CPU      2.88s WALL (      24 calls)
     addusd:qvan2 :      4.96s CPU      4.68s WALL (      24 calls)

     Called by *egterg:
     cdiaghg      :    104.47s CPU    102.05s WALL (    1682 calls)
     cegterg:over :     57.12s CPU     60.05s WALL (    1298 calls)
     cegterg:upda :     19.93s CPU     19.39s WALL (    1298 calls)
     cegterg:last :     27.51s CPU     23.43s WALL (     985 calls)
     cdiaghg:chol :     10.89s CPU      9.41s WALL (    1682 calls)
     cdiaghg:inve :      0.16s CPU      0.17s WALL (    1682 calls)
     cdiaghg:para :     31.31s CPU     38.95s WALL (    3364 calls)
     h_psi        :     97.96s CPU     87.12s WALL (    1714 calls)
     s_psi        :     14.79s CPU      8.73s WALL (    1714 calls)
     g_psi        :      0.55s CPU      0.50s WALL (    1298 calls)

     Called by h_psi:
     h_psi:calbec :     22.66s CPU     20.88s WALL (    1714 calls)
     vloc_psi     :     59.43s CPU     56.16s WALL (    1714 calls)
     add_vuspsi   :     15.48s CPU      9.70s WALL (    1714 calls)

     General routines
     calbec       :     31.51s CPU     28.25s WALL (    2226 calls)
     fft          :      1.34s CPU      1.44s WALL (     178 calls)
     ffts         :      0.02s CPU      0.03s WALL (      25 calls)
     fftw         :     61.06s CPU     57.65s WALL (  110884 calls)
     interpolate  :      0.13s CPU      0.14s WALL (      13 calls)

     Parallel routines
     fft_scatt_xy :      6.69s CPU      6.37s WALL (  111087 calls)
     fft_scatt_yz :     24.19s CPU     22.85s WALL (  111087 calls)

     PWSCF        :   6m53.06s CPU   6m38.68s WALL


   This run was terminated on:  12:25:29  21May2026            

=------------------------------------------------------------------------------=
   JOB DONE.
=------------------------------------------------------------------------------=
