
     Program PWSCF v.6.7MaX starts on  5May2026 at 19:19:16 

     This program is part of the open-source Quantum ESPRESSO suite
     for quantum simulation of materials; please cite
         "P. Giannozzi et al., J. Phys.:Condens. Matter 21 395502 (2009);
         "P. Giannozzi et al., J. Phys.:Condens. Matter 29 465901 (2017);
          URL http://www.quantum-espresso.org", 
     in publications or presentations arising from this work. More details at
     http://www.quantum-espresso.org/quote

     Parallel version (MPI), running on     4 processors

     MPI processes distributed on     1 nodes
     K-points division:     npool     =       4
     Waiting for input...
     Reading input from standard input

     Current dimensions of program PWSCF are:
     Max number of different atomic species (ntypx) = 10
     Max number of k-points (npk) =  40000
     Max angular momentum in pseudopotentials (lmaxx) =  3

     Subspace diagonalization in iterative solution of the eigenvalue problem:
     a serial algorithm will be used


     G-vector sticks info
     --------------------
     sticks:   dense  smooth     PW     G-vecs:    dense   smooth      PW
     Sum        2033     811    265                44309    11195    2091



     bravais-lattice index     =            8
     lattice parameter (alat)  =      21.4862  a.u.
     unit-cell volume          =    1425.7436 (a.u.)^3
     number of atoms/cell      =            8
     number of atomic types    =            2
     number of electrons       =        80.00
     number of Kohn-Sham states=           50
     kinetic-energy cutoff     =      15.0000  Ry
     charge density cutoff     =     150.0000  Ry
     scf convergence threshold =      1.0E-08
     mixing beta               =       0.7000
     number of iterations used =            8  plain     mixing
     Exchange-correlation= SLA  PW   PBE  PBE
                           (   1   4   3   4   0   0   0)

     celldm(1)=  21.486186  celldm(2)=   0.368162  celldm(3)=   0.390413
     celldm(4)=   0.000000  celldm(5)=   0.000000  celldm(6)=   0.000000

     crystal axes: (cart. coord. in units of alat)
               a(1) = (   1.000000   0.000000   0.000000 )  
               a(2) = (   0.000000   0.368162   0.000000 )  
               a(3) = (   0.000000   0.000000   0.390413 )  

     reciprocal axes: (cart. coord. in units 2 pi/alat)
               b(1) = (  1.000000  0.000000  0.000000 )  
               b(2) = (  0.000000  2.716197  0.000000 )  
               b(3) = (  0.000000  0.000000  2.561388 )  


     PseudoPot. # 1 for Sn read from file:
     ../pseudo/Sn_pbe_v1.uspp.F.UPF
     MD5 check sum: 4cf58ce39ec5d5d420df3dd08604eb00
     Pseudo is Ultrasoft + core correction, Zval = 14.0
     Generated by new atomic code, or converted to UPF format
     Using radial grid of  891 points,  6 beta functions with: 
                l(1) =   0
                l(2) =   0
                l(3) =   1
                l(4) =   1
                l(5) =   2
                l(6) =   2
     Q(r) pseudized with  6 coefficients,  rinner =    1.200   1.200   1.200
                                                       1.200   1.200

     PseudoPot. # 2 for Se read from file:
     ../pseudo/Se_pbe_v1.uspp.F.UPF
     MD5 check sum: 1b3568f3a8ae88f9a2a0ad0698632c85
     Pseudo is Ultrasoft + core correction, Zval =  6.0
     Generated by new atomic code, or converted to UPF format
     Using radial grid of  877 points,  6 beta functions with: 
                l(1) =   0
                l(2) =   0
                l(3) =   1
                l(4) =   1
                l(5) =   2
                l(6) =   2
     Q(r) pseudized with  8 coefficients,  rinner =    1.300   1.300   1.300
                                                       1.300   1.300

     atomic species   valence    mass     pseudopotential
        Sn            14.00   118.71000     Sn( 1.00)
        Se             6.00    78.97100     Se( 1.00)

      8 Sym. Ops., with inversion, found ( 6 have fractional translation)


                                    s                        frac. trans.

      isym =  1     identity                                     

 cryst.   s( 1) = (     1          0          0      )
                  (     0          1          0      )
                  (     0          0          1      )

 cart.    s( 1) = (  1.0000000  0.0000000  0.0000000 )
                  (  0.0000000  1.0000000  0.0000000 )
                  (  0.0000000  0.0000000  1.0000000 )


      isym =  2     180 deg rotation - cart. axis [0,0,1]        

 cryst.   s( 2) = (    -1          0          0      )    f =(  0.5000000 )
                  (     0         -1          0      )       (  0.0000000 )
                  (     0          0          1      )       (  0.5000000 )

 cart.    s( 2) = ( -1.0000000  0.0000000  0.0000000 )    f =(  0.5000000 )
                  (  0.0000000 -1.0000000  0.0000000 )       (  0.0000000 )
                  (  0.0000000  0.0000000  1.0000000 )       (  0.1952067 )


      isym =  3     180 deg rotation - cart. axis [0,1,0]        

 cryst.   s( 3) = (    -1          0          0      )    f =(  0.0000000 )
                  (     0          1          0      )       ( -0.5000000 )
                  (     0          0         -1      )       (  0.0000000 )

 cart.    s( 3) = ( -1.0000000  0.0000000  0.0000000 )    f =(  0.0000000 )
                  (  0.0000000  1.0000000  0.0000000 )       ( -0.1840809 )
                  (  0.0000000  0.0000000 -1.0000000 )       (  0.0000000 )


      isym =  4     180 deg rotation - cart. axis [1,0,0]        

 cryst.   s( 4) = (     1          0          0      )    f =(  0.5000000 )
                  (     0         -1          0      )       (  0.5000000 )
                  (     0          0         -1      )       (  0.5000000 )

 cart.    s( 4) = (  1.0000000  0.0000000  0.0000000 )    f =(  0.5000000 )
                  (  0.0000000 -1.0000000  0.0000000 )       (  0.1840809 )
                  (  0.0000000  0.0000000 -1.0000000 )       (  0.1952067 )


      isym =  5     inversion                                    

 cryst.   s( 5) = (    -1          0          0      )
                  (     0         -1          0      )
                  (     0          0         -1      )

 cart.    s( 5) = ( -1.0000000  0.0000000  0.0000000 )
                  (  0.0000000 -1.0000000  0.0000000 )
                  (  0.0000000  0.0000000 -1.0000000 )


      isym =  6     inv. 180 deg rotation - cart. axis [0,0,1]   

 cryst.   s( 6) = (     1          0          0      )    f =(  0.5000000 )
                  (     0          1          0      )       (  0.0000000 )
                  (     0          0         -1      )       (  0.5000000 )

 cart.    s( 6) = (  1.0000000  0.0000000  0.0000000 )    f =(  0.5000000 )
                  (  0.0000000  1.0000000  0.0000000 )       (  0.0000000 )
                  (  0.0000000  0.0000000 -1.0000000 )       (  0.1952067 )


      isym =  7     inv. 180 deg rotation - cart. axis [0,1,0]   

 cryst.   s( 7) = (     1          0          0      )    f =(  0.0000000 )
                  (     0         -1          0      )       (  0.5000000 )
                  (     0          0          1      )       (  0.0000000 )

 cart.    s( 7) = (  1.0000000  0.0000000  0.0000000 )    f =(  0.0000000 )
                  (  0.0000000 -1.0000000  0.0000000 )       (  0.1840809 )
                  (  0.0000000  0.0000000  1.0000000 )       (  0.0000000 )


      isym =  8     inv. 180 deg rotation - cart. axis [1,0,0]   

 cryst.   s( 8) = (    -1          0          0      )    f =(  0.5000000 )
                  (     0          1          0      )       ( -0.5000000 )
                  (     0          0          1      )       (  0.5000000 )

 cart.    s( 8) = ( -1.0000000  0.0000000  0.0000000 )    f =(  0.5000000 )
                  (  0.0000000  1.0000000  0.0000000 )       ( -0.1840809 )
                  (  0.0000000  0.0000000  1.0000000 )       (  0.1952067 )


     point group D_2h (mmm) 
     there are  8 classes
     the character table:

       E     C2    C2'   C2''  i     s_v   s_v'  s_v''
A_g    1.00  1.00  1.00  1.00  1.00  1.00  1.00  1.00
B_1g   1.00  1.00 -1.00 -1.00  1.00  1.00 -1.00 -1.00
B_2g   1.00 -1.00  1.00 -1.00  1.00 -1.00  1.00 -1.00
B_3g   1.00 -1.00 -1.00  1.00  1.00 -1.00 -1.00  1.00
A_u    1.00  1.00  1.00  1.00 -1.00 -1.00 -1.00 -1.00
B_1u   1.00  1.00 -1.00 -1.00 -1.00 -1.00  1.00  1.00
B_2u   1.00 -1.00  1.00 -1.00 -1.00  1.00 -1.00  1.00
B_3u   1.00 -1.00 -1.00  1.00 -1.00  1.00  1.00 -1.00

     the symmetry operations in each class and the name of the first element:

     E        1
          identity                                               
     C2       2
          180 deg rotation - cart. axis [0,0,1]                  
     C2'      4
          180 deg rotation - cart. axis [1,0,0]                  
     C2''     3
          180 deg rotation - cart. axis [0,1,0]                  
     i        5
          inversion                                              
     s_v      6
          inv. 180 deg rotation - cart. axis [0,0,1]             
     s_v'     8
          inv. 180 deg rotation - cart. axis [1,0,0]             
     s_v''    7
          inv. 180 deg rotation - cart. axis [0,1,0]             

   Cartesian axes

     site n.     atom                  positions (alat units)
         1           Se  tau(   1) = (   0.8555000   0.0920405   0.1884916  )
         2           Sn  tau(   2) = (   0.1187000   0.0920405   0.0385728  )
         3           Se  tau(   3) = (   0.6445000   0.2761214   0.3836983  )
         4           Sn  tau(   4) = (   0.3813000   0.2761214   0.2337795  )
         5           Se  tau(   5) = (   0.3555000   0.0920405   0.0067151  )
         6           Sn  tau(   6) = (   0.6187000   0.0920405   0.1566338  )
         7           Se  tau(   7) = (   0.1445000   0.2761214   0.2019218  )
         8           Sn  tau(   8) = (   0.8813000   0.2761214   0.3518405  )

   Crystallographic axes

     site n.     atom                  positions (cryst. coord.)
         1           Se  tau(   1) = (  0.8555000  0.2500000  0.4828000  )
         2           Sn  tau(   2) = (  0.1187000  0.2500000  0.0988000  )
         3           Se  tau(   3) = (  0.6445000  0.7500000  0.9828000  )
         4           Sn  tau(   4) = (  0.3813000  0.7500000  0.5988000  )
         5           Se  tau(   5) = (  0.3555000  0.2500000  0.0172000  )
         6           Sn  tau(   6) = (  0.6187000  0.2500000  0.4012000  )
         7           Se  tau(   7) = (  0.1445000  0.7500000  0.5172000  )
         8           Sn  tau(   8) = (  0.8813000  0.7500000  0.9012000  )

     number of k points=    32
                       cart. coord. in units 2pi/alat
        k(    1) = (   0.0000000   0.0000000   0.0000000), wk =   0.0277778
        k(    2) = (   0.0000000   0.0000000   0.4268979), wk =   0.0555556
        k(    3) = (   0.0000000   0.0000000   0.8537959), wk =   0.0555556
        k(    4) = (   0.0000000   0.0000000  -1.2806938), wk =   0.0277778
        k(    5) = (   0.0000000   0.4526995   0.0000000), wk =   0.0555556
        k(    6) = (   0.0000000   0.4526995   0.4268979), wk =   0.1111111
        k(    7) = (   0.0000000   0.4526995   0.8537959), wk =   0.1111111
        k(    8) = (   0.0000000   0.4526995  -1.2806938), wk =   0.0555556
        k(    9) = (   0.0000000   0.9053989   0.0000000), wk =   0.0555556
        k(   10) = (   0.0000000   0.9053989   0.4268979), wk =   0.1111111
        k(   11) = (   0.0000000   0.9053989   0.8537959), wk =   0.1111111
        k(   12) = (   0.0000000   0.9053989  -1.2806938), wk =   0.0555556
        k(   13) = (   0.0000000  -1.3580984   0.0000000), wk =   0.0277778
        k(   14) = (   0.0000000  -1.3580984   0.4268979), wk =   0.0555556
        k(   15) = (   0.0000000  -1.3580984   0.8537959), wk =   0.0555556
        k(   16) = (   0.0000000  -1.3580984  -1.2806938), wk =   0.0277778
        k(   17) = (  -0.5000000   0.0000000   0.0000000), wk =   0.0277778
        k(   18) = (  -0.5000000   0.0000000   0.4268979), wk =   0.0555556
        k(   19) = (  -0.5000000   0.0000000   0.8537959), wk =   0.0555556
        k(   20) = (  -0.5000000   0.0000000  -1.2806938), wk =   0.0277778
        k(   21) = (  -0.5000000   0.4526995   0.0000000), wk =   0.0555556
        k(   22) = (  -0.5000000   0.4526995   0.4268979), wk =   0.1111111
        k(   23) = (  -0.5000000   0.4526995   0.8537959), wk =   0.1111111
        k(   24) = (  -0.5000000   0.4526995  -1.2806938), wk =   0.0555556
        k(   25) = (  -0.5000000   0.9053989   0.0000000), wk =   0.0555556
        k(   26) = (  -0.5000000   0.9053989   0.4268979), wk =   0.1111111
        k(   27) = (  -0.5000000   0.9053989   0.8537959), wk =   0.1111111
        k(   28) = (  -0.5000000   0.9053989  -1.2806938), wk =   0.0555556
        k(   29) = (  -0.5000000  -1.3580984   0.0000000), wk =   0.0277778
        k(   30) = (  -0.5000000  -1.3580984   0.4268979), wk =   0.0555556
        k(   31) = (  -0.5000000  -1.3580984   0.8537959), wk =   0.0555556
        k(   32) = (  -0.5000000  -1.3580984  -1.2806938), wk =   0.0277778

                       cryst. coord.
        k(    1) = (   0.0000000   0.0000000   0.0000000), wk =   0.0277778
        k(    2) = (   0.0000000   0.0000000   0.1666667), wk =   0.0555556
        k(    3) = (   0.0000000   0.0000000   0.3333333), wk =   0.0555556
        k(    4) = (   0.0000000   0.0000000  -0.5000000), wk =   0.0277778
        k(    5) = (   0.0000000   0.1666667   0.0000000), wk =   0.0555556
        k(    6) = (   0.0000000   0.1666667   0.1666667), wk =   0.1111111
        k(    7) = (   0.0000000   0.1666667   0.3333333), wk =   0.1111111
        k(    8) = (   0.0000000   0.1666667  -0.5000000), wk =   0.0555556
        k(    9) = (   0.0000000   0.3333333   0.0000000), wk =   0.0555556
        k(   10) = (   0.0000000   0.3333333   0.1666667), wk =   0.1111111
        k(   11) = (   0.0000000   0.3333333   0.3333333), wk =   0.1111111
        k(   12) = (   0.0000000   0.3333333  -0.5000000), wk =   0.0555556
        k(   13) = (   0.0000000  -0.5000000   0.0000000), wk =   0.0277778
        k(   14) = (   0.0000000  -0.5000000   0.1666667), wk =   0.0555556
        k(   15) = (   0.0000000  -0.5000000   0.3333333), wk =   0.0555556
        k(   16) = (   0.0000000  -0.5000000  -0.5000000), wk =   0.0277778
        k(   17) = (  -0.5000000   0.0000000   0.0000000), wk =   0.0277778
        k(   18) = (  -0.5000000   0.0000000   0.1666667), wk =   0.0555556
        k(   19) = (  -0.5000000   0.0000000   0.3333333), wk =   0.0555556
        k(   20) = (  -0.5000000   0.0000000  -0.5000000), wk =   0.0277778
        k(   21) = (  -0.5000000   0.1666667   0.0000000), wk =   0.0555556
        k(   22) = (  -0.5000000   0.1666667   0.1666667), wk =   0.1111111
        k(   23) = (  -0.5000000   0.1666667   0.3333333), wk =   0.1111111
        k(   24) = (  -0.5000000   0.1666667  -0.5000000), wk =   0.0555556
        k(   25) = (  -0.5000000   0.3333333   0.0000000), wk =   0.0555556
        k(   26) = (  -0.5000000   0.3333333   0.1666667), wk =   0.1111111
        k(   27) = (  -0.5000000   0.3333333   0.3333333), wk =   0.1111111
        k(   28) = (  -0.5000000   0.3333333  -0.5000000), wk =   0.0555556
        k(   29) = (  -0.5000000  -0.5000000   0.0000000), wk =   0.0277778
        k(   30) = (  -0.5000000  -0.5000000   0.1666667), wk =   0.0555556
        k(   31) = (  -0.5000000  -0.5000000   0.3333333), wk =   0.0555556
        k(   32) = (  -0.5000000  -0.5000000  -0.5000000), wk =   0.0277778

     Dense  grid:    44309 G-vectors     FFT dimensions: (  90,  32,  36)

     Smooth grid:    11195 G-vectors     FFT dimensions: (  54,  20,  24)

     Dynamical RAM for                 wfc:       1.07 MB

     Dynamical RAM for     wfc (w. buffer):       9.61 MB

     Dynamical RAM for           str. fact:       1.35 MB

     Dynamical RAM for           local pot:       0.00 MB

     Dynamical RAM for          nlocal pot:       3.07 MB

     Dynamical RAM for                qrad:       1.97 MB

     Dynamical RAM for          rho,v,vnew:       4.40 MB

     Dynamical RAM for               rhoin:       1.47 MB

     Dynamical RAM for            rho*nmix:      10.82 MB

     Dynamical RAM for           G-vectors:       2.62 MB

     Dynamical RAM for          h,s,v(r/c):       0.46 MB

     Dynamical RAM for          <psi|beta>:       0.11 MB

     Dynamical RAM for                 psi:       2.13 MB

     Dynamical RAM for                hpsi:       2.13 MB

     Dynamical RAM for                spsi:       2.13 MB

     Dynamical RAM for      wfcinit/wfcrot:       2.28 MB

     Dynamical RAM for           addusdens:      32.62 MB

     Dynamical RAM for          addusforce:      33.48 MB

     Estimated static dynamical RAM per process >      41.29 MB

     Estimated max dynamical RAM per process >      74.77 MB

     Estimated total dynamical RAM >     299.09 MB

     Initial potential from superposition of free atoms

     starting charge   75.99954, renormalised to   80.00000
     Starting wfcs are   52 randomized atomic wfcs

     total cpu time spent up to now is        2.0 secs

     Self-consistent Calculation

     iteration #  1     ecut=    15.00 Ry     beta= 0.70
     Davidson diagonalization with overlap
     ethr =  1.00E-02,  avg # of iterations =  3.8

     total cpu time spent up to now is        6.3 secs

     total energy              =    -822.69205708 Ry
     estimated scf accuracy    <       4.33474678 Ry

     iteration #  2     ecut=    15.00 Ry     beta= 0.70
     Davidson diagonalization with overlap
     ethr =  5.42E-03,  avg # of iterations =  2.0

     total cpu time spent up to now is       10.0 secs

     total energy              =    -824.00022215 Ry
     estimated scf accuracy    <       1.36294724 Ry

     iteration #  3     ecut=    15.00 Ry     beta= 0.70
     Davidson diagonalization with overlap
     ethr =  1.70E-03,  avg # of iterations =  2.0

     total cpu time spent up to now is       14.8 secs

     total energy              =    -824.38676578 Ry
     estimated scf accuracy    <       0.13078927 Ry

     iteration #  4     ecut=    15.00 Ry     beta= 0.70
     Davidson diagonalization with overlap
     ethr =  1.63E-04,  avg # of iterations =  2.6

     total cpu time spent up to now is       19.0 secs

     total energy              =    -824.40708895 Ry
     estimated scf accuracy    <       0.00481961 Ry

     iteration #  5     ecut=    15.00 Ry     beta= 0.70
     Davidson diagonalization with overlap
     ethr =  6.02E-06,  avg # of iterations =  5.0

     total cpu time spent up to now is       24.9 secs

     total energy              =    -824.40807009 Ry
     estimated scf accuracy    <       0.00072818 Ry

     iteration #  6     ecut=    15.00 Ry     beta= 0.70
     Davidson diagonalization with overlap
     ethr =  9.10E-07,  avg # of iterations =  2.3

     total cpu time spent up to now is       28.7 secs

     total energy              =    -824.40823420 Ry
     estimated scf accuracy    <       0.00007642 Ry

     iteration #  7     ecut=    15.00 Ry     beta= 0.70
     Davidson diagonalization with overlap
     ethr =  9.55E-08,  avg # of iterations =  2.0

     total cpu time spent up to now is       32.0 secs

     total energy              =    -824.40824038 Ry
     estimated scf accuracy    <       0.00000841 Ry

     iteration #  8     ecut=    15.00 Ry     beta= 0.70
     Davidson diagonalization with overlap
     ethr =  1.05E-08,  avg # of iterations =  2.0

     total cpu time spent up to now is       35.4 secs

     total energy              =    -824.40824233 Ry
     estimated scf accuracy    <       0.00000004 Ry

     iteration #  9     ecut=    15.00 Ry     beta= 0.70
     Davidson diagonalization with overlap
     ethr =  5.33E-11,  avg # of iterations =  4.2

     total cpu time spent up to now is       41.1 secs

     End of self-consistent calculation

          k = 0.0000 0.0000 0.0000 (  1393 PWs)   bands (ev):

   -14.4867 -14.3542 -14.3104 -14.2991 -14.2890 -14.2824 -14.2745 -14.2688
   -14.2226 -14.2203 -14.1868 -14.1792 -14.1649 -14.1409 -14.1302 -14.1262
   -14.0996 -14.0418 -14.0369 -13.9140  -5.6689  -5.3134  -4.5771  -4.0767
     0.7485   1.8580   2.4998   3.0141   3.2590   4.7315   4.7567   4.8424
     5.2523   5.2975   5.8757   6.3725   6.6035   6.9824   7.4231   7.5849
     8.8999  10.9871  11.1432  11.1785  11.4155  11.5045  12.3782  12.6597
    12.7716  12.7938

     occupation numbers 
     1.0000   1.0000   1.0000   1.0000   1.0000   1.0000   1.0000   1.0000
     1.0000   1.0000   1.0000   1.0000   1.0000   1.0000   1.0000   1.0000
     1.0000   1.0000   1.0000   1.0000   1.0000   1.0000   1.0000   1.0000
     1.0000   1.0000   1.0000   1.0000   1.0000   1.0000   1.0000   1.0000
     1.0000   1.0000   1.0000   1.0000   1.0000   1.0000   1.0000   1.0000
     0.0000   0.0000   0.0000   0.0000   0.0000   0.0000   0.0000   0.0000
     0.0000   0.0000

          k = 0.0000 0.0000 0.4269 (  1385 PWs)   bands (ev):

   -14.4362 -14.4197 -14.3162 -14.3119 -14.2793 -14.2619 -14.2525 -14.2420
   -14.1842 -14.1842 -14.1760 -14.1619 -14.1365 -14.1194 -14.0980 -14.0879
   -14.0795 -14.0287 -14.0141 -13.9382  -5.5474  -5.2046  -4.5616  -4.1061
     0.3870   1.6312   1.8742   2.6469   3.2710   4.8803   4.9130   5.3796
     5.4142   5.9341   5.9909   6.5697   6.6590   7.1186   7.4356   7.6068
     9.0135  10.1514  10.7797  10.9536  11.1857  11.5091  11.9391  12.1319
    12.5802  12.8141

     occupation numbers 
     1.0000   1.0000   1.0000   1.0000   1.0000   1.0000   1.0000   1.0000
     1.0000   1.0000   1.0000   1.0000   1.0000   1.0000   1.0000   1.0000
     1.0000   1.0000   1.0000   1.0000   1.0000   1.0000   1.0000   1.0000
     1.0000   1.0000   1.0000   1.0000   1.0000   1.0000   1.0000   1.0000
     1.0000   1.0000   1.0000   1.0000   1.0000   1.0000   1.0000   1.0000
     0.0000   0.0000   0.0000   0.0000   0.0000   0.0000   0.0000   0.0000
     0.0000   0.0000

          k = 0.0000 0.0000 0.8538 (  1396 PWs)   bands (ev):

   -14.4225 -14.4066 -14.3508 -14.3430 -14.3162 -14.3146 -14.3134 -14.2903
   -14.2848 -14.2764 -14.2600 -14.2562 -14.2490 -14.1460 -14.1442 -14.1153
   -14.1141 -14.1139 -14.0119 -13.9975  -5.2311  -4.9067  -4.6000  -4.2432
    -0.0817   0.7625   1.3008   1.9315   3.7039   5.0818   5.4011   5.8467
     6.1467   6.1808   6.4130   6.6692   6.8671   7.4472   7.5633   8.0870
     9.0509   9.5962   9.6121   9.7923  10.4910  10.6249  11.1452  11.2942
    12.0199  12.1729

     occupation numbers 
     1.0000   1.0000   1.0000   1.0000   1.0000   1.0000   1.0000   1.0000
     1.0000   1.0000   1.0000   1.0000   1.0000   1.0000   1.0000   1.0000
     1.0000   1.0000   1.0000   1.0000   1.0000   1.0000   1.0000   1.0000
     1.0000   1.0000   1.0000   1.0000   1.0000   1.0000   1.0000   1.0000
     1.0000   1.0000   1.0000   1.0000   1.0000   1.0000   1.0000   1.0000
     0.0000   0.0000   0.0000   0.0000   0.0000   0.0000   0.0000   0.0000
     0.0000   0.0000

          k = 0.0000 0.0000-1.2807 (  1418 PWs)   bands (ev):

   -14.5014 -14.5014 -14.4392 -14.4392 -14.4257 -14.4257 -14.4214 -14.4214
   -14.3745 -14.3745 -14.2928 -14.2928 -14.2327 -14.2327 -14.2019 -14.2019
   -14.1562 -14.1562 -14.1420 -14.1420  -4.8461  -4.8461  -4.5402  -4.5402
     0.0095   0.0095   1.3760   1.3760   4.4451   4.4451   5.9833   5.9833
     6.3640   6.3640   6.7270   6.7270   7.2695   7.2695   7.7540   7.7540
     9.3514   9.3514   9.6982   9.6982   9.8005   9.8005  10.7997  10.7997
    11.2848  11.2848

     occupation numbers 
     1.0000   1.0000   1.0000   1.0000   1.0000   1.0000   1.0000   1.0000
     1.0000   1.0000   1.0000   1.0000   1.0000   1.0000   1.0000   1.0000
     1.0000   1.0000   1.0000   1.0000   1.0000   1.0000   1.0000   1.0000
     1.0000   1.0000   1.0000   1.0000   1.0000   1.0000   1.0000   1.0000
     1.0000   1.0000   1.0000   1.0000   1.0000   1.0000   1.0000   1.0000
     0.0000   0.0000   0.0000   0.0000   0.0000   0.0000   0.0000   0.0000
     0.0000   0.0000

          k = 0.0000 0.4527 0.0000 (  1392 PWs)   bands (ev):

   -14.3769 -14.3598 -14.3283 -14.3217 -14.3004 -14.2812 -14.2580 -14.2348
   -14.2262 -14.2224 -14.2060 -14.1859 -14.1819 -14.1537 -14.1436 -14.0816
   -14.0659 -14.0495 -14.0086 -13.9913  -5.5188  -5.1878  -4.5104  -4.0872
     0.5506   1.4791   2.2939   2.3037   3.2979   4.7005   5.0290   5.1435
     5.2351   5.4534   6.1840   6.4549   6.5802   7.4010   7.4332   7.4353
     9.1154   9.9795  10.8933  11.1919  11.2696  11.4834  11.8882  11.9231
    12.6009  13.1763

     occupation numbers 
     1.0000   1.0000   1.0000   1.0000   1.0000   1.0000   1.0000   1.0000
     1.0000   1.0000   1.0000   1.0000   1.0000   1.0000   1.0000   1.0000
     1.0000   1.0000   1.0000   1.0000   1.0000   1.0000   1.0000   1.0000
     1.0000   1.0000   1.0000   1.0000   1.0000   1.0000   1.0000   1.0000
     1.0000   1.0000   1.0000   1.0000   1.0000   1.0000   1.0000   1.0000
     0.0000   0.0000   0.0000   0.0000   0.0000   0.0000   0.0000   0.0000
     0.0000   0.0000

          k = 0.0000 0.4527 0.4269 (  1387 PWs)   bands (ev):

   -14.4206 -14.3835 -14.3315 -14.3052 -14.2965 -14.2904 -14.2650 -14.2419
   -14.2089 -14.1878 -14.1726 -14.1605 -14.1552 -14.1319 -14.0841 -14.0761
   -14.0418 -14.0100 -13.9910 -13.9397  -5.4044  -5.0812  -4.4947  -4.1083
     0.3517   1.4585   1.7919   2.2413   3.4142   4.1646   4.3859   5.4768
     5.6580   5.9691   6.0887   6.4013   7.1020   7.2225   7.5542   7.6304
     9.2181   9.6966  10.1942  10.2566  11.2292  11.3725  11.9329  12.1230
    12.6158  13.0346

     occupation numbers 
     1.0000   1.0000   1.0000   1.0000   1.0000   1.0000   1.0000   1.0000
     1.0000   1.0000   1.0000   1.0000   1.0000   1.0000   1.0000   1.0000
     1.0000   1.0000   1.0000   1.0000   1.0000   1.0000   1.0000   1.0000
     1.0000   1.0000   1.0000   1.0000   1.0000   1.0000   1.0000   1.0000
     1.0000   1.0000   1.0000   1.0000   1.0000   1.0000   1.0000   1.0000
     0.0000   0.0000   0.0000   0.0000   0.0000   0.0000   0.0000   0.0000
     0.0000   0.0000

          k = 0.0000 0.4527 0.8538 (  1397 PWs)   bands (ev):

   -14.4572 -14.4183 -14.3853 -14.3359 -14.3327 -14.3269 -14.3200 -14.2987
   -14.2642 -14.2175 -14.2034 -14.1986 -14.1825 -14.1713 -14.1527 -14.1185
   -14.1014 -14.0893 -14.0593 -13.9880  -5.1023  -4.8075  -4.5285  -4.2159
     0.0689   0.8759   1.3786   1.8708   3.8521   4.1535   4.3399   5.3676
     5.5204   5.8527   6.2613   6.6668   7.0226   7.3437   7.4030   7.5970
     9.1914   9.5552  10.0012  10.3066  10.8225  11.1714  11.3455  12.3854
    12.6813  12.9679

     occupation numbers 
     1.0000   1.0000   1.0000   1.0000   1.0000   1.0000   1.0000   1.0000
     1.0000   1.0000   1.0000   1.0000   1.0000   1.0000   1.0000   1.0000
     1.0000   1.0000   1.0000   1.0000   1.0000   1.0000   1.0000   1.0000
     1.0000   1.0000   1.0000   1.0000   1.0000   1.0000   1.0000   1.0000
     1.0000   1.0000   1.0000   1.0000   1.0000   1.0000   1.0000   1.0000
     0.0000   0.0000   0.0000   0.0000   0.0000   0.0000   0.0000   0.0000
     0.0000   0.0000

          k = 0.0000 0.4527-1.2807 (  1404 PWs)   bands (ev):

   -14.4474 -14.4474 -14.3969 -14.3969 -14.3742 -14.3742 -14.3474 -14.3474
   -14.3225 -14.3225 -14.2340 -14.2340 -14.1979 -14.1979 -14.1473 -14.1473
   -14.1175 -14.1175 -13.9917 -13.9917  -4.7454  -4.7454  -4.4719  -4.4719
     0.1970   0.1970   1.4805   1.4805   4.3669   4.3669   4.8293   4.8293
     5.3754   5.3754   6.3397   6.3397   7.1415   7.1415   7.5629   7.5629
     9.3127   9.3127  10.1472  10.1472  11.2815  11.2815  11.7706  11.7706
    12.3504  12.3504

     occupation numbers 
     1.0000   1.0000   1.0000   1.0000   1.0000   1.0000   1.0000   1.0000
     1.0000   1.0000   1.0000   1.0000   1.0000   1.0000   1.0000   1.0000
     1.0000   1.0000   1.0000   1.0000   1.0000   1.0000   1.0000   1.0000
     1.0000   1.0000   1.0000   1.0000   1.0000   1.0000   1.0000   1.0000
     1.0000   1.0000   1.0000   1.0000   1.0000   1.0000   1.0000   1.0000
     0.0000   0.0000   0.0000   0.0000   0.0000   0.0000   0.0000   0.0000
     0.0000   0.0000

          k = 0.0000 0.9054 0.0000 (  1408 PWs)   bands (ev):

   -14.4737 -14.4438 -14.4412 -14.4344 -14.3994 -14.3842 -14.3672 -14.3400
   -14.2725 -14.2392 -14.2375 -14.2190 -14.1727 -14.1696 -14.1677 -14.1286
   -14.1228 -14.0553 -13.9625 -13.9582  -5.1155  -4.8653  -4.4203  -4.2088
     0.1996   0.9472   1.1100   1.6201   3.7600   5.0298   5.3728   5.4910
     5.5725   5.8191   6.4123   6.5636   6.8774   7.1780   7.3528   7.8917
     8.6999   9.5798   9.8671   9.9124  10.1650  10.6457  10.7422  11.5673
    11.9268  12.3240

     occupation numbers 
     1.0000   1.0000   1.0000   1.0000   1.0000   1.0000   1.0000   1.0000
     1.0000   1.0000   1.0000   1.0000   1.0000   1.0000   1.0000   1.0000
     1.0000   1.0000   1.0000   1.0000   1.0000   1.0000   1.0000   1.0000
     1.0000   1.0000   1.0000   1.0000   1.0000   1.0000   1.0000   1.0000
     1.0000   1.0000   1.0000   1.0000   1.0000   1.0000   1.0000   1.0000
     0.0000   0.0000   0.0000   0.0000   0.0000   0.0000   0.0000   0.0000
     0.0000   0.0000

          k = 0.0000 0.9054 0.4269 (  1408 PWs)   bands (ev):

   -14.4498 -14.4378 -14.4306 -14.3976 -14.3885 -14.3734 -14.3283 -14.3100
   -14.2731 -14.2590 -14.2544 -14.2157 -14.1968 -14.1844 -14.1538 -14.1332
   -14.1185 -14.1123 -14.0867 -13.9830  -5.0175  -4.7779  -4.3969  -4.2020
     0.2728   1.0884   1.1818   1.5489   3.8945   3.9892   4.3479   5.1894
     5.5835   5.8950   6.1975   6.5422   6.6620   7.1435   7.2766   7.3956
     9.1207   9.5654   9.7328  10.0590  10.8661  11.3980  11.5678  12.0530
    12.5444  12.8790

     occupation numbers 
     1.0000   1.0000   1.0000   1.0000   1.0000   1.0000   1.0000   1.0000
     1.0000   1.0000   1.0000   1.0000   1.0000   1.0000   1.0000   1.0000
     1.0000   1.0000   1.0000   1.0000   1.0000   1.0000   1.0000   1.0000
     1.0000   1.0000   1.0000   1.0000   1.0000   1.0000   1.0000   1.0000
     1.0000   1.0000   1.0000   1.0000   1.0000   1.0000   1.0000   1.0000
     0.0000   0.0000   0.0000   0.0000   0.0000   0.0000   0.0000   0.0000
     0.0000   0.0000

          k = 0.0000 0.9054 0.8538 (  1406 PWs)   bands (ev):

   -14.4286 -14.4225 -14.4054 -14.3788 -14.3642 -14.3440 -14.3272 -14.3055
   -14.2906 -14.2757 -14.2744 -14.2543 -14.2267 -14.2036 -14.1921 -14.1416
   -14.1364 -14.0987 -13.9973 -13.9608  -4.7761  -4.5665  -4.3890  -4.2190
     0.4414   1.0781   1.4112   1.5293   3.3180   3.6853   4.1354   4.3676
     4.8678   5.2475   5.5657   5.9234   6.2682   6.5037   6.9861   7.2684
     9.1114  10.7491  11.0905  11.2655  11.7298  11.7536  12.5571  12.7252
    13.0440  13.1958

     occupation numbers 
     1.0000   1.0000   1.0000   1.0000   1.0000   1.0000   1.0000   1.0000
     1.0000   1.0000   1.0000   1.0000   1.0000   1.0000   1.0000   1.0000
     1.0000   1.0000   1.0000   1.0000   1.0000   1.0000   1.0000   1.0000
     1.0000   1.0000   1.0000   1.0000   1.0000   1.0000   1.0000   1.0000
     1.0000   1.0000   1.0000   1.0000   1.0000   1.0000   1.0000   1.0000
     0.0000   0.0000   0.0000   0.0000   0.0000   0.0000   0.0000   0.0000
     0.0000   0.0000

          k = 0.0000 0.9054-1.2807 (  1394 PWs)   bands (ev):

   -14.4160 -14.4160 -14.3556 -14.3556 -14.3157 -14.3157 -14.2906 -14.2906
   -14.2650 -14.2650 -14.2127 -14.2127 -14.1597 -14.1597 -14.1131 -14.1131
   -14.0302 -14.0302 -13.9642 -13.9642  -4.5131  -4.5131  -4.3412  -4.3412
     0.6945   0.6945   1.6038   1.6038   3.4967   3.4967   3.9071   3.9071
     4.8105   4.8105   5.4749   5.4749   6.0575   6.0575   6.9510   6.9510
    10.0824  10.0824  11.7146  11.7146  12.8165  12.8166  12.8800  12.8800
    13.0517  13.0517

     occupation numbers 
     1.0000   1.0000   1.0000   1.0000   1.0000   1.0000   1.0000   1.0000
     1.0000   1.0000   1.0000   1.0000   1.0000   1.0000   1.0000   1.0000
     1.0000   1.0000   1.0000   1.0000   1.0000   1.0000   1.0000   1.0000
     1.0000   1.0000   1.0000   1.0000   1.0000   1.0000   1.0000   1.0000
     1.0000   1.0000   1.0000   1.0000   1.0000   1.0000   1.0000   1.0000
     0.0000   0.0000   0.0000   0.0000   0.0000   0.0000   0.0000   0.0000
     0.0000   0.0000

          k = 0.0000-1.3581 0.0000 (  1406 PWs)   bands (ev):

   -14.3681 -14.3681 -14.3313 -14.3313 -14.3276 -14.3276 -14.2951 -14.2951
   -14.2613 -14.2613 -14.2163 -14.2163 -14.1944 -14.1944 -14.1895 -14.1895
   -14.1270 -14.1270 -14.0998 -14.0998  -4.5938  -4.5938  -4.5294  -4.5294
     0.3068   0.3068   0.9982   0.9982   4.5452   4.5452   5.9043   5.9043
     5.9211   5.9211   6.4202   6.4202   7.1317   7.1317   7.2974   7.2974
     9.1616   9.1616   9.5113   9.5113   9.8781   9.8781  10.6777  10.6777
    11.3932  11.3932

     occupation numbers 
     1.0000   1.0000   1.0000   1.0000   1.0000   1.0000   1.0000   1.0000
     1.0000   1.0000   1.0000   1.0000   1.0000   1.0000   1.0000   1.0000
     1.0000   1.0000   1.0000   1.0000   1.0000   1.0000   1.0000   1.0000
     1.0000   1.0000   1.0000   1.0000   1.0000   1.0000   1.0000   1.0000
     1.0000   1.0000   1.0000   1.0000   1.0000   1.0000   1.0000   1.0000
     0.0000   0.0000   0.0000   0.0000   0.0000   0.0000   0.0000   0.0000
     0.0000   0.0000

          k = 0.0000-1.3581 0.4269 (  1392 PWs)   bands (ev):

   -14.3984 -14.3984 -14.3421 -14.3421 -14.3012 -14.3012 -14.2753 -14.2753
   -14.2406 -14.2406 -14.1730 -14.1730 -14.1252 -14.1252 -14.1053 -14.1053
   -14.0750 -14.0750 -13.8777 -13.8777  -4.5332  -4.5332  -4.4769  -4.4769
     0.4715   0.4715   1.0996   1.0996   4.4010   4.4010   4.7351   4.7351
     5.4497   5.4497   6.2357   6.2357   6.5730   6.5730   7.4478   7.4478
     9.0194   9.0194  10.2151  10.2151  11.1307  11.1307  11.6727  11.6727
    12.3324  12.3324

     occupation numbers 
     1.0000   1.0000   1.0000   1.0000   1.0000   1.0000   1.0000   1.0000
     1.0000   1.0000   1.0000   1.0000   1.0000   1.0000   1.0000   1.0000
     1.0000   1.0000   1.0000   1.0000   1.0000   1.0000   1.0000   1.0000
     1.0000   1.0000   1.0000   1.0000   1.0000   1.0000   1.0000   1.0000
     1.0000   1.0000   1.0000   1.0000   1.0000   1.0000   1.0000   1.0000
     0.0000   0.0000   0.0000   0.0000   0.0000   0.0000   0.0000   0.0000
     0.0000   0.0000

          k = 0.0000-1.3581 0.8538 (  1420 PWs)   bands (ev):

   -14.4708 -14.4708 -14.4317 -14.4317 -14.4147 -14.4147 -14.3793 -14.3793
   -14.3475 -14.3475 -14.2787 -14.2787 -14.2252 -14.2252 -14.2089 -14.2089
   -14.1729 -14.1729 -14.0466 -14.0466  -4.4108  -4.4108  -4.3758  -4.3758
     0.8829   0.8829   1.2970   1.2970   3.4968   3.4968   4.0236   4.0236
     4.7525   4.7525   5.5539   5.5539   5.7849   5.7849   6.9385   6.9385
    10.0697  10.0697  11.5668  11.5668  12.5521  12.5521  12.6734  12.6734
    12.9240  12.9240

     occupation numbers 
     1.0000   1.0000   1.0000   1.0000   1.0000   1.0000   1.0000   1.0000
     1.0000   1.0000   1.0000   1.0000   1.0000   1.0000   1.0000   1.0000
     1.0000   1.0000   1.0000   1.0000   1.0000   1.0000   1.0000   1.0000
     1.0000   1.0000   1.0000   1.0000   1.0000   1.0000   1.0000   1.0000
     1.0000   1.0000   1.0000   1.0000   1.0000   1.0000   1.0000   1.0000
     0.0000   0.0000   0.0000   0.0000   0.0000   0.0000   0.0000   0.0000
     0.0000   0.0000

          k = 0.0000-1.3581-1.2807 (  1408 PWs)   bands (ev):

   -14.4430 -14.4430 -14.4170 -14.4170 -14.3839 -14.3839 -14.3551 -14.3551
   -14.3333 -14.3333 -14.2885 -14.2885 -14.1910 -14.1910 -14.0984 -14.0984
   -14.0635 -14.0635 -13.9840 -13.9840  -4.3379  -4.3379  -4.3251  -4.3251
     1.2178   1.2178   1.3747   1.3747   3.0920   3.0920   3.5974   3.5974
     4.5199   4.5199   5.0101   5.0101   5.8364   5.8364   6.6540   6.6540
    10.9139  10.9139  11.2117  11.2117  12.8546  12.8546  13.0368  13.0368
    13.7629  13.7629

     occupation numbers 
     1.0000   1.0000   1.0000   1.0000   1.0000   1.0000   1.0000   1.0000
     1.0000   1.0000   1.0000   1.0000   1.0000   1.0000   1.0000   1.0000
     1.0000   1.0000   1.0000   1.0000   1.0000   1.0000   1.0000   1.0000
     1.0000   1.0000   1.0000   1.0000   1.0000   1.0000   1.0000   1.0000
     1.0000   1.0000   1.0000   1.0000   1.0000   1.0000   1.0000   1.0000
     0.0000   0.0000   0.0000   0.0000   0.0000   0.0000   0.0000   0.0000
     0.0000   0.0000

          k =-0.5000 0.0000 0.0000 (  1378 PWs)   bands (ev):

   -14.3749 -14.3749 -14.3657 -14.3657 -14.2527 -14.2527 -14.2157 -14.2157
   -14.1904 -14.1904 -14.1529 -14.1529 -14.1052 -14.1052 -14.0275 -14.0275
   -13.9225 -13.9225 -13.9173 -13.9173  -5.5274  -5.5274  -4.2883  -4.2883
     1.0911   1.0911   2.9632   2.9632   4.0654   4.0654   4.9255   4.9255
     5.2398   5.2398   6.0709   6.0709   6.3074   6.3074   7.5533   7.5533
    10.7058  10.7058  10.9255  10.9255  11.8253  11.8253  12.0734  12.0734
    13.1437  13.1437

     occupation numbers 
     1.0000   1.0000   1.0000   1.0000   1.0000   1.0000   1.0000   1.0000
     1.0000   1.0000   1.0000   1.0000   1.0000   1.0000   1.0000   1.0000
     1.0000   1.0000   1.0000   1.0000   1.0000   1.0000   1.0000   1.0000
     1.0000   1.0000   1.0000   1.0000   1.0000   1.0000   1.0000   1.0000
     1.0000   1.0000   1.0000   1.0000   1.0000   1.0000   1.0000   1.0000
     0.0000   0.0000   0.0000   0.0000   0.0000   0.0000   0.0000   0.0000
     0.0000   0.0000

          k =-0.5000 0.0000 0.4269 (  1394 PWs)   bands (ev):

   -14.4011 -14.4011 -14.3533 -14.3533 -14.3165 -14.3165 -14.2781 -14.2781
   -14.2146 -14.2146 -14.2028 -14.2028 -14.1670 -14.1670 -14.1255 -14.1255
   -14.0886 -14.0886 -14.0790 -14.0790  -5.4131  -5.4131  -4.2977  -4.2977
     0.7655   0.7655   2.4156   2.4156   4.2896   4.2896   5.0967   5.0967
     5.4923   5.4923   6.3885   6.3885   6.5748   6.5748   7.4693   7.4693
    10.4171  10.4171  11.0923  11.0923  11.1196  11.1196  11.6088  11.6088
    13.0067  13.0068

     occupation numbers 
     1.0000   1.0000   1.0000   1.0000   1.0000   1.0000   1.0000   1.0000
     1.0000   1.0000   1.0000   1.0000   1.0000   1.0000   1.0000   1.0000
     1.0000   1.0000   1.0000   1.0000   1.0000   1.0000   1.0000   1.0000
     1.0000   1.0000   1.0000   1.0000   1.0000   1.0000   1.0000   1.0000
     1.0000   1.0000   1.0000   1.0000   1.0000   1.0000   1.0000   1.0000
     0.0000   0.0000   0.0000   0.0000   0.0000   0.0000   0.0000   0.0000
     0.0000   0.0000

          k =-0.5000 0.0000 0.8538 (  1414 PWs)   bands (ev):

   -14.4898 -14.4898 -14.4239 -14.4239 -14.4000 -14.4000 -14.3997 -14.3997
   -14.3080 -14.3080 -14.3059 -14.3059 -14.2472 -14.2472 -14.2021 -14.2021
   -14.0968 -14.0968 -14.0950 -14.0950  -5.1135  -5.1135  -4.3832  -4.3832
     0.2705   0.2705   1.5783   1.5783   4.7338   4.7338   5.5598   5.5598
     5.9187   5.9187   6.4844   6.4844   6.9631   6.9631   7.7517   7.7517
     9.6158   9.6158  10.1205  10.1205  10.4636  10.4636  11.5313  11.5313
    11.7715  11.7715

     occupation numbers 
     1.0000   1.0000   1.0000   1.0000   1.0000   1.0000   1.0000   1.0000
     1.0000   1.0000   1.0000   1.0000   1.0000   1.0000   1.0000   1.0000
     1.0000   1.0000   1.0000   1.0000   1.0000   1.0000   1.0000   1.0000
     1.0000   1.0000   1.0000   1.0000   1.0000   1.0000   1.0000   1.0000
     1.0000   1.0000   1.0000   1.0000   1.0000   1.0000   1.0000   1.0000
     0.0000   0.0000   0.0000   0.0000   0.0000   0.0000   0.0000   0.0000
     0.0000   0.0000

          k =-0.5000 0.0000-1.2807 (  1396 PWs)   bands (ev):

   -14.4398 -14.4398 -14.3924 -14.3924 -14.3794 -14.3794 -14.2943 -14.2943
   -14.2855 -14.2855 -14.2851 -14.2851 -14.1941 -14.1941 -14.1159 -14.1159
   -14.0396 -14.0396 -13.9361 -13.9361  -4.8412  -4.8412  -4.5424  -4.5424
     0.0966   0.0966   1.1983   1.1983   5.2833   5.2833   5.5521   5.5521
     5.9970   5.9970   6.3475   6.3475   7.5602   7.5602   7.7430   7.7430
     9.3416   9.3416   9.7697   9.7697   9.8431   9.8431  11.1841  11.1841
    11.4708  11.4708

     occupation numbers 
     1.0000   1.0000   1.0000   1.0000   1.0000   1.0000   1.0000   1.0000
     1.0000   1.0000   1.0000   1.0000   1.0000   1.0000   1.0000   1.0000
     1.0000   1.0000   1.0000   1.0000   1.0000   1.0000   1.0000   1.0000
     1.0000   1.0000   1.0000   1.0000   1.0000   1.0000   1.0000   1.0000
     1.0000   1.0000   1.0000   1.0000   1.0000   1.0000   1.0000   1.0000
     0.0000   0.0000   0.0000   0.0000   0.0000   0.0000   0.0000   0.0000
     0.0000   0.0000

          k =-0.5000 0.4527 0.0000 (  1402 PWs)   bands (ev):

   -14.4276 -14.4276 -14.3930 -14.3930 -14.3095 -14.3095 -14.3012 -14.3012
   -14.2578 -14.2578 -14.2222 -14.2222 -14.1941 -14.1941 -14.1217 -14.1217
   -14.0997 -14.0997 -14.0208 -14.0208  -5.3879  -5.3879  -4.2655  -4.2655
     0.8660   0.8660   2.3793   2.3793   4.1992   4.1992   4.9190   4.9190
     5.5631   5.5631   6.1833   6.1833   6.4370   6.4370   7.6010   7.6010
    10.4184  10.4184  10.8915  10.8915  11.4087  11.4087  11.6500  11.6500
    12.9318  12.9319

     occupation numbers 
     1.0000   1.0000   1.0000   1.0000   1.0000   1.0000   1.0000   1.0000
     1.0000   1.0000   1.0000   1.0000   1.0000   1.0000   1.0000   1.0000
     1.0000   1.0000   1.0000   1.0000   1.0000   1.0000   1.0000   1.0000
     1.0000   1.0000   1.0000   1.0000   1.0000   1.0000   1.0000   1.0000
     1.0000   1.0000   1.0000   1.0000   1.0000   1.0000   1.0000   1.0000
     0.0000   0.0000   0.0000   0.0000   0.0000   0.0000   0.0000   0.0000
     0.0000   0.0000

          k =-0.5000 0.4527 0.4269 (  1392 PWs)   bands (ev):

   -14.4268 -14.4268 -14.3861 -14.3861 -14.3212 -14.3212 -14.2796 -14.2796
   -14.2210 -14.2210 -14.1673 -14.1673 -14.1418 -14.1418 -14.0945 -14.0945
   -14.0444 -14.0444 -13.9706 -13.9706  -5.2763  -5.2763  -4.2675  -4.2675
     0.7177   0.7177   2.1196   2.1196   4.1865   4.1865   4.6960   4.6960
     5.5039   5.5039   6.3140   6.3140   7.1017   7.1017   7.5543   7.5543
     9.7324   9.7324  10.8148  10.8148  11.2508  11.2508  11.7069  11.7069
    12.5360  12.5360

     occupation numbers 
     1.0000   1.0000   1.0000   1.0000   1.0000   1.0000   1.0000   1.0000
     1.0000   1.0000   1.0000   1.0000   1.0000   1.0000   1.0000   1.0000
     1.0000   1.0000   1.0000   1.0000   1.0000   1.0000   1.0000   1.0000
     1.0000   1.0000   1.0000   1.0000   1.0000   1.0000   1.0000   1.0000
     1.0000   1.0000   1.0000   1.0000   1.0000   1.0000   1.0000   1.0000
     0.0000   0.0000   0.0000   0.0000   0.0000   0.0000   0.0000   0.0000
     0.0000   0.0000

          k =-0.5000 0.4527 0.8538 (  1396 PWs)   bands (ev):

   -14.4205 -14.4205 -14.3755 -14.3755 -14.3526 -14.3526 -14.3112 -14.3112
   -14.2664 -14.2664 -14.2001 -14.2001 -14.1534 -14.1534 -14.1207 -14.1207
   -14.0905 -14.0905 -13.9918 -13.9918  -4.9908  -4.9908  -4.3359  -4.3359
     0.4109   0.4109   1.6003   1.6003   4.2391   4.2391   5.0296   5.0296
     5.2978   5.2978   6.4832   6.4832   6.9029   6.9029   7.5447   7.5447
     9.7839   9.7839  10.4378  10.4378  10.9458  10.9458  11.6152  11.6152
    12.5561  12.5561

     occupation numbers 
     1.0000   1.0000   1.0000   1.0000   1.0000   1.0000   1.0000   1.0000
     1.0000   1.0000   1.0000   1.0000   1.0000   1.0000   1.0000   1.0000
     1.0000   1.0000   1.0000   1.0000   1.0000   1.0000   1.0000   1.0000
     1.0000   1.0000   1.0000   1.0000   1.0000   1.0000   1.0000   1.0000
     1.0000   1.0000   1.0000   1.0000   1.0000   1.0000   1.0000   1.0000
     0.0000   0.0000   0.0000   0.0000   0.0000   0.0000   0.0000   0.0000
     0.0000   0.0000

          k =-0.5000 0.4527-1.2807 (  1408 PWs)   bands (ev):

   -14.4566 -14.4566 -14.4505 -14.4505 -14.3873 -14.3873 -14.3397 -14.3397
   -14.3167 -14.3167 -14.2560 -14.2560 -14.2309 -14.2309 -14.1084 -14.1084
   -14.0929 -14.0929 -14.0900 -14.0900  -4.7444  -4.7444  -4.4754  -4.4754
     0.2671   0.2671   1.3248   1.3248   4.6506   4.6506   4.8415   4.8415
     5.6174   5.6174   5.9941   5.9941   6.8279   6.8279   7.3616   7.3616
    10.2322  10.2322  10.2951  10.2951  10.8333  10.8333  11.5727  11.5727
    12.4755  12.4755

     occupation numbers 
     1.0000   1.0000   1.0000   1.0000   1.0000   1.0000   1.0000   1.0000
     1.0000   1.0000   1.0000   1.0000   1.0000   1.0000   1.0000   1.0000
     1.0000   1.0000   1.0000   1.0000   1.0000   1.0000   1.0000   1.0000
     1.0000   1.0000   1.0000   1.0000   1.0000   1.0000   1.0000   1.0000
     1.0000   1.0000   1.0000   1.0000   1.0000   1.0000   1.0000   1.0000
     0.0000   0.0000   0.0000   0.0000   0.0000   0.0000   0.0000   0.0000
     0.0000   0.0000

          k =-0.5000 0.9054 0.0000 (  1402 PWs)   bands (ev):

   -14.4410 -14.4410 -14.3966 -14.3966 -14.3505 -14.3505 -14.2749 -14.2749
   -14.2268 -14.2268 -14.2050 -14.2050 -14.1693 -14.1693 -14.1363 -14.1363
   -14.0686 -14.0686 -14.0361 -14.0361  -5.0106  -5.0106  -4.2923  -4.2923
     0.5031   0.5031   1.3565   1.3565   4.6597   4.6597   5.2808   5.2808
     5.9547   5.9547   6.2857   6.2857   6.5747   6.5747   7.6192   7.6192
     9.2772   9.2772  10.1606  10.1606  10.9249  10.9249  11.3309  11.3309
    11.7213  11.7213

     occupation numbers 
     1.0000   1.0000   1.0000   1.0000   1.0000   1.0000   1.0000   1.0000
     1.0000   1.0000   1.0000   1.0000   1.0000   1.0000   1.0000   1.0000
     1.0000   1.0000   1.0000   1.0000   1.0000   1.0000   1.0000   1.0000
     1.0000   1.0000   1.0000   1.0000   1.0000   1.0000   1.0000   1.0000
     1.0000   1.0000   1.0000   1.0000   1.0000   1.0000   1.0000   1.0000
     0.0000   0.0000   0.0000   0.0000   0.0000   0.0000   0.0000   0.0000
     0.0000   0.0000

          k =-0.5000 0.9054 0.4269 (  1394 PWs)   bands (ev):

   -14.3890 -14.3890 -14.3659 -14.3659 -14.3156 -14.3156 -14.2839 -14.2839
   -14.2130 -14.2130 -14.1903 -14.1903 -14.1341 -14.1341 -14.0920 -14.0920
   -14.0575 -14.0575 -13.9935 -13.9935  -4.9180  -4.9180  -4.2749  -4.2749
     0.5992   0.5992   1.3802   1.3802   4.1401   4.1401   4.9564   4.9564
     5.3972   5.3972   6.3593   6.3593   6.6436   6.6436   7.3874   7.3874
     9.7442   9.7442  10.1469  10.1469  11.2141  11.2141  11.6004  11.6004
    12.1472  12.1472

     occupation numbers 
     1.0000   1.0000   1.0000   1.0000   1.0000   1.0000   1.0000   1.0000
     1.0000   1.0000   1.0000   1.0000   1.0000   1.0000   1.0000   1.0000
     1.0000   1.0000   1.0000   1.0000   1.0000   1.0000   1.0000   1.0000
     1.0000   1.0000   1.0000   1.0000   1.0000   1.0000   1.0000   1.0000
     1.0000   1.0000   1.0000   1.0000   1.0000   1.0000   1.0000   1.0000
     0.0000   0.0000   0.0000   0.0000   0.0000   0.0000   0.0000   0.0000
     0.0000   0.0000

          k =-0.5000 0.9054 0.8538 (  1404 PWs)   bands (ev):

   -14.4545 -14.4545 -14.4085 -14.4085 -14.3341 -14.3341 -14.2983 -14.2983
   -14.2781 -14.2781 -14.2183 -14.2183 -14.1874 -14.1874 -14.1525 -14.1525
   -14.0944 -14.0944 -14.0139 -14.0139  -4.6949  -4.6949  -4.2797  -4.2797
     0.7300   0.7300   1.4479   1.4479   3.5510   3.5510   4.4316   4.4316
     4.9546   4.9546   5.5817   5.5817   6.3813   6.3813   7.1087   7.1087
    10.4414  10.4414  11.0441  11.0441  11.2450  11.2450  12.5421  12.5421
    12.7361  12.7361

     occupation numbers 
     1.0000   1.0000   1.0000   1.0000   1.0000   1.0000   1.0000   1.0000
     1.0000   1.0000   1.0000   1.0000   1.0000   1.0000   1.0000   1.0000
     1.0000   1.0000   1.0000   1.0000   1.0000   1.0000   1.0000   1.0000
     1.0000   1.0000   1.0000   1.0000   1.0000   1.0000   1.0000   1.0000
     1.0000   1.0000   1.0000   1.0000   1.0000   1.0000   1.0000   1.0000
     0.0000   0.0000   0.0000   0.0000   0.0000   0.0000   0.0000   0.0000
     0.0000   0.0000

          k =-0.5000 0.9054-1.2807 (  1412 PWs)   bands (ev):

   -14.4372 -14.4372 -14.4229 -14.4229 -14.3552 -14.3552 -14.3314 -14.3314
   -14.2816 -14.2816 -14.2800 -14.2800 -14.2322 -14.2322 -14.1869 -14.1869
   -14.1203 -14.1203 -14.0952 -14.0952  -4.5123  -4.5123  -4.3466  -4.3466
     0.7305   0.7305   1.5267   1.5267   3.6754   3.6754   3.7576   3.7576
     4.9996   4.9996   5.1095   5.1095   6.4031   6.4031   6.7573   6.7573
    10.5152  10.5152  11.3051  11.3051  12.1932  12.1932  12.2752  12.2752
    13.6331  13.6331

     occupation numbers 
     1.0000   1.0000   1.0000   1.0000   1.0000   1.0000   1.0000   1.0000
     1.0000   1.0000   1.0000   1.0000   1.0000   1.0000   1.0000   1.0000
     1.0000   1.0000   1.0000   1.0000   1.0000   1.0000   1.0000   1.0000
     1.0000   1.0000   1.0000   1.0000   1.0000   1.0000   1.0000   1.0000
     1.0000   1.0000   1.0000   1.0000   1.0000   1.0000   1.0000   1.0000
     0.0000   0.0000   0.0000   0.0000   0.0000   0.0000   0.0000   0.0000
     0.0000   0.0000

          k =-0.5000-1.3581 0.0000 (  1388 PWs)   bands (ev):

   -14.3140 -14.3140 -14.3140 -14.3140 -14.2709 -14.2709 -14.2709 -14.2709
   -14.1731 -14.1731 -14.1731 -14.1731 -14.1265 -14.1265 -14.1265 -14.1265
   -14.0007 -14.0007 -14.0007 -14.0007  -4.5604  -4.5604  -4.5604  -4.5604
     0.6190   0.6190   0.6190   0.6190   5.3588   5.3588   5.3588   5.3588
     6.0321   6.0321   6.0321   6.0321   7.0731   7.0731   7.0731   7.0731
     9.5972   9.5972   9.5972   9.5972  10.3038  10.3038  10.3038  10.3038
    12.0448  12.0448

     occupation numbers 
     1.0000   1.0000   1.0000   1.0000   1.0000   1.0000   1.0000   1.0000
     1.0000   1.0000   1.0000   1.0000   1.0000   1.0000   1.0000   1.0000
     1.0000   1.0000   1.0000   1.0000   1.0000   1.0000   1.0000   1.0000
     1.0000   1.0000   1.0000   1.0000   1.0000   1.0000   1.0000   1.0000
     1.0000   1.0000   1.0000   1.0000   1.0000   1.0000   1.0000   1.0000
     0.0000   0.0000   0.0000   0.0000   0.0000   0.0000   0.0000   0.0000
     0.0000   0.0000

          k =-0.5000-1.3581 0.4269 (  1404 PWs)   bands (ev):

   -14.3783 -14.3783 -14.3783 -14.3783 -14.3426 -14.3426 -14.3426 -14.3426
   -14.2619 -14.2619 -14.2619 -14.2619 -14.1805 -14.1805 -14.1805 -14.1805
   -14.0325 -14.0325 -14.0325 -14.0325  -4.5071  -4.5071  -4.5071  -4.5071
     0.7500   0.7500   0.7500   0.7500   4.7221   4.7221   4.7221   4.7221
     5.6862   5.6862   5.6862   5.6862   6.8484   6.8484   6.8484   6.8484
     9.9487   9.9487   9.9487   9.9487  11.3800  11.3800  11.3800  11.3800
    12.2667  12.2667

     occupation numbers 
     1.0000   1.0000   1.0000   1.0000   1.0000   1.0000   1.0000   1.0000
     1.0000   1.0000   1.0000   1.0000   1.0000   1.0000   1.0000   1.0000
     1.0000   1.0000   1.0000   1.0000   1.0000   1.0000   1.0000   1.0000
     1.0000   1.0000   1.0000   1.0000   1.0000   1.0000   1.0000   1.0000
     1.0000   1.0000   1.0000   1.0000   1.0000   1.0000   1.0000   1.0000
     0.0000   0.0000   0.0000   0.0000   0.0000   0.0000   0.0000   0.0000
     0.0000   0.0000

          k =-0.5000-1.3581 0.8538 (  1404 PWs)   bands (ev):

   -14.4158 -14.4158 -14.4158 -14.4158 -14.3223 -14.3223 -14.3223 -14.3223
   -14.2402 -14.2402 -14.2402 -14.2402 -14.1842 -14.1842 -14.1842 -14.1842
   -14.0555 -14.0555 -14.0555 -14.0555  -4.3919  -4.3919  -4.3919  -4.3919
     1.0745   1.0745   1.0745   1.0745   3.8135   3.8135   3.8135   3.8135
     4.9043   4.9043   4.9043   4.9043   6.5869   6.5869   6.5869   6.5869
    10.7881  10.7881  10.7881  10.7881  12.0444  12.0444  12.0444  12.0444
    13.8005  13.8005

     occupation numbers 
     1.0000   1.0000   1.0000   1.0000   1.0000   1.0000   1.0000   1.0000
     1.0000   1.0000   1.0000   1.0000   1.0000   1.0000   1.0000   1.0000
     1.0000   1.0000   1.0000   1.0000   1.0000   1.0000   1.0000   1.0000
     1.0000   1.0000   1.0000   1.0000   1.0000   1.0000   1.0000   1.0000
     1.0000   1.0000   1.0000   1.0000   1.0000   1.0000   1.0000   1.0000
     0.0000   0.0000   0.0000   0.0000   0.0000   0.0000   0.0000   0.0000
     0.0000   0.0000

          k =-0.5000-1.3581-1.2807 (  1408 PWs)   bands (ev):

   -14.4164 -14.4164 -14.4164 -14.4164 -14.3954 -14.3954 -14.3954 -14.3954
   -14.2727 -14.2727 -14.2727 -14.2727 -14.1692 -14.1692 -14.1692 -14.1692
   -14.0169 -14.0169 -14.0169 -14.0169  -4.3312  -4.3312  -4.3312  -4.3312
     1.2799   1.2799   1.2799   1.2799   3.4937   3.4937   3.4937   3.4937
     4.3770   4.3770   4.3770   4.3770   6.6180   6.6180   6.6180   6.6180
    10.6567  10.6567  10.6567  10.6567  12.8947  12.8947  12.8947  12.8947
    14.6538  14.6538

     occupation numbers 
     1.0000   1.0000   1.0000   1.0000   1.0000   1.0000   1.0000   1.0000
     1.0000   1.0000   1.0000   1.0000   1.0000   1.0000   1.0000   1.0000
     1.0000   1.0000   1.0000   1.0000   1.0000   1.0000   1.0000   1.0000
     1.0000   1.0000   1.0000   1.0000   1.0000   1.0000   1.0000   1.0000
     1.0000   1.0000   1.0000   1.0000   1.0000   1.0000   1.0000   1.0000
     0.0000   0.0000   0.0000   0.0000   0.0000   0.0000   0.0000   0.0000
     0.0000   0.0000

     highest occupied, lowest unoccupied level (ev):     8.0870    8.6999

!    total energy              =    -824.40824237 Ry
     estimated scf accuracy    <          4.2E-09 Ry

     The total energy is the sum of the following terms:
     one-electron contribution =    -249.57423268 Ry
     hartree contribution      =     173.03877045 Ry
     xc contribution           =    -307.26796393 Ry
     ewald contribution        =    -440.60481621 Ry

     convergence has been achieved in   9 iterations

     Forces acting on atoms (cartesian axes, Ry/au):

     atom    1 type  2   force =     0.00733457    0.00000000    0.00045137
     atom    2 type  1   force =    -0.00311761   -0.00000000    0.00079484
     atom    3 type  2   force =    -0.00733457    0.00000000    0.00045137
     atom    4 type  1   force =     0.00311761   -0.00000000    0.00079484
     atom    5 type  2   force =     0.00733457    0.00000000   -0.00045137
     atom    6 type  1   force =    -0.00311761   -0.00000000   -0.00079484
     atom    7 type  2   force =    -0.00733457    0.00000000   -0.00045137
     atom    8 type  1   force =     0.00311761    0.00000000   -0.00079484
     The non-local contrib.  to forces
     atom    1 type  2   force =    -0.12029538    0.00000000    0.10133437
     atom    2 type  1   force =     0.38088819    0.00000000    0.26710098
     atom    3 type  2   force =     0.12029538    0.00000000    0.10133437
     atom    4 type  1   force =    -0.38088819    0.00000000    0.26710098
     atom    5 type  2   force =    -0.12029538    0.00000000   -0.10133437
     atom    6 type  1   force =     0.38088819    0.00000000   -0.26710098
     atom    7 type  2   force =     0.12029538    0.00000000   -0.10133437
     atom    8 type  1   force =    -0.38088819    0.00000000   -0.26710098
     The ionic contribution  to forces
     atom    1 type  2   force =     1.53473235    0.00000000   -1.05154455
     atom    2 type  1   force =    -1.03769718    0.00000000   -0.57506129
     atom    3 type  2   force =    -1.53473235    0.00000000   -1.05154455
     atom    4 type  1   force =     1.03769718   -0.00000000   -0.57506129
     atom    5 type  2   force =     1.53473235    0.00000000    1.05154455
     atom    6 type  1   force =    -1.03769718   -0.00000000    0.57506129
     atom    7 type  2   force =    -1.53473235   -0.00000000    1.05154455
     atom    8 type  1   force =     1.03769718    0.00000000    0.57506129
     The local contribution  to forces
     atom    1 type  2   force =    -1.42119743   -0.00000000    0.96299641
     atom    2 type  1   force =     0.66217162    0.00000000    0.31496254
     atom    3 type  2   force =     1.42119743   -0.00000000    0.96299641
     atom    4 type  1   force =    -0.66217162    0.00000000    0.31496254
     atom    5 type  2   force =    -1.42119743    0.00000000   -0.96299641
     atom    6 type  1   force =     0.66217162    0.00000000   -0.31496254
     atom    7 type  2   force =     1.42119743    0.00000000   -0.96299641
     atom    8 type  1   force =    -0.66217162    0.00000000   -0.31496254
     The core correction contribution to forces
     atom    1 type  2   force =     0.01412009   -0.00000000   -0.01231623
     atom    2 type  1   force =    -0.00846785   -0.00000000   -0.00614964
     atom    3 type  2   force =    -0.01412009    0.00000000   -0.01231623
     atom    4 type  1   force =     0.00846785    0.00000000   -0.00614964
     atom    5 type  2   force =     0.01412009   -0.00000000    0.01231623
     atom    6 type  1   force =    -0.00846785   -0.00000000    0.00614964
     atom    7 type  2   force =    -0.01412009    0.00000000    0.01231623
     atom    8 type  1   force =     0.00846785    0.00000000    0.00614964
     The Hubbard contrib.    to forces
     atom    1 type  2   force =     0.00000000    0.00000000    0.00000000
     atom    2 type  1   force =     0.00000000    0.00000000    0.00000000
     atom    3 type  2   force =     0.00000000    0.00000000    0.00000000
     atom    4 type  1   force =     0.00000000    0.00000000    0.00000000
     atom    5 type  2   force =     0.00000000    0.00000000    0.00000000
     atom    6 type  1   force =     0.00000000    0.00000000    0.00000000
     atom    7 type  2   force =     0.00000000    0.00000000    0.00000000
     atom    8 type  1   force =     0.00000000    0.00000000    0.00000000
     The SCF correction term to forces
     atom    1 type  2   force =    -0.00002506    0.00000000   -0.00001863
     atom    2 type  1   force =    -0.00001239   -0.00000000   -0.00005774
     atom    3 type  2   force =     0.00002506   -0.00000000   -0.00001863
     atom    4 type  1   force =     0.00001239    0.00000000   -0.00005774
     atom    5 type  2   force =    -0.00002506    0.00000000    0.00001863
     atom    6 type  1   force =    -0.00001239   -0.00000000    0.00005774
     atom    7 type  2   force =     0.00002506   -0.00000000    0.00001863
     atom    8 type  1   force =     0.00001239    0.00000000    0.00005774

     Total force =     0.016044     Total SCF correction =     0.000134

     Writing output data file ./tmp/SnSe_pnma.save/

     init_run     :      1.90s CPU      1.87s WALL (       1 calls)
     electrons    :     46.12s CPU     39.07s WALL (       1 calls)
     forces       :      1.44s CPU      1.27s WALL (       1 calls)

     Called by init_run:
     wfcinit      :      0.88s CPU      0.84s WALL (       1 calls)
     wfcinit:atom :      0.01s CPU      0.01s WALL (       8 calls)
     wfcinit:wfcr :      0.80s CPU      0.78s WALL (       8 calls)
     potinit      :      0.14s CPU      0.16s WALL (       1 calls)
     hinit0       :      0.42s CPU      0.43s WALL (       1 calls)

     Called by electrons:
     c_bands      :     38.15s CPU     32.27s WALL (       9 calls)
     sum_band     :      4.27s CPU      3.36s WALL (       9 calls)
     v_of_rho     :      0.86s CPU      0.68s WALL (      10 calls)
     v_h          :      0.04s CPU      0.03s WALL (      10 calls)
     v_xc         :      0.88s CPU      0.71s WALL (      11 calls)
     newd         :      3.13s CPU      3.10s WALL (      10 calls)
     mix_rho      :      0.09s CPU      0.07s WALL (       9 calls)

     Called by c_bands:
     init_us_2    :      0.29s CPU      0.22s WALL (     160 calls)
     cegterg      :     21.29s CPU     17.82s WALL (      72 calls)

     Called by sum_band:
     sum_band:wei :      0.00s CPU      0.00s WALL (       9 calls)
     sum_band:loo :      2.26s CPU      2.10s WALL (       9 calls)
     sum_band:buf :      0.03s CPU      0.02s WALL (      72 calls)
     sum_band:ini :      0.12s CPU      0.09s WALL (      72 calls)
     sum_band:cal :      0.62s CPU      0.81s WALL (      72 calls)
     sum_band:bec :      0.01s CPU      0.01s WALL (      72 calls)
     addusdens    :      1.44s CPU      0.79s WALL (       9 calls)
     addusd:skk   :      0.01s CPU      0.01s WALL (      18 calls)
     addusd:dgemm :      0.88s CPU      0.33s WALL (      18 calls)
     addusd:qvan2 :      0.45s CPU      0.38s WALL (      18 calls)

     Called by *egterg:
     cdiaghg      :      4.21s CPU      5.25s WALL (     287 calls)
     cegterg:over :      2.01s CPU      2.00s WALL (     215 calls)
     cegterg:upda :      0.80s CPU      0.58s WALL (     215 calls)
     cegterg:last :      1.44s CPU      0.78s WALL (     151 calls)
     h_psi        :     11.20s CPU      8.47s WALL (     295 calls)
     s_psi        :      1.50s CPU      0.61s WALL (     295 calls)
     g_psi        :      0.12s CPU      0.07s WALL (     215 calls)

     Called by h_psi:
     h_psi:calbec :      1.70s CPU      1.75s WALL (     295 calls)
     vloc_psi     :      7.93s CPU      6.03s WALL (     295 calls)
     add_vuspsi   :      1.51s CPU      0.65s WALL (     295 calls)

     General routines
     calbec       :      2.51s CPU      2.66s WALL (     399 calls)
     fft          :      0.37s CPU      0.29s WALL (     139 calls)
     ffts         :      0.01s CPU      0.01s WALL (      19 calls)
     fftw         :      7.78s CPU      5.99s WALL (   22444 calls)
     interpolate  :      0.05s CPU      0.03s WALL (      10 calls)

     Parallel routines

     PWSCF        :     49.61s CPU     42.38s WALL


   This run was terminated on:  19:19:59   5May2026            

=------------------------------------------------------------------------------=
   JOB DONE.
=------------------------------------------------------------------------------=
