
     Program PWSCF v.6.7MaX starts on  5May2026 at 19:19:59 

     This program is part of the open-source Quantum ESPRESSO suite
     for quantum simulation of materials; please cite
         "P. Giannozzi et al., J. Phys.:Condens. Matter 21 395502 (2009);
         "P. Giannozzi et al., J. Phys.:Condens. Matter 29 465901 (2017);
          URL http://www.quantum-espresso.org", 
     in publications or presentations arising from this work. More details at
     http://www.quantum-espresso.org/quote

     Parallel version (MPI), running on     4 processors

     MPI processes distributed on     1 nodes
     K-points division:     npool     =       4
     Waiting for input...
     Reading input from standard input

     Current dimensions of program PWSCF are:
     Max number of different atomic species (ntypx) = 10
     Max number of k-points (npk) =  40000
     Max angular momentum in pseudopotentials (lmaxx) =  3

     Subspace diagonalization in iterative solution of the eigenvalue problem:
     a serial algorithm will be used


     G-vector sticks info
     --------------------
     sticks:   dense  smooth     PW     G-vecs:    dense   smooth      PW
     Sum        2711    1087    351                68055    17237    3111



     bravais-lattice index     =            8
     lattice parameter (alat)  =      21.4862  a.u.
     unit-cell volume          =    1425.7436 (a.u.)^3
     number of atoms/cell      =            8
     number of atomic types    =            2
     number of electrons       =        80.00
     number of Kohn-Sham states=           50
     kinetic-energy cutoff     =      20.0000  Ry
     charge density cutoff     =     200.0000  Ry
     scf convergence threshold =      1.0E-08
     mixing beta               =       0.7000
     number of iterations used =            8  plain     mixing
     Exchange-correlation= SLA  PW   PBE  PBE
                           (   1   4   3   4   0   0   0)

     celldm(1)=  21.486186  celldm(2)=   0.368162  celldm(3)=   0.390413
     celldm(4)=   0.000000  celldm(5)=   0.000000  celldm(6)=   0.000000

     crystal axes: (cart. coord. in units of alat)
               a(1) = (   1.000000   0.000000   0.000000 )  
               a(2) = (   0.000000   0.368162   0.000000 )  
               a(3) = (   0.000000   0.000000   0.390413 )  

     reciprocal axes: (cart. coord. in units 2 pi/alat)
               b(1) = (  1.000000  0.000000  0.000000 )  
               b(2) = (  0.000000  2.716197  0.000000 )  
               b(3) = (  0.000000  0.000000  2.561388 )  


     PseudoPot. # 1 for Sn read from file:
     ../pseudo/Sn_pbe_v1.uspp.F.UPF
     MD5 check sum: 4cf58ce39ec5d5d420df3dd08604eb00
     Pseudo is Ultrasoft + core correction, Zval = 14.0
     Generated by new atomic code, or converted to UPF format
     Using radial grid of  891 points,  6 beta functions with: 
                l(1) =   0
                l(2) =   0
                l(3) =   1
                l(4) =   1
                l(5) =   2
                l(6) =   2
     Q(r) pseudized with  6 coefficients,  rinner =    1.200   1.200   1.200
                                                       1.200   1.200

     PseudoPot. # 2 for Se read from file:
     ../pseudo/Se_pbe_v1.uspp.F.UPF
     MD5 check sum: 1b3568f3a8ae88f9a2a0ad0698632c85
     Pseudo is Ultrasoft + core correction, Zval =  6.0
     Generated by new atomic code, or converted to UPF format
     Using radial grid of  877 points,  6 beta functions with: 
                l(1) =   0
                l(2) =   0
                l(3) =   1
                l(4) =   1
                l(5) =   2
                l(6) =   2
     Q(r) pseudized with  8 coefficients,  rinner =    1.300   1.300   1.300
                                                       1.300   1.300

     atomic species   valence    mass     pseudopotential
        Sn            14.00   118.71000     Sn( 1.00)
        Se             6.00    78.97100     Se( 1.00)

      8 Sym. Ops., with inversion, found ( 6 have fractional translation)


                                    s                        frac. trans.

      isym =  1     identity                                     

 cryst.   s( 1) = (     1          0          0      )
                  (     0          1          0      )
                  (     0          0          1      )

 cart.    s( 1) = (  1.0000000  0.0000000  0.0000000 )
                  (  0.0000000  1.0000000  0.0000000 )
                  (  0.0000000  0.0000000  1.0000000 )


      isym =  2     180 deg rotation - cart. axis [0,0,1]        

 cryst.   s( 2) = (    -1          0          0      )    f =(  0.5000000 )
                  (     0         -1          0      )       (  0.0000000 )
                  (     0          0          1      )       (  0.5000000 )

 cart.    s( 2) = ( -1.0000000  0.0000000  0.0000000 )    f =(  0.5000000 )
                  (  0.0000000 -1.0000000  0.0000000 )       (  0.0000000 )
                  (  0.0000000  0.0000000  1.0000000 )       (  0.1952067 )


      isym =  3     180 deg rotation - cart. axis [0,1,0]        

 cryst.   s( 3) = (    -1          0          0      )    f =(  0.0000000 )
                  (     0          1          0      )       ( -0.5000000 )
                  (     0          0         -1      )       (  0.0000000 )

 cart.    s( 3) = ( -1.0000000  0.0000000  0.0000000 )    f =(  0.0000000 )
                  (  0.0000000  1.0000000  0.0000000 )       ( -0.1840809 )
                  (  0.0000000  0.0000000 -1.0000000 )       (  0.0000000 )


      isym =  4     180 deg rotation - cart. axis [1,0,0]        

 cryst.   s( 4) = (     1          0          0      )    f =(  0.5000000 )
                  (     0         -1          0      )       (  0.5000000 )
                  (     0          0         -1      )       (  0.5000000 )

 cart.    s( 4) = (  1.0000000  0.0000000  0.0000000 )    f =(  0.5000000 )
                  (  0.0000000 -1.0000000  0.0000000 )       (  0.1840809 )
                  (  0.0000000  0.0000000 -1.0000000 )       (  0.1952067 )


      isym =  5     inversion                                    

 cryst.   s( 5) = (    -1          0          0      )
                  (     0         -1          0      )
                  (     0          0         -1      )

 cart.    s( 5) = ( -1.0000000  0.0000000  0.0000000 )
                  (  0.0000000 -1.0000000  0.0000000 )
                  (  0.0000000  0.0000000 -1.0000000 )


      isym =  6     inv. 180 deg rotation - cart. axis [0,0,1]   

 cryst.   s( 6) = (     1          0          0      )    f =(  0.5000000 )
                  (     0          1          0      )       (  0.0000000 )
                  (     0          0         -1      )       (  0.5000000 )

 cart.    s( 6) = (  1.0000000  0.0000000  0.0000000 )    f =(  0.5000000 )
                  (  0.0000000  1.0000000  0.0000000 )       (  0.0000000 )
                  (  0.0000000  0.0000000 -1.0000000 )       (  0.1952067 )


      isym =  7     inv. 180 deg rotation - cart. axis [0,1,0]   

 cryst.   s( 7) = (     1          0          0      )    f =(  0.0000000 )
                  (     0         -1          0      )       (  0.5000000 )
                  (     0          0          1      )       (  0.0000000 )

 cart.    s( 7) = (  1.0000000  0.0000000  0.0000000 )    f =(  0.0000000 )
                  (  0.0000000 -1.0000000  0.0000000 )       (  0.1840809 )
                  (  0.0000000  0.0000000  1.0000000 )       (  0.0000000 )


      isym =  8     inv. 180 deg rotation - cart. axis [1,0,0]   

 cryst.   s( 8) = (    -1          0          0      )    f =(  0.5000000 )
                  (     0          1          0      )       ( -0.5000000 )
                  (     0          0          1      )       (  0.5000000 )

 cart.    s( 8) = ( -1.0000000  0.0000000  0.0000000 )    f =(  0.5000000 )
                  (  0.0000000  1.0000000  0.0000000 )       ( -0.1840809 )
                  (  0.0000000  0.0000000  1.0000000 )       (  0.1952067 )


     point group D_2h (mmm) 
     there are  8 classes
     the character table:

       E     C2    C2'   C2''  i     s_v   s_v'  s_v''
A_g    1.00  1.00  1.00  1.00  1.00  1.00  1.00  1.00
B_1g   1.00  1.00 -1.00 -1.00  1.00  1.00 -1.00 -1.00
B_2g   1.00 -1.00  1.00 -1.00  1.00 -1.00  1.00 -1.00
B_3g   1.00 -1.00 -1.00  1.00  1.00 -1.00 -1.00  1.00
A_u    1.00  1.00  1.00  1.00 -1.00 -1.00 -1.00 -1.00
B_1u   1.00  1.00 -1.00 -1.00 -1.00 -1.00  1.00  1.00
B_2u   1.00 -1.00  1.00 -1.00 -1.00  1.00 -1.00  1.00
B_3u   1.00 -1.00 -1.00  1.00 -1.00  1.00  1.00 -1.00

     the symmetry operations in each class and the name of the first element:

     E        1
          identity                                               
     C2       2
          180 deg rotation - cart. axis [0,0,1]                  
     C2'      4
          180 deg rotation - cart. axis [1,0,0]                  
     C2''     3
          180 deg rotation - cart. axis [0,1,0]                  
     i        5
          inversion                                              
     s_v      6
          inv. 180 deg rotation - cart. axis [0,0,1]             
     s_v'     8
          inv. 180 deg rotation - cart. axis [1,0,0]             
     s_v''    7
          inv. 180 deg rotation - cart. axis [0,1,0]             

   Cartesian axes

     site n.     atom                  positions (alat units)
         1           Se  tau(   1) = (   0.8555000   0.0920405   0.1884916  )
         2           Sn  tau(   2) = (   0.1187000   0.0920405   0.0385728  )
         3           Se  tau(   3) = (   0.6445000   0.2761214   0.3836983  )
         4           Sn  tau(   4) = (   0.3813000   0.2761214   0.2337795  )
         5           Se  tau(   5) = (   0.3555000   0.0920405   0.0067151  )
         6           Sn  tau(   6) = (   0.6187000   0.0920405   0.1566338  )
         7           Se  tau(   7) = (   0.1445000   0.2761214   0.2019218  )
         8           Sn  tau(   8) = (   0.8813000   0.2761214   0.3518405  )

   Crystallographic axes

     site n.     atom                  positions (cryst. coord.)
         1           Se  tau(   1) = (  0.8555000  0.2500000  0.4828000  )
         2           Sn  tau(   2) = (  0.1187000  0.2500000  0.0988000  )
         3           Se  tau(   3) = (  0.6445000  0.7500000  0.9828000  )
         4           Sn  tau(   4) = (  0.3813000  0.7500000  0.5988000  )
         5           Se  tau(   5) = (  0.3555000  0.2500000  0.0172000  )
         6           Sn  tau(   6) = (  0.6187000  0.2500000  0.4012000  )
         7           Se  tau(   7) = (  0.1445000  0.7500000  0.5172000  )
         8           Sn  tau(   8) = (  0.8813000  0.7500000  0.9012000  )

     number of k points=    32
                       cart. coord. in units 2pi/alat
        k(    1) = (   0.0000000   0.0000000   0.0000000), wk =   0.0277778
        k(    2) = (   0.0000000   0.0000000   0.4268979), wk =   0.0555556
        k(    3) = (   0.0000000   0.0000000   0.8537959), wk =   0.0555556
        k(    4) = (   0.0000000   0.0000000  -1.2806938), wk =   0.0277778
        k(    5) = (   0.0000000   0.4526995   0.0000000), wk =   0.0555556
        k(    6) = (   0.0000000   0.4526995   0.4268979), wk =   0.1111111
        k(    7) = (   0.0000000   0.4526995   0.8537959), wk =   0.1111111
        k(    8) = (   0.0000000   0.4526995  -1.2806938), wk =   0.0555556
        k(    9) = (   0.0000000   0.9053989   0.0000000), wk =   0.0555556
        k(   10) = (   0.0000000   0.9053989   0.4268979), wk =   0.1111111
        k(   11) = (   0.0000000   0.9053989   0.8537959), wk =   0.1111111
        k(   12) = (   0.0000000   0.9053989  -1.2806938), wk =   0.0555556
        k(   13) = (   0.0000000  -1.3580984   0.0000000), wk =   0.0277778
        k(   14) = (   0.0000000  -1.3580984   0.4268979), wk =   0.0555556
        k(   15) = (   0.0000000  -1.3580984   0.8537959), wk =   0.0555556
        k(   16) = (   0.0000000  -1.3580984  -1.2806938), wk =   0.0277778
        k(   17) = (  -0.5000000   0.0000000   0.0000000), wk =   0.0277778
        k(   18) = (  -0.5000000   0.0000000   0.4268979), wk =   0.0555556
        k(   19) = (  -0.5000000   0.0000000   0.8537959), wk =   0.0555556
        k(   20) = (  -0.5000000   0.0000000  -1.2806938), wk =   0.0277778
        k(   21) = (  -0.5000000   0.4526995   0.0000000), wk =   0.0555556
        k(   22) = (  -0.5000000   0.4526995   0.4268979), wk =   0.1111111
        k(   23) = (  -0.5000000   0.4526995   0.8537959), wk =   0.1111111
        k(   24) = (  -0.5000000   0.4526995  -1.2806938), wk =   0.0555556
        k(   25) = (  -0.5000000   0.9053989   0.0000000), wk =   0.0555556
        k(   26) = (  -0.5000000   0.9053989   0.4268979), wk =   0.1111111
        k(   27) = (  -0.5000000   0.9053989   0.8537959), wk =   0.1111111
        k(   28) = (  -0.5000000   0.9053989  -1.2806938), wk =   0.0555556
        k(   29) = (  -0.5000000  -1.3580984   0.0000000), wk =   0.0277778
        k(   30) = (  -0.5000000  -1.3580984   0.4268979), wk =   0.0555556
        k(   31) = (  -0.5000000  -1.3580984   0.8537959), wk =   0.0555556
        k(   32) = (  -0.5000000  -1.3580984  -1.2806938), wk =   0.0277778

                       cryst. coord.
        k(    1) = (   0.0000000   0.0000000   0.0000000), wk =   0.0277778
        k(    2) = (   0.0000000   0.0000000   0.1666667), wk =   0.0555556
        k(    3) = (   0.0000000   0.0000000   0.3333333), wk =   0.0555556
        k(    4) = (   0.0000000   0.0000000  -0.5000000), wk =   0.0277778
        k(    5) = (   0.0000000   0.1666667   0.0000000), wk =   0.0555556
        k(    6) = (   0.0000000   0.1666667   0.1666667), wk =   0.1111111
        k(    7) = (   0.0000000   0.1666667   0.3333333), wk =   0.1111111
        k(    8) = (   0.0000000   0.1666667  -0.5000000), wk =   0.0555556
        k(    9) = (   0.0000000   0.3333333   0.0000000), wk =   0.0555556
        k(   10) = (   0.0000000   0.3333333   0.1666667), wk =   0.1111111
        k(   11) = (   0.0000000   0.3333333   0.3333333), wk =   0.1111111
        k(   12) = (   0.0000000   0.3333333  -0.5000000), wk =   0.0555556
        k(   13) = (   0.0000000  -0.5000000   0.0000000), wk =   0.0277778
        k(   14) = (   0.0000000  -0.5000000   0.1666667), wk =   0.0555556
        k(   15) = (   0.0000000  -0.5000000   0.3333333), wk =   0.0555556
        k(   16) = (   0.0000000  -0.5000000  -0.5000000), wk =   0.0277778
        k(   17) = (  -0.5000000   0.0000000   0.0000000), wk =   0.0277778
        k(   18) = (  -0.5000000   0.0000000   0.1666667), wk =   0.0555556
        k(   19) = (  -0.5000000   0.0000000   0.3333333), wk =   0.0555556
        k(   20) = (  -0.5000000   0.0000000  -0.5000000), wk =   0.0277778
        k(   21) = (  -0.5000000   0.1666667   0.0000000), wk =   0.0555556
        k(   22) = (  -0.5000000   0.1666667   0.1666667), wk =   0.1111111
        k(   23) = (  -0.5000000   0.1666667   0.3333333), wk =   0.1111111
        k(   24) = (  -0.5000000   0.1666667  -0.5000000), wk =   0.0555556
        k(   25) = (  -0.5000000   0.3333333   0.0000000), wk =   0.0555556
        k(   26) = (  -0.5000000   0.3333333   0.1666667), wk =   0.1111111
        k(   27) = (  -0.5000000   0.3333333   0.3333333), wk =   0.1111111
        k(   28) = (  -0.5000000   0.3333333  -0.5000000), wk =   0.0555556
        k(   29) = (  -0.5000000  -0.5000000   0.0000000), wk =   0.0277778
        k(   30) = (  -0.5000000  -0.5000000   0.1666667), wk =   0.0555556
        k(   31) = (  -0.5000000  -0.5000000   0.3333333), wk =   0.0555556
        k(   32) = (  -0.5000000  -0.5000000  -0.5000000), wk =   0.0277778

     Dense  grid:    68055 G-vectors     FFT dimensions: ( 100,  36,  40)

     Smooth grid:    17237 G-vectors     FFT dimensions: (  64,  24,  24)

     Dynamical RAM for                 wfc:       1.64 MB

     Dynamical RAM for     wfc (w. buffer):      14.78 MB

     Dynamical RAM for           str. fact:       2.08 MB

     Dynamical RAM for           local pot:       0.00 MB

     Dynamical RAM for          nlocal pot:       4.73 MB

     Dynamical RAM for                qrad:       2.27 MB

     Dynamical RAM for          rho,v,vnew:       6.41 MB

     Dynamical RAM for               rhoin:       2.14 MB

     Dynamical RAM for            rho*nmix:      16.61 MB

     Dynamical RAM for           G-vectors:       4.03 MB

     Dynamical RAM for          h,s,v(r/c):       0.46 MB

     Dynamical RAM for          <psi|beta>:       0.11 MB

     Dynamical RAM for                 psi:       3.29 MB

     Dynamical RAM for                hpsi:       3.29 MB

     Dynamical RAM for                spsi:       3.29 MB

     Dynamical RAM for      wfcinit/wfcrot:       3.48 MB

     Dynamical RAM for           addusdens:      50.10 MB

     Dynamical RAM for          addusforce:      51.42 MB

     Estimated static dynamical RAM per process >      61.66 MB

     Estimated max dynamical RAM per process >     113.08 MB

     Estimated total dynamical RAM >     452.31 MB

     Initial potential from superposition of free atoms

     starting charge   75.99954, renormalised to   80.00000
     Starting wfcs are   52 randomized atomic wfcs

     total cpu time spent up to now is        3.0 secs

     Self-consistent Calculation

     iteration #  1     ecut=    20.00 Ry     beta= 0.70
     Davidson diagonalization with overlap
     ethr =  1.00E-02,  avg # of iterations =  3.7

     total cpu time spent up to now is       11.6 secs

     total energy              =    -826.23753080 Ry
     estimated scf accuracy    <       2.79036612 Ry

     iteration #  2     ecut=    20.00 Ry     beta= 0.70
     Davidson diagonalization with overlap
     ethr =  3.49E-03,  avg # of iterations =  2.0

     total cpu time spent up to now is       18.1 secs

     total energy              =    -827.07290424 Ry
     estimated scf accuracy    <       1.10811400 Ry

     iteration #  3     ecut=    20.00 Ry     beta= 0.70
     Davidson diagonalization with overlap
     ethr =  1.39E-03,  avg # of iterations =  2.0

     total cpu time spent up to now is       24.2 secs

     total energy              =    -827.35693727 Ry
     estimated scf accuracy    <       0.06596504 Ry

     iteration #  4     ecut=    20.00 Ry     beta= 0.70
     Davidson diagonalization with overlap
     ethr =  8.25E-05,  avg # of iterations =  3.2

     total cpu time spent up to now is       31.0 secs

     total energy              =    -827.36815860 Ry
     estimated scf accuracy    <       0.00302147 Ry

     iteration #  5     ecut=    20.00 Ry     beta= 0.70
     Davidson diagonalization with overlap
     ethr =  3.78E-06,  avg # of iterations =  5.0

     total cpu time spent up to now is       39.9 secs

     total energy              =    -827.36887980 Ry
     estimated scf accuracy    <       0.00068943 Ry

     iteration #  6     ecut=    20.00 Ry     beta= 0.70
     Davidson diagonalization with overlap
     ethr =  8.62E-07,  avg # of iterations =  2.0

     total cpu time spent up to now is       45.4 secs

     total energy              =    -827.36903032 Ry
     estimated scf accuracy    <       0.00005834 Ry

     iteration #  7     ecut=    20.00 Ry     beta= 0.70
     Davidson diagonalization with overlap
     ethr =  7.29E-08,  avg # of iterations =  4.0

     total cpu time spent up to now is       52.3 secs

     total energy              =    -827.36904093 Ry
     estimated scf accuracy    <       0.00000413 Ry

     iteration #  8     ecut=    20.00 Ry     beta= 0.70
     Davidson diagonalization with overlap
     ethr =  5.16E-09,  avg # of iterations =  2.2

     total cpu time spent up to now is       58.9 secs

     total energy              =    -827.36904212 Ry
     estimated scf accuracy    <       0.00000054 Ry

     iteration #  9     ecut=    20.00 Ry     beta= 0.70
     Davidson diagonalization with overlap
     ethr =  6.76E-10,  avg # of iterations =  2.0

     total cpu time spent up to now is       65.0 secs

     End of self-consistent calculation

          k = 0.0000 0.0000 0.0000 (  2147 PWs)   bands (ev):

   -13.4412 -13.4312 -13.4208 -13.4110 -13.4097 -13.4063 -13.4036 -13.3981
   -13.3890 -13.3861 -13.3824 -13.3818 -13.3699 -13.3660 -13.3655 -13.3561
   -13.3406 -13.3404 -13.3264 -13.3240  -5.7356  -5.3863  -4.6492  -4.1490
     0.8091   1.9470   2.5401   3.0754   3.2378   4.6745   4.7120   4.7865
     5.1930   5.2486   5.8217   6.3220   6.5478   6.9923   7.4056   7.5774
     8.8619  10.9628  11.1059  11.1368  11.3672  11.4646  12.3415  12.6382
    12.7191  12.7544

     occupation numbers 
     1.0000   1.0000   1.0000   1.0000   1.0000   1.0000   1.0000   1.0000
     1.0000   1.0000   1.0000   1.0000   1.0000   1.0000   1.0000   1.0000
     1.0000   1.0000   1.0000   1.0000   1.0000   1.0000   1.0000   1.0000
     1.0000   1.0000   1.0000   1.0000   1.0000   1.0000   1.0000   1.0000
     1.0000   1.0000   1.0000   1.0000   1.0000   1.0000   1.0000   1.0000
     0.0000   0.0000   0.0000   0.0000   0.0000   0.0000   0.0000   0.0000
     0.0000   0.0000

          k = 0.0000 0.0000 0.4269 (  2158 PWs)   bands (ev):

   -13.4357 -13.4314 -13.4218 -13.4189 -13.4116 -13.4111 -13.4090 -13.4031
   -13.4001 -13.3963 -13.3953 -13.3933 -13.3750 -13.3667 -13.3646 -13.3500
   -13.3490 -13.3397 -13.3261 -13.3214  -5.6180  -5.2771  -4.6353  -4.1802
     0.4434   1.7084   1.9305   2.6901   3.2258   4.8274   4.8550   5.3439
     5.3552   5.9129   5.9382   6.5267   6.6023   7.1044   7.4510   7.5949
     8.9832  10.1071  10.7382  10.9134  11.1493  11.4647  11.9114  12.0829
    12.5408  12.7770

     occupation numbers 
     1.0000   1.0000   1.0000   1.0000   1.0000   1.0000   1.0000   1.0000
     1.0000   1.0000   1.0000   1.0000   1.0000   1.0000   1.0000   1.0000
     1.0000   1.0000   1.0000   1.0000   1.0000   1.0000   1.0000   1.0000
     1.0000   1.0000   1.0000   1.0000   1.0000   1.0000   1.0000   1.0000
     1.0000   1.0000   1.0000   1.0000   1.0000   1.0000   1.0000   1.0000
     0.0000   0.0000   0.0000   0.0000   0.0000   0.0000   0.0000   0.0000
     0.0000   0.0000

          k = 0.0000 0.0000 0.8538 (  2150 PWs)   bands (ev):

   -13.4292 -13.4275 -13.4231 -13.4202 -13.4169 -13.4117 -13.4096 -13.4012
   -13.3965 -13.3937 -13.3800 -13.3792 -13.3789 -13.3758 -13.3591 -13.3471
   -13.3460 -13.3444 -13.3144 -13.3109  -5.3014  -4.9852  -4.6781  -4.3196
    -0.0249   0.8102   1.3646   1.9829   3.6538   5.0330   5.3483   5.7938
     6.1213   6.1324   6.3784   6.6170   6.8513   7.4487   7.5945   8.1024
     9.0083   9.5676   9.5907   9.7511  10.4829  10.5883  11.1050  11.2371
    12.0034  12.1338

     occupation numbers 
     1.0000   1.0000   1.0000   1.0000   1.0000   1.0000   1.0000   1.0000
     1.0000   1.0000   1.0000   1.0000   1.0000   1.0000   1.0000   1.0000
     1.0000   1.0000   1.0000   1.0000   1.0000   1.0000   1.0000   1.0000
     1.0000   1.0000   1.0000   1.0000   1.0000   1.0000   1.0000   1.0000
     1.0000   1.0000   1.0000   1.0000   1.0000   1.0000   1.0000   1.0000
     0.0000   0.0000   0.0000   0.0000   0.0000   0.0000   0.0000   0.0000
     0.0000   0.0000

          k = 0.0000 0.0000-1.2807 (  2160 PWs)   bands (ev):

   -13.4303 -13.4303 -13.4249 -13.4249 -13.4133 -13.4133 -13.4001 -13.4001
   -13.3902 -13.3902 -13.3889 -13.3889 -13.3758 -13.3758 -13.3570 -13.3570
   -13.3498 -13.3498 -13.3227 -13.3227  -4.9202  -4.9202  -4.6154  -4.6154
     0.0644   0.0644   1.4333   1.4333   4.3998   4.3998   5.9379   5.9379
     6.3152   6.3152   6.6870   6.6870   7.2679   7.2679   7.7981   7.7981
     9.3314   9.3314   9.6635   9.6635   9.7967   9.7967  10.7718  10.7718
    11.2405  11.2405

     occupation numbers 
     1.0000   1.0000   1.0000   1.0000   1.0000   1.0000   1.0000   1.0000
     1.0000   1.0000   1.0000   1.0000   1.0000   1.0000   1.0000   1.0000
     1.0000   1.0000   1.0000   1.0000   1.0000   1.0000   1.0000   1.0000
     1.0000   1.0000   1.0000   1.0000   1.0000   1.0000   1.0000   1.0000
     1.0000   1.0000   1.0000   1.0000   1.0000   1.0000   1.0000   1.0000
     0.0000   0.0000   0.0000   0.0000   0.0000   0.0000   0.0000   0.0000
     0.0000   0.0000

          k = 0.0000 0.4527 0.0000 (  2143 PWs)   bands (ev):

   -13.4289 -13.4204 -13.4161 -13.4142 -13.4140 -13.4077 -13.4005 -13.3979
   -13.3933 -13.3887 -13.3816 -13.3765 -13.3706 -13.3638 -13.3625 -13.3557
   -13.3541 -13.3363 -13.3270 -13.3170  -5.5875  -5.2599  -4.5864  -4.1603
     0.6079   1.5546   2.3419   2.3681   3.2502   4.6444   4.9721   5.0983
     5.1840   5.4082   6.1359   6.4051   6.5338   7.4185   7.4296   7.4348
     9.0820   9.9375  10.8765  11.1417  11.2293  11.4596  11.8319  11.8820
    12.5620  13.1478

     occupation numbers 
     1.0000   1.0000   1.0000   1.0000   1.0000   1.0000   1.0000   1.0000
     1.0000   1.0000   1.0000   1.0000   1.0000   1.0000   1.0000   1.0000
     1.0000   1.0000   1.0000   1.0000   1.0000   1.0000   1.0000   1.0000
     1.0000   1.0000   1.0000   1.0000   1.0000   1.0000   1.0000   1.0000
     1.0000   1.0000   1.0000   1.0000   1.0000   1.0000   1.0000   1.0000
     0.0000   0.0000   0.0000   0.0000   0.0000   0.0000   0.0000   0.0000
     0.0000   0.0000

          k = 0.0000 0.4527 0.4269 (  2148 PWs)   bands (ev):

   -13.4275 -13.4173 -13.4161 -13.4146 -13.4112 -13.4094 -13.4087 -13.4069
   -13.4017 -13.3894 -13.3873 -13.3824 -13.3711 -13.3642 -13.3546 -13.3511
   -13.3485 -13.3350 -13.3348 -13.3224  -5.4739  -5.1564  -4.5716  -4.1815
     0.4150   1.5329   1.8455   2.2904   3.3623   4.1106   4.3341   5.4317
     5.6027   5.9187   6.0404   6.3580   7.0767   7.2079   7.5571   7.6565
     9.1946   9.6554  10.1516  10.1941  11.1933  11.3268  11.8871  12.0872
    12.5694  12.9814

     occupation numbers 
     1.0000   1.0000   1.0000   1.0000   1.0000   1.0000   1.0000   1.0000
     1.0000   1.0000   1.0000   1.0000   1.0000   1.0000   1.0000   1.0000
     1.0000   1.0000   1.0000   1.0000   1.0000   1.0000   1.0000   1.0000
     1.0000   1.0000   1.0000   1.0000   1.0000   1.0000   1.0000   1.0000
     1.0000   1.0000   1.0000   1.0000   1.0000   1.0000   1.0000   1.0000
     0.0000   0.0000   0.0000   0.0000   0.0000   0.0000   0.0000   0.0000
     0.0000   0.0000

          k = 0.0000 0.4527 0.8538 (  2174 PWs)   bands (ev):

   -13.4283 -13.4277 -13.4237 -13.4218 -13.4200 -13.4179 -13.4167 -13.4132
   -13.4073 -13.3932 -13.3888 -13.3883 -13.3825 -13.3779 -13.3590 -13.3562
   -13.3534 -13.3509 -13.3368 -13.3352  -5.1739  -4.8833  -4.6046  -4.2926
     0.1257   0.9265   1.4463   1.9228   3.8014   4.1035   4.2879   5.3188
     5.4763   5.8088   6.2157   6.6259   7.0358   7.3178   7.4038   7.6207
     9.1919   9.5035   9.9600  10.2818  10.7763  11.1256  11.3126  12.3603
    12.6344  12.9145

     occupation numbers 
     1.0000   1.0000   1.0000   1.0000   1.0000   1.0000   1.0000   1.0000
     1.0000   1.0000   1.0000   1.0000   1.0000   1.0000   1.0000   1.0000
     1.0000   1.0000   1.0000   1.0000   1.0000   1.0000   1.0000   1.0000
     1.0000   1.0000   1.0000   1.0000   1.0000   1.0000   1.0000   1.0000
     1.0000   1.0000   1.0000   1.0000   1.0000   1.0000   1.0000   1.0000
     0.0000   0.0000   0.0000   0.0000   0.0000   0.0000   0.0000   0.0000
     0.0000   0.0000

          k = 0.0000 0.4527-1.2807 (  2158 PWs)   bands (ev):

   -13.4288 -13.4288 -13.4174 -13.4174 -13.4155 -13.4155 -13.4047 -13.4047
   -13.3962 -13.3962 -13.3862 -13.3862 -13.3771 -13.3771 -13.3502 -13.3502
   -13.3465 -13.3465 -13.3278 -13.3278  -4.8198  -4.8198  -4.5467  -4.5467
     0.2510   0.2510   1.5389   1.5389   4.3156   4.3156   4.7921   4.7921
     5.3340   5.3340   6.3016   6.3016   7.1518   7.1518   7.5593   7.5593
     9.2887   9.2887  10.1014  10.1014  11.2671  11.2671  11.7318  11.7318
    12.3080  12.3080

     occupation numbers 
     1.0000   1.0000   1.0000   1.0000   1.0000   1.0000   1.0000   1.0000
     1.0000   1.0000   1.0000   1.0000   1.0000   1.0000   1.0000   1.0000
     1.0000   1.0000   1.0000   1.0000   1.0000   1.0000   1.0000   1.0000
     1.0000   1.0000   1.0000   1.0000   1.0000   1.0000   1.0000   1.0000
     1.0000   1.0000   1.0000   1.0000   1.0000   1.0000   1.0000   1.0000
     0.0000   0.0000   0.0000   0.0000   0.0000   0.0000   0.0000   0.0000
     0.0000   0.0000

          k = 0.0000 0.9054 0.0000 (  2145 PWs)   bands (ev):

   -13.4260 -13.4215 -13.4197 -13.4184 -13.4040 -13.4031 -13.4018 -13.3984
   -13.3961 -13.3951 -13.3902 -13.3711 -13.3700 -13.3644 -13.3621 -13.3538
   -13.3497 -13.3405 -13.3384 -13.3320  -5.1844  -4.9383  -4.4982  -4.2901
     0.2634   1.0167   1.1504   1.6781   3.7121   4.9807   5.3221   5.4511
     5.5211   5.7752   6.3651   6.5151   6.8558   7.2005   7.3342   7.9157
     8.6800   9.5593   9.8541   9.8779  10.1151  10.6361  10.6904  11.5304
    11.9103  12.2866

     occupation numbers 
     1.0000   1.0000   1.0000   1.0000   1.0000   1.0000   1.0000   1.0000
     1.0000   1.0000   1.0000   1.0000   1.0000   1.0000   1.0000   1.0000
     1.0000   1.0000   1.0000   1.0000   1.0000   1.0000   1.0000   1.0000
     1.0000   1.0000   1.0000   1.0000   1.0000   1.0000   1.0000   1.0000
     1.0000   1.0000   1.0000   1.0000   1.0000   1.0000   1.0000   1.0000
     0.0000   0.0000   0.0000   0.0000   0.0000   0.0000   0.0000   0.0000
     0.0000   0.0000

          k = 0.0000 0.9054 0.4269 (  2146 PWs)   bands (ev):

   -13.4242 -13.4215 -13.4212 -13.4158 -13.4049 -13.4040 -13.3999 -13.3984
   -13.3978 -13.3876 -13.3857 -13.3773 -13.3765 -13.3681 -13.3595 -13.3534
   -13.3463 -13.3378 -13.3337 -13.3254  -5.0875  -4.8537  -4.4740  -4.2789
     0.3379   1.1572   1.2314   1.6063   3.8461   3.9411   4.3070   5.1439
     5.5316   5.8493   6.1473   6.4982   6.6565   7.1591   7.2986   7.3820
     9.1259   9.5190   9.6980  10.0286  10.8204  11.3655  11.5288  12.0293
    12.5085  12.8451

     occupation numbers 
     1.0000   1.0000   1.0000   1.0000   1.0000   1.0000   1.0000   1.0000
     1.0000   1.0000   1.0000   1.0000   1.0000   1.0000   1.0000   1.0000
     1.0000   1.0000   1.0000   1.0000   1.0000   1.0000   1.0000   1.0000
     1.0000   1.0000   1.0000   1.0000   1.0000   1.0000   1.0000   1.0000
     1.0000   1.0000   1.0000   1.0000   1.0000   1.0000   1.0000   1.0000
     0.0000   0.0000   0.0000   0.0000   0.0000   0.0000   0.0000   0.0000
     0.0000   0.0000

          k = 0.0000 0.9054 0.8538 (  2151 PWs)   bands (ev):

   -13.4319 -13.4261 -13.4225 -13.4171 -13.4064 -13.4058 -13.4024 -13.3981
   -13.3942 -13.3903 -13.3849 -13.3800 -13.3743 -13.3700 -13.3571 -13.3516
   -13.3450 -13.3356 -13.3296 -13.3254  -4.8431  -4.6417  -4.4633  -4.2928
     0.5051   1.1396   1.4834   1.5837   3.2626   3.6404   4.0827   4.3285
     4.8226   5.2106   5.5240   5.9118   6.2297   6.4926   6.9867   7.2716
     9.0802  10.7199  11.0610  11.2360  11.7109  11.7143  12.5249  12.6910
    13.0259  13.1456

     occupation numbers 
     1.0000   1.0000   1.0000   1.0000   1.0000   1.0000   1.0000   1.0000
     1.0000   1.0000   1.0000   1.0000   1.0000   1.0000   1.0000   1.0000
     1.0000   1.0000   1.0000   1.0000   1.0000   1.0000   1.0000   1.0000
     1.0000   1.0000   1.0000   1.0000   1.0000   1.0000   1.0000   1.0000
     1.0000   1.0000   1.0000   1.0000   1.0000   1.0000   1.0000   1.0000
     0.0000   0.0000   0.0000   0.0000   0.0000   0.0000   0.0000   0.0000
     0.0000   0.0000

          k = 0.0000 0.9054-1.2807 (  2142 PWs)   bands (ev):

   -13.4251 -13.4251 -13.4209 -13.4209 -13.4031 -13.4031 -13.3992 -13.3992
   -13.3912 -13.3912 -13.3835 -13.3835 -13.3650 -13.3650 -13.3496 -13.3496
   -13.3394 -13.3394 -13.3210 -13.3210  -4.5866  -4.5866  -4.4153  -4.4153
     0.7570   0.7570   1.6648   1.6648   3.4493   3.4493   3.8673   3.8673
     4.7612   4.7612   5.4289   5.4289   6.0442   6.0442   6.9466   6.9466
    10.0528  10.0528  11.6804  11.6804  12.7895  12.7895  12.8529  12.8529
    13.0103  13.0103

     occupation numbers 
     1.0000   1.0000   1.0000   1.0000   1.0000   1.0000   1.0000   1.0000
     1.0000   1.0000   1.0000   1.0000   1.0000   1.0000   1.0000   1.0000
     1.0000   1.0000   1.0000   1.0000   1.0000   1.0000   1.0000   1.0000
     1.0000   1.0000   1.0000   1.0000   1.0000   1.0000   1.0000   1.0000
     1.0000   1.0000   1.0000   1.0000   1.0000   1.0000   1.0000   1.0000
     0.0000   0.0000   0.0000   0.0000   0.0000   0.0000   0.0000   0.0000
     0.0000   0.0000

          k = 0.0000-1.3581 0.0000 (  2156 PWs)   bands (ev):

   -13.4351 -13.4351 -13.4258 -13.4258 -13.4068 -13.4068 -13.4000 -13.4000
   -13.3992 -13.3992 -13.3814 -13.3814 -13.3658 -13.3658 -13.3622 -13.3622
   -13.3383 -13.3383 -13.3374 -13.3374  -4.6713  -4.6713  -4.6069  -4.6069
     0.3582   0.3582   1.0558   1.0558   4.4949   4.4949   5.8578   5.8578
     5.8730   5.8730   6.3837   6.3837   7.1155   7.1155   7.3107   7.3107
     9.1199   9.1199   9.5479   9.5479   9.8336   9.8336  10.6390  10.6390
    11.3472  11.3472

     occupation numbers 
     1.0000   1.0000   1.0000   1.0000   1.0000   1.0000   1.0000   1.0000
     1.0000   1.0000   1.0000   1.0000   1.0000   1.0000   1.0000   1.0000
     1.0000   1.0000   1.0000   1.0000   1.0000   1.0000   1.0000   1.0000
     1.0000   1.0000   1.0000   1.0000   1.0000   1.0000   1.0000   1.0000
     1.0000   1.0000   1.0000   1.0000   1.0000   1.0000   1.0000   1.0000
     0.0000   0.0000   0.0000   0.0000   0.0000   0.0000   0.0000   0.0000
     0.0000   0.0000

          k = 0.0000-1.3581 0.4269 (  2134 PWs)   bands (ev):

   -13.4292 -13.4292 -13.4191 -13.4191 -13.3996 -13.3996 -13.3910 -13.3910
   -13.3889 -13.3889 -13.3804 -13.3804 -13.3603 -13.3603 -13.3536 -13.3536
   -13.3301 -13.3301 -13.3279 -13.3279  -4.6107  -4.6107  -4.5542  -4.5542
     0.5220   0.5220   1.1552   1.1552   4.3495   4.3495   4.6916   4.6916
     5.4043   5.4043   6.2306   6.2306   6.5325   6.5325   7.4538   7.4538
     8.9926   8.9926  10.1732  10.1732  11.0940  11.0940  11.6396  11.6396
    12.3002  12.3002

     occupation numbers 
     1.0000   1.0000   1.0000   1.0000   1.0000   1.0000   1.0000   1.0000
     1.0000   1.0000   1.0000   1.0000   1.0000   1.0000   1.0000   1.0000
     1.0000   1.0000   1.0000   1.0000   1.0000   1.0000   1.0000   1.0000
     1.0000   1.0000   1.0000   1.0000   1.0000   1.0000   1.0000   1.0000
     1.0000   1.0000   1.0000   1.0000   1.0000   1.0000   1.0000   1.0000
     0.0000   0.0000   0.0000   0.0000   0.0000   0.0000   0.0000   0.0000
     0.0000   0.0000

          k = 0.0000-1.3581 0.8538 (  2152 PWs)   bands (ev):

   -13.4238 -13.4238 -13.4185 -13.4185 -13.4078 -13.4078 -13.4034 -13.4034
   -13.3887 -13.3887 -13.3821 -13.3821 -13.3663 -13.3663 -13.3554 -13.3554
   -13.3397 -13.3397 -13.3276 -13.3276  -4.4818  -4.4818  -4.4471  -4.4471
     0.9488   0.9488   1.3617   1.3617   3.4544   3.4544   3.9912   3.9912
     4.7032   4.7032   5.5342   5.5342   5.7483   5.7483   6.9395   6.9395
    10.0370  10.0370  11.5438  11.5438  12.5245  12.5245  12.6370  12.6370
    12.9034  12.9034

     occupation numbers 
     1.0000   1.0000   1.0000   1.0000   1.0000   1.0000   1.0000   1.0000
     1.0000   1.0000   1.0000   1.0000   1.0000   1.0000   1.0000   1.0000
     1.0000   1.0000   1.0000   1.0000   1.0000   1.0000   1.0000   1.0000
     1.0000   1.0000   1.0000   1.0000   1.0000   1.0000   1.0000   1.0000
     1.0000   1.0000   1.0000   1.0000   1.0000   1.0000   1.0000   1.0000
     0.0000   0.0000   0.0000   0.0000   0.0000   0.0000   0.0000   0.0000
     0.0000   0.0000

          k = 0.0000-1.3581-1.2807 (  2172 PWs)   bands (ev):

   -13.4404 -13.4404 -13.4288 -13.4288 -13.4060 -13.4060 -13.4055 -13.4055
   -13.3912 -13.3912 -13.3852 -13.3852 -13.3713 -13.3713 -13.3611 -13.3611
   -13.3391 -13.3391 -13.3367 -13.3367  -4.4075  -4.4075  -4.3978  -4.3978
     1.2883   1.2883   1.4397   1.4397   3.0460   3.0460   3.5615   3.5615
     4.4776   4.4776   4.9602   4.9602   5.8094   5.8094   6.6477   6.6477
    10.8787  10.8787  11.1837  11.1837  12.8452  12.8452  12.9874  12.9874
    13.7292  13.7292

     occupation numbers 
     1.0000   1.0000   1.0000   1.0000   1.0000   1.0000   1.0000   1.0000
     1.0000   1.0000   1.0000   1.0000   1.0000   1.0000   1.0000   1.0000
     1.0000   1.0000   1.0000   1.0000   1.0000   1.0000   1.0000   1.0000
     1.0000   1.0000   1.0000   1.0000   1.0000   1.0000   1.0000   1.0000
     1.0000   1.0000   1.0000   1.0000   1.0000   1.0000   1.0000   1.0000
     0.0000   0.0000   0.0000   0.0000   0.0000   0.0000   0.0000   0.0000
     0.0000   0.0000

          k =-0.5000 0.0000 0.0000 (  2138 PWs)   bands (ev):

   -13.4293 -13.4293 -13.4135 -13.4135 -13.4091 -13.4091 -13.4012 -13.4012
   -13.3998 -13.3998 -13.3802 -13.3802 -13.3683 -13.3683 -13.3551 -13.3551
   -13.3356 -13.3356 -13.3186 -13.3186  -5.5961  -5.5961  -4.3634  -4.3634
     1.1494   1.1494   3.0239   3.0239   4.0224   4.0224   4.8655   4.8655
     5.2202   5.2202   6.0191   6.0191   6.2503   6.2503   7.5397   7.5397
    10.6815  10.6815  10.8866  10.8866  11.7814  11.7814  12.0156  12.0156
    13.1043  13.1044

     occupation numbers 
     1.0000   1.0000   1.0000   1.0000   1.0000   1.0000   1.0000   1.0000
     1.0000   1.0000   1.0000   1.0000   1.0000   1.0000   1.0000   1.0000
     1.0000   1.0000   1.0000   1.0000   1.0000   1.0000   1.0000   1.0000
     1.0000   1.0000   1.0000   1.0000   1.0000   1.0000   1.0000   1.0000
     1.0000   1.0000   1.0000   1.0000   1.0000   1.0000   1.0000   1.0000
     0.0000   0.0000   0.0000   0.0000   0.0000   0.0000   0.0000   0.0000
     0.0000   0.0000

          k =-0.5000 0.0000 0.4269 (  2154 PWs)   bands (ev):

   -13.4284 -13.4284 -13.4159 -13.4159 -13.4083 -13.4083 -13.4001 -13.4001
   -13.3941 -13.3941 -13.3930 -13.3930 -13.3791 -13.3791 -13.3575 -13.3575
   -13.3452 -13.3452 -13.3301 -13.3301  -5.4832  -5.4832  -4.3719  -4.3719
     0.8246   0.8246   2.4663   2.4663   4.2602   4.2602   5.0403   5.0403
     5.4576   5.4576   6.3347   6.3347   6.5604   6.5604   7.4544   7.4544
    10.3944  10.3944  11.0470  11.0470  11.0834  11.0834  11.5828  11.5828
    12.9597  12.9597

     occupation numbers 
     1.0000   1.0000   1.0000   1.0000   1.0000   1.0000   1.0000   1.0000
     1.0000   1.0000   1.0000   1.0000   1.0000   1.0000   1.0000   1.0000
     1.0000   1.0000   1.0000   1.0000   1.0000   1.0000   1.0000   1.0000
     1.0000   1.0000   1.0000   1.0000   1.0000   1.0000   1.0000   1.0000
     1.0000   1.0000   1.0000   1.0000   1.0000   1.0000   1.0000   1.0000
     0.0000   0.0000   0.0000   0.0000   0.0000   0.0000   0.0000   0.0000
     0.0000   0.0000

          k =-0.5000 0.0000 0.8538 (  2172 PWs)   bands (ev):

   -13.4332 -13.4332 -13.4258 -13.4258 -13.4245 -13.4245 -13.4049 -13.4049
   -13.3953 -13.3953 -13.3927 -13.3927 -13.3874 -13.3874 -13.3642 -13.3642
   -13.3388 -13.3388 -13.3319 -13.3319  -5.1854  -5.1854  -4.4581  -4.4581
     0.3255   0.3255   1.6296   1.6296   4.7032   4.7032   5.5082   5.5082
     5.8710   5.8710   6.4350   6.4350   6.9859   6.9859   7.7586   7.7586
     9.5934   9.5934  10.0826  10.0826  10.4238  10.4238  11.5259  11.5259
    11.7240  11.7240

     occupation numbers 
     1.0000   1.0000   1.0000   1.0000   1.0000   1.0000   1.0000   1.0000
     1.0000   1.0000   1.0000   1.0000   1.0000   1.0000   1.0000   1.0000
     1.0000   1.0000   1.0000   1.0000   1.0000   1.0000   1.0000   1.0000
     1.0000   1.0000   1.0000   1.0000   1.0000   1.0000   1.0000   1.0000
     1.0000   1.0000   1.0000   1.0000   1.0000   1.0000   1.0000   1.0000
     0.0000   0.0000   0.0000   0.0000   0.0000   0.0000   0.0000   0.0000
     0.0000   0.0000

          k =-0.5000 0.0000-1.2807 (  2176 PWs)   bands (ev):

   -13.4359 -13.4359 -13.4295 -13.4295 -13.4221 -13.4221 -13.4144 -13.4144
   -13.3920 -13.3920 -13.3910 -13.3910 -13.3798 -13.3798 -13.3591 -13.3591
   -13.3422 -13.3422 -13.3371 -13.3371  -4.9176  -4.9176  -4.6205  -4.6205
     0.1438   0.1438   1.2466   1.2466   5.2486   5.2486   5.5015   5.5015
     5.9505   5.9505   6.2952   6.2952   7.5471   7.5471   7.8096   7.8096
     9.3111   9.3111   9.7244   9.7244   9.7854   9.7854  11.1316  11.1316
    11.4742  11.4742

     occupation numbers 
     1.0000   1.0000   1.0000   1.0000   1.0000   1.0000   1.0000   1.0000
     1.0000   1.0000   1.0000   1.0000   1.0000   1.0000   1.0000   1.0000
     1.0000   1.0000   1.0000   1.0000   1.0000   1.0000   1.0000   1.0000
     1.0000   1.0000   1.0000   1.0000   1.0000   1.0000   1.0000   1.0000
     1.0000   1.0000   1.0000   1.0000   1.0000   1.0000   1.0000   1.0000
     0.0000   0.0000   0.0000   0.0000   0.0000   0.0000   0.0000   0.0000
     0.0000   0.0000

          k =-0.5000 0.4527 0.0000 (  2140 PWs)   bands (ev):

   -13.4203 -13.4203 -13.4173 -13.4173 -13.4093 -13.4093 -13.4028 -13.4028
   -13.3965 -13.3965 -13.3812 -13.3812 -13.3677 -13.3677 -13.3528 -13.3528
   -13.3407 -13.3407 -13.3290 -13.3290  -5.4565  -5.4565  -4.3397  -4.3397
     0.9281   0.9281   2.4355   2.4355   4.1564   4.1564   4.8671   4.8671
     5.5381   5.5381   6.1344   6.1344   6.4036   6.4036   7.5973   7.5973
    10.3838  10.3838  10.8777  10.8777  11.3611  11.3611  11.6094  11.6094
    12.8896  12.8896

     occupation numbers 
     1.0000   1.0000   1.0000   1.0000   1.0000   1.0000   1.0000   1.0000
     1.0000   1.0000   1.0000   1.0000   1.0000   1.0000   1.0000   1.0000
     1.0000   1.0000   1.0000   1.0000   1.0000   1.0000   1.0000   1.0000
     1.0000   1.0000   1.0000   1.0000   1.0000   1.0000   1.0000   1.0000
     1.0000   1.0000   1.0000   1.0000   1.0000   1.0000   1.0000   1.0000
     0.0000   0.0000   0.0000   0.0000   0.0000   0.0000   0.0000   0.0000
     0.0000   0.0000

          k =-0.5000 0.4527 0.4269 (  2154 PWs)   bands (ev):

   -13.4235 -13.4235 -13.4166 -13.4166 -13.4124 -13.4124 -13.4070 -13.4070
   -13.3970 -13.3970 -13.3877 -13.3877 -13.3731 -13.3731 -13.3567 -13.3567
   -13.3476 -13.3476 -13.3264 -13.3264  -5.3476  -5.3476  -4.3439  -4.3439
     0.7810   0.7810   2.1685   2.1685   4.1388   4.1388   4.6612   4.6612
     5.4538   5.4538   6.2704   6.2704   7.0814   7.0814   7.5576   7.5576
     9.6938   9.6938  10.7664  10.7664  11.2402  11.2402  11.6575  11.6575
    12.4874  12.4874

     occupation numbers 
     1.0000   1.0000   1.0000   1.0000   1.0000   1.0000   1.0000   1.0000
     1.0000   1.0000   1.0000   1.0000   1.0000   1.0000   1.0000   1.0000
     1.0000   1.0000   1.0000   1.0000   1.0000   1.0000   1.0000   1.0000
     1.0000   1.0000   1.0000   1.0000   1.0000   1.0000   1.0000   1.0000
     1.0000   1.0000   1.0000   1.0000   1.0000   1.0000   1.0000   1.0000
     0.0000   0.0000   0.0000   0.0000   0.0000   0.0000   0.0000   0.0000
     0.0000   0.0000

          k =-0.5000 0.4527 0.8538 (  2166 PWs)   bands (ev):

   -13.4259 -13.4259 -13.4234 -13.4234 -13.4164 -13.4164 -13.4109 -13.4109
   -13.3978 -13.3978 -13.3896 -13.3896 -13.3821 -13.3821 -13.3576 -13.3576
   -13.3468 -13.3468 -13.3268 -13.3268  -5.0654  -5.0654  -4.4116  -4.4116
     0.4659   0.4659   1.6532   1.6532   4.1895   4.1895   4.9954   4.9954
     5.2491   5.2491   6.4450   6.4450   6.9005   6.9005   7.5475   7.5475
     9.7501   9.7501  10.3889  10.3889  10.9280  10.9280  11.5754  11.5754
    12.5172  12.5172

     occupation numbers 
     1.0000   1.0000   1.0000   1.0000   1.0000   1.0000   1.0000   1.0000
     1.0000   1.0000   1.0000   1.0000   1.0000   1.0000   1.0000   1.0000
     1.0000   1.0000   1.0000   1.0000   1.0000   1.0000   1.0000   1.0000
     1.0000   1.0000   1.0000   1.0000   1.0000   1.0000   1.0000   1.0000
     1.0000   1.0000   1.0000   1.0000   1.0000   1.0000   1.0000   1.0000
     0.0000   0.0000   0.0000   0.0000   0.0000   0.0000   0.0000   0.0000
     0.0000   0.0000

          k =-0.5000 0.4527-1.2807 (  2180 PWs)   bands (ev):

   -13.4283 -13.4283 -13.4268 -13.4268 -13.4173 -13.4173 -13.4135 -13.4135
   -13.4003 -13.4003 -13.3908 -13.3908 -13.3856 -13.3856 -13.3578 -13.3578
   -13.3556 -13.3556 -13.3392 -13.3392  -4.8179  -4.8179  -4.5508  -4.5508
     0.3202   0.3202   1.3803   1.3803   4.6006   4.6006   4.7961   4.7961
     5.5666   5.5666   5.9800   5.9800   6.8277   6.8277   7.3462   7.3462
    10.2107  10.2107  10.2697  10.2697  10.7968  10.7968  11.5376  11.5376
    12.4554  12.4554

     occupation numbers 
     1.0000   1.0000   1.0000   1.0000   1.0000   1.0000   1.0000   1.0000
     1.0000   1.0000   1.0000   1.0000   1.0000   1.0000   1.0000   1.0000
     1.0000   1.0000   1.0000   1.0000   1.0000   1.0000   1.0000   1.0000
     1.0000   1.0000   1.0000   1.0000   1.0000   1.0000   1.0000   1.0000
     1.0000   1.0000   1.0000   1.0000   1.0000   1.0000   1.0000   1.0000
     0.0000   0.0000   0.0000   0.0000   0.0000   0.0000   0.0000   0.0000
     0.0000   0.0000

          k =-0.5000 0.9054 0.0000 (  2122 PWs)   bands (ev):

   -13.4215 -13.4215 -13.4134 -13.4134 -13.3953 -13.3953 -13.3937 -13.3937
   -13.3847 -13.3847 -13.3759 -13.3759 -13.3628 -13.3628 -13.3529 -13.3529
   -13.3349 -13.3349 -13.3269 -13.3269  -5.0825  -5.0825  -4.3711  -4.3711
     0.5636   0.5636   1.4047   1.4047   4.6141   4.6141   5.2352   5.2352
     5.9135   5.9135   6.2400   6.2400   6.5568   6.5568   7.6403   7.6403
     9.2348   9.2348  10.1410  10.1410  10.9009  10.9009  11.3001  11.3001
    11.6856  11.6856

     occupation numbers 
     1.0000   1.0000   1.0000   1.0000   1.0000   1.0000   1.0000   1.0000
     1.0000   1.0000   1.0000   1.0000   1.0000   1.0000   1.0000   1.0000
     1.0000   1.0000   1.0000   1.0000   1.0000   1.0000   1.0000   1.0000
     1.0000   1.0000   1.0000   1.0000   1.0000   1.0000   1.0000   1.0000
     1.0000   1.0000   1.0000   1.0000   1.0000   1.0000   1.0000   1.0000
     0.0000   0.0000   0.0000   0.0000   0.0000   0.0000   0.0000   0.0000
     0.0000   0.0000

          k =-0.5000 0.9054 0.4269 (  2144 PWs)   bands (ev):

   -13.4215 -13.4215 -13.4181 -13.4181 -13.4052 -13.4052 -13.3974 -13.3974
   -13.3897 -13.3897 -13.3830 -13.3830 -13.3700 -13.3700 -13.3568 -13.3568
   -13.3412 -13.3412 -13.3311 -13.3311  -4.9919  -4.9919  -4.3544  -4.3544
     0.6593   0.6593   1.4301   1.4301   4.0899   4.0899   4.9127   4.9127
     5.3500   5.3500   6.3257   6.3257   6.6251   6.6251   7.3929   7.3929
     9.7218   9.7218  10.1019  10.1019  11.1762  11.1762  11.5745  11.5745
    12.1098  12.1098

     occupation numbers 
     1.0000   1.0000   1.0000   1.0000   1.0000   1.0000   1.0000   1.0000
     1.0000   1.0000   1.0000   1.0000   1.0000   1.0000   1.0000   1.0000
     1.0000   1.0000   1.0000   1.0000   1.0000   1.0000   1.0000   1.0000
     1.0000   1.0000   1.0000   1.0000   1.0000   1.0000   1.0000   1.0000
     1.0000   1.0000   1.0000   1.0000   1.0000   1.0000   1.0000   1.0000
     0.0000   0.0000   0.0000   0.0000   0.0000   0.0000   0.0000   0.0000
     0.0000   0.0000

          k =-0.5000 0.9054 0.8538 (  2160 PWs)   bands (ev):

   -13.4283 -13.4283 -13.4223 -13.4223 -13.4082 -13.4082 -13.4041 -13.4041
   -13.3956 -13.3956 -13.3859 -13.3859 -13.3737 -13.3737 -13.3566 -13.3566
   -13.3425 -13.3425 -13.3283 -13.3283  -4.7662  -4.7662  -4.3550  -4.3550
     0.7935   0.7935   1.5052   1.5052   3.5020   3.5020   4.3840   4.3840
     4.9115   4.9115   5.5710   5.5710   6.3509   6.3509   7.1003   7.1003
    10.4227  10.4227  11.0101  11.0101  11.2076  11.2076  12.5092  12.5092
    12.6940  12.6940

     occupation numbers 
     1.0000   1.0000   1.0000   1.0000   1.0000   1.0000   1.0000   1.0000
     1.0000   1.0000   1.0000   1.0000   1.0000   1.0000   1.0000   1.0000
     1.0000   1.0000   1.0000   1.0000   1.0000   1.0000   1.0000   1.0000
     1.0000   1.0000   1.0000   1.0000   1.0000   1.0000   1.0000   1.0000
     1.0000   1.0000   1.0000   1.0000   1.0000   1.0000   1.0000   1.0000
     0.0000   0.0000   0.0000   0.0000   0.0000   0.0000   0.0000   0.0000
     0.0000   0.0000

          k =-0.5000 0.9054-1.2807 (  2160 PWs)   bands (ev):

   -13.4241 -13.4241 -13.4230 -13.4230 -13.4124 -13.4124 -13.4043 -13.4043
   -13.3943 -13.3943 -13.3854 -13.3854 -13.3744 -13.3744 -13.3610 -13.3610
   -13.3424 -13.3424 -13.3263 -13.3263  -4.5850  -4.5850  -4.4177  -4.4177
     0.7922   0.7922   1.5945   1.5945   3.6242   3.6242   3.7161   3.7161
     4.9782   4.9782   5.0627   5.0627   6.3868   6.3868   6.7417   6.7417
    10.4980  10.4980  11.2776  11.2776  12.1486  12.1486  12.2470  12.2470
    13.5965  13.5968

     occupation numbers 
     1.0000   1.0000   1.0000   1.0000   1.0000   1.0000   1.0000   1.0000
     1.0000   1.0000   1.0000   1.0000   1.0000   1.0000   1.0000   1.0000
     1.0000   1.0000   1.0000   1.0000   1.0000   1.0000   1.0000   1.0000
     1.0000   1.0000   1.0000   1.0000   1.0000   1.0000   1.0000   1.0000
     1.0000   1.0000   1.0000   1.0000   1.0000   1.0000   1.0000   1.0000
     0.0000   0.0000   0.0000   0.0000   0.0000   0.0000   0.0000   0.0000
     0.0000   0.0000

          k =-0.5000-1.3581 0.0000 (  2144 PWs)   bands (ev):

   -13.4260 -13.4260 -13.4260 -13.4260 -13.3939 -13.3939 -13.3939 -13.3939
   -13.3886 -13.3886 -13.3886 -13.3886 -13.3626 -13.3626 -13.3626 -13.3626
   -13.3374 -13.3374 -13.3374 -13.3374  -4.6394  -4.6394  -4.6394  -4.6394
     0.6667   0.6667   0.6667   0.6667   5.3110   5.3110   5.3110   5.3110
     5.9850   5.9850   5.9850   5.9850   7.0721   7.0721   7.0721   7.0721
     9.5860   9.5860   9.5860   9.5860  10.2558  10.2558  10.2558  10.2558
    12.0117  12.0117

     occupation numbers 
     1.0000   1.0000   1.0000   1.0000   1.0000   1.0000   1.0000   1.0000
     1.0000   1.0000   1.0000   1.0000   1.0000   1.0000   1.0000   1.0000
     1.0000   1.0000   1.0000   1.0000   1.0000   1.0000   1.0000   1.0000
     1.0000   1.0000   1.0000   1.0000   1.0000   1.0000   1.0000   1.0000
     1.0000   1.0000   1.0000   1.0000   1.0000   1.0000   1.0000   1.0000
     0.0000   0.0000   0.0000   0.0000   0.0000   0.0000   0.0000   0.0000
     0.0000   0.0000

          k =-0.5000-1.3581 0.4269 (  2160 PWs)   bands (ev):

   -13.4273 -13.4273 -13.4273 -13.4273 -13.4029 -13.4029 -13.4029 -13.4029
   -13.3855 -13.3855 -13.3855 -13.3855 -13.3672 -13.3672 -13.3672 -13.3672
   -13.3426 -13.3426 -13.3426 -13.3426  -4.5835  -4.5835  -4.5835  -4.5835
     0.8037   0.8037   0.8037   0.8037   4.6759   4.6759   4.6759   4.6759
     5.6518   5.6518   5.6518   5.6518   6.8446   6.8446   6.8446   6.8446
     9.9187   9.9187   9.9187   9.9187  11.3381  11.3381  11.3381  11.3381
    12.2430  12.2430

     occupation numbers 
     1.0000   1.0000   1.0000   1.0000   1.0000   1.0000   1.0000   1.0000
     1.0000   1.0000   1.0000   1.0000   1.0000   1.0000   1.0000   1.0000
     1.0000   1.0000   1.0000   1.0000   1.0000   1.0000   1.0000   1.0000
     1.0000   1.0000   1.0000   1.0000   1.0000   1.0000   1.0000   1.0000
     1.0000   1.0000   1.0000   1.0000   1.0000   1.0000   1.0000   1.0000
     0.0000   0.0000   0.0000   0.0000   0.0000   0.0000   0.0000   0.0000
     0.0000   0.0000

          k =-0.5000-1.3581 0.8538 (  2152 PWs)   bands (ev):

   -13.4241 -13.4241 -13.4241 -13.4241 -13.4055 -13.4055 -13.4055 -13.4055
   -13.3831 -13.3831 -13.3831 -13.3831 -13.3619 -13.3619 -13.3619 -13.3619
   -13.3322 -13.3322 -13.3322 -13.3322  -4.4645  -4.4645  -4.4645  -4.4645
     1.1355   1.1355   1.1355   1.1355   3.7734   3.7734   3.7734   3.7734
     4.8670   4.8670   4.8670   4.8670   6.5714   6.5714   6.5714   6.5714
    10.7572  10.7572  10.7572  10.7572  12.0056  12.0056  12.0056  12.0056
    13.7712  13.7712

     occupation numbers 
     1.0000   1.0000   1.0000   1.0000   1.0000   1.0000   1.0000   1.0000
     1.0000   1.0000   1.0000   1.0000   1.0000   1.0000   1.0000   1.0000
     1.0000   1.0000   1.0000   1.0000   1.0000   1.0000   1.0000   1.0000
     1.0000   1.0000   1.0000   1.0000   1.0000   1.0000   1.0000   1.0000
     1.0000   1.0000   1.0000   1.0000   1.0000   1.0000   1.0000   1.0000
     0.0000   0.0000   0.0000   0.0000   0.0000   0.0000   0.0000   0.0000
     0.0000   0.0000

          k =-0.5000-1.3581-1.2807 (  2144 PWs)   bands (ev):

   -13.4270 -13.4270 -13.4270 -13.4270 -13.4018 -13.4018 -13.4018 -13.4018
   -13.3812 -13.3812 -13.3812 -13.3812 -13.3587 -13.3587 -13.3587 -13.3587
   -13.3274 -13.3274 -13.3274 -13.3274  -4.4022  -4.4022  -4.4022  -4.4022
     1.3456   1.3456   1.3456   1.3456   3.4642   3.4642   3.4642   3.4642
     4.3261   4.3261   4.3261   4.3261   6.6031   6.6031   6.6031   6.6031
    10.6319  10.6319  10.6319  10.6319  12.8526  12.8526  12.8526  12.8526
    14.6180  14.6180

     occupation numbers 
     1.0000   1.0000   1.0000   1.0000   1.0000   1.0000   1.0000   1.0000
     1.0000   1.0000   1.0000   1.0000   1.0000   1.0000   1.0000   1.0000
     1.0000   1.0000   1.0000   1.0000   1.0000   1.0000   1.0000   1.0000
     1.0000   1.0000   1.0000   1.0000   1.0000   1.0000   1.0000   1.0000
     1.0000   1.0000   1.0000   1.0000   1.0000   1.0000   1.0000   1.0000
     0.0000   0.0000   0.0000   0.0000   0.0000   0.0000   0.0000   0.0000
     0.0000   0.0000

     highest occupied, lowest unoccupied level (ev):     8.1024    8.6800

!    total energy              =    -827.36904222 Ry
     estimated scf accuracy    <          2.8E-09 Ry

     The total energy is the sum of the following terms:
     one-electron contribution =    -256.28959267 Ry
     hartree contribution      =     178.41052030 Ry
     xc contribution           =    -308.88515364 Ry
     ewald contribution        =    -440.60481620 Ry

     convergence has been achieved in   9 iterations

     Forces acting on atoms (cartesian axes, Ry/au):

     atom    1 type  2   force =     0.00846098    0.00000000   -0.00125369
     atom    2 type  1   force =    -0.00763204    0.00000000   -0.00171121
     atom    3 type  2   force =    -0.00846098    0.00000000   -0.00125369
     atom    4 type  1   force =     0.00763204    0.00000000   -0.00171121
     atom    5 type  2   force =     0.00846098    0.00000000    0.00125369
     atom    6 type  1   force =    -0.00763204   -0.00000000    0.00171121
     atom    7 type  2   force =    -0.00846098    0.00000000    0.00125369
     atom    8 type  1   force =     0.00763204   -0.00000000    0.00171121
     The non-local contrib.  to forces
     atom    1 type  2   force =    -0.11925763    0.00000000    0.09432262
     atom    2 type  1   force =     0.37470973    0.00000000    0.26697895
     atom    3 type  2   force =     0.11925763    0.00000000    0.09432262
     atom    4 type  1   force =    -0.37470973    0.00000000    0.26697895
     atom    5 type  2   force =    -0.11925763    0.00000000   -0.09432262
     atom    6 type  1   force =     0.37470973    0.00000000   -0.26697895
     atom    7 type  2   force =     0.11925763    0.00000000   -0.09432262
     atom    8 type  1   force =    -0.37470973    0.00000000   -0.26697895
     The ionic contribution  to forces
     atom    1 type  2   force =     1.53473235    0.00000000   -1.05154455
     atom    2 type  1   force =    -1.03769718    0.00000000   -0.57506129
     atom    3 type  2   force =    -1.53473235    0.00000000   -1.05154455
     atom    4 type  1   force =     1.03769718   -0.00000000   -0.57506129
     atom    5 type  2   force =     1.53473235    0.00000000    1.05154455
     atom    6 type  1   force =    -1.03769718   -0.00000000    0.57506129
     atom    7 type  2   force =    -1.53473235   -0.00000000    1.05154455
     atom    8 type  1   force =     1.03769718    0.00000000    0.57506129
     The local contribution  to forces
     atom    1 type  2   force =    -1.42046556   -0.00000000    0.96638882
     atom    2 type  1   force =     0.66174974    0.00000000    0.31113669
     atom    3 type  2   force =     1.42046556   -0.00000000    0.96638882
     atom    4 type  1   force =    -0.66174974    0.00000000    0.31113669
     atom    5 type  2   force =    -1.42046556    0.00000000   -0.96638882
     atom    6 type  1   force =     0.66174974    0.00000000   -0.31113669
     atom    7 type  2   force =     1.42046556    0.00000000   -0.96638882
     atom    8 type  1   force =    -0.66174974    0.00000000   -0.31113669
     The core correction contribution to forces
     atom    1 type  2   force =     0.01343052   -0.00000000   -0.01042232
     atom    2 type  1   force =    -0.00630748   -0.00000000   -0.00475534
     atom    3 type  2   force =    -0.01343052   -0.00000000   -0.01042232
     atom    4 type  1   force =     0.00630748    0.00000000   -0.00475534
     atom    5 type  2   force =     0.01343052   -0.00000000    0.01042232
     atom    6 type  1   force =    -0.00630748   -0.00000000    0.00475534
     atom    7 type  2   force =    -0.01343052   -0.00000000    0.01042232
     atom    8 type  1   force =     0.00630748    0.00000000    0.00475534
     The Hubbard contrib.    to forces
     atom    1 type  2   force =     0.00000000    0.00000000    0.00000000
     atom    2 type  1   force =     0.00000000    0.00000000    0.00000000
     atom    3 type  2   force =     0.00000000    0.00000000    0.00000000
     atom    4 type  1   force =     0.00000000    0.00000000    0.00000000
     atom    5 type  2   force =     0.00000000    0.00000000    0.00000000
     atom    6 type  1   force =     0.00000000    0.00000000    0.00000000
     atom    7 type  2   force =     0.00000000    0.00000000    0.00000000
     atom    8 type  1   force =     0.00000000    0.00000000    0.00000000
     The SCF correction term to forces
     atom    1 type  2   force =     0.00002129   -0.00000000    0.00000174
     atom    2 type  1   force =    -0.00008685   -0.00000000   -0.00001021
     atom    3 type  2   force =    -0.00002129   -0.00000000    0.00000174
     atom    4 type  1   force =     0.00008685    0.00000000   -0.00001021
     atom    5 type  2   force =     0.00002129   -0.00000000   -0.00000174
     atom    6 type  1   force =    -0.00008685   -0.00000000    0.00001021
     atom    7 type  2   force =    -0.00002129    0.00000000   -0.00000174
     atom    8 type  1   force =     0.00008685   -0.00000000    0.00001021

     Total force =     0.023181     Total SCF correction =     0.000180

     Writing output data file ./tmp/SnSe_pnma.save/

     init_run     :      2.57s CPU      2.47s WALL (       1 calls)
     electrons    :     69.85s CPU     61.95s WALL (       1 calls)
     forces       :      1.74s CPU      1.69s WALL (       1 calls)

     Called by init_run:
     wfcinit      :      1.21s CPU      1.11s WALL (       1 calls)
     wfcinit:atom :      0.01s CPU      0.01s WALL (       8 calls)
     wfcinit:wfcr :      1.10s CPU      1.03s WALL (       8 calls)
     potinit      :      0.24s CPU      0.25s WALL (       1 calls)
     hinit0       :      0.59s CPU      0.59s WALL (       1 calls)

     Called by electrons:
     c_bands      :     56.63s CPU     49.04s WALL (       9 calls)
     sum_band     :      7.79s CPU      6.90s WALL (       9 calls)
     v_of_rho     :      0.99s CPU      1.01s WALL (      10 calls)
     v_h          :      0.05s CPU      0.05s WALL (      10 calls)
     v_xc         :      1.02s CPU      1.05s WALL (      11 calls)
     newd         :      4.72s CPU      5.32s WALL (      10 calls)
     mix_rho      :      0.15s CPU      0.12s WALL (       9 calls)

     Called by c_bands:
     init_us_2    :      0.45s CPU      0.34s WALL (     160 calls)
     cegterg      :     35.87s CPU     31.13s WALL (      72 calls)

     Called by sum_band:
     sum_band:wei :      0.00s CPU      0.00s WALL (       9 calls)
     sum_band:loo :      4.56s CPU      4.09s WALL (       9 calls)
     sum_band:buf :      0.04s CPU      0.03s WALL (      72 calls)
     sum_band:ini :      0.20s CPU      0.15s WALL (      72 calls)
     sum_band:cal :      1.09s CPU      1.34s WALL (      72 calls)
     sum_band:bec :      0.01s CPU      0.01s WALL (      72 calls)
     addusdens    :      1.64s CPU      1.54s WALL (       9 calls)
     addusd:skk   :      0.01s CPU      0.02s WALL (      18 calls)
     addusd:dgemm :      0.69s CPU      0.57s WALL (      18 calls)
     addusd:qvan2 :      0.67s CPU      0.55s WALL (      18 calls)

     Called by *egterg:
     cdiaghg      :      4.81s CPU      6.69s WALL (     287 calls)
     cegterg:over :      3.14s CPU      3.46s WALL (     215 calls)
     cegterg:upda :      1.28s CPU      0.84s WALL (     215 calls)
     cegterg:last :      2.11s CPU      0.94s WALL (     145 calls)
     h_psi        :     21.45s CPU     17.33s WALL (     295 calls)
     s_psi        :      2.45s CPU      0.90s WALL (     295 calls)
     g_psi        :      0.17s CPU      0.11s WALL (     215 calls)

     Called by h_psi:
     h_psi:calbec :      3.02s CPU      3.76s WALL (     295 calls)
     vloc_psi     :     15.92s CPU     12.43s WALL (     295 calls)
     add_vuspsi   :      2.35s CPU      0.89s WALL (     295 calls)

     General routines
     calbec       :      4.52s CPU      5.49s WALL (     399 calls)
     fft          :      0.48s CPU      0.42s WALL (     139 calls)
     ffts         :      0.05s CPU      0.04s WALL (      19 calls)
     fftw         :     16.79s CPU     13.24s WALL (   22288 calls)
     interpolate  :      0.05s CPU      0.05s WALL (      10 calls)

     Parallel routines

     PWSCF        :   1m14.77s CPU   1m 6.72s WALL


   This run was terminated on:  19:21: 6   5May2026            

=------------------------------------------------------------------------------=
   JOB DONE.
=------------------------------------------------------------------------------=
