
     Program PWSCF v.6.7MaX starts on  5May2026 at 18:50:31 

     This program is part of the open-source Quantum ESPRESSO suite
     for quantum simulation of materials; please cite
         "P. Giannozzi et al., J. Phys.:Condens. Matter 21 395502 (2009);
         "P. Giannozzi et al., J. Phys.:Condens. Matter 29 465901 (2017);
          URL http://www.quantum-espresso.org", 
     in publications or presentations arising from this work. More details at
     http://www.quantum-espresso.org/quote

     Parallel version (MPI), running on     4 processors

     MPI processes distributed on     1 nodes
     K-points division:     npool     =       4
     Waiting for input...
     Reading input from standard input

     Current dimensions of program PWSCF are:
     Max number of different atomic species (ntypx) = 10
     Max number of k-points (npk) =  40000
     Max angular momentum in pseudopotentials (lmaxx) =  3

     Subspace diagonalization in iterative solution of the eigenvalue problem:
     a serial algorithm will be used


     G-vector sticks info
     --------------------
     sticks:   dense  smooth     PW     G-vecs:    dense   smooth      PW
     Sum        5407    2153    643               192515    48645    7917



     bravais-lattice index     =            8
     lattice parameter (alat)  =      21.4862  a.u.
     unit-cell volume          =    1425.7436 (a.u.)^3
     number of atoms/cell      =            8
     number of atomic types    =            2
     number of electrons       =        80.00
     number of Kohn-Sham states=           50
     kinetic-energy cutoff     =      40.0000  Ry
     charge density cutoff     =     400.0000  Ry
     scf convergence threshold =      1.0E-08
     mixing beta               =       0.7000
     number of iterations used =            8  plain     mixing
     Exchange-correlation= SLA  PW   PBE  PBE
                           (   1   4   3   4   0   0   0)

     celldm(1)=  21.486186  celldm(2)=   0.368162  celldm(3)=   0.390413
     celldm(4)=   0.000000  celldm(5)=   0.000000  celldm(6)=   0.000000

     crystal axes: (cart. coord. in units of alat)
               a(1) = (   1.000000   0.000000   0.000000 )  
               a(2) = (   0.000000   0.368162   0.000000 )  
               a(3) = (   0.000000   0.000000   0.390413 )  

     reciprocal axes: (cart. coord. in units 2 pi/alat)
               b(1) = (  1.000000  0.000000  0.000000 )  
               b(2) = (  0.000000  2.716197  0.000000 )  
               b(3) = (  0.000000  0.000000  2.561388 )  


     PseudoPot. # 1 for Sn read from file:
     ../pseudo/Sn_pbe_v1.uspp.F.UPF
     MD5 check sum: 4cf58ce39ec5d5d420df3dd08604eb00
     Pseudo is Ultrasoft + core correction, Zval = 14.0
     Generated by new atomic code, or converted to UPF format
     Using radial grid of  891 points,  6 beta functions with: 
                l(1) =   0
                l(2) =   0
                l(3) =   1
                l(4) =   1
                l(5) =   2
                l(6) =   2
     Q(r) pseudized with  6 coefficients,  rinner =    1.200   1.200   1.200
                                                       1.200   1.200

     PseudoPot. # 2 for Se read from file:
     ../pseudo/Se_pbe_v1.uspp.F.UPF
     MD5 check sum: 1b3568f3a8ae88f9a2a0ad0698632c85
     Pseudo is Ultrasoft + core correction, Zval =  6.0
     Generated by new atomic code, or converted to UPF format
     Using radial grid of  877 points,  6 beta functions with: 
                l(1) =   0
                l(2) =   0
                l(3) =   1
                l(4) =   1
                l(5) =   2
                l(6) =   2
     Q(r) pseudized with  8 coefficients,  rinner =    1.300   1.300   1.300
                                                       1.300   1.300

     atomic species   valence    mass     pseudopotential
        Sn            14.00   118.71000     Sn( 1.00)
        Se             6.00    78.97100     Se( 1.00)

      8 Sym. Ops., with inversion, found ( 6 have fractional translation)


                                    s                        frac. trans.

      isym =  1     identity                                     

 cryst.   s( 1) = (     1          0          0      )
                  (     0          1          0      )
                  (     0          0          1      )

 cart.    s( 1) = (  1.0000000  0.0000000  0.0000000 )
                  (  0.0000000  1.0000000  0.0000000 )
                  (  0.0000000  0.0000000  1.0000000 )


      isym =  2     180 deg rotation - cart. axis [0,0,1]        

 cryst.   s( 2) = (    -1          0          0      )    f =(  0.5000000 )
                  (     0         -1          0      )       (  0.0000000 )
                  (     0          0          1      )       (  0.5000000 )

 cart.    s( 2) = ( -1.0000000  0.0000000  0.0000000 )    f =(  0.5000000 )
                  (  0.0000000 -1.0000000  0.0000000 )       (  0.0000000 )
                  (  0.0000000  0.0000000  1.0000000 )       (  0.1952067 )


      isym =  3     180 deg rotation - cart. axis [0,1,0]        

 cryst.   s( 3) = (    -1          0          0      )    f =(  0.0000000 )
                  (     0          1          0      )       ( -0.5000000 )
                  (     0          0         -1      )       (  0.0000000 )

 cart.    s( 3) = ( -1.0000000  0.0000000  0.0000000 )    f =(  0.0000000 )
                  (  0.0000000  1.0000000  0.0000000 )       ( -0.1840809 )
                  (  0.0000000  0.0000000 -1.0000000 )       (  0.0000000 )


      isym =  4     180 deg rotation - cart. axis [1,0,0]        

 cryst.   s( 4) = (     1          0          0      )    f =(  0.5000000 )
                  (     0         -1          0      )       (  0.5000000 )
                  (     0          0         -1      )       (  0.5000000 )

 cart.    s( 4) = (  1.0000000  0.0000000  0.0000000 )    f =(  0.5000000 )
                  (  0.0000000 -1.0000000  0.0000000 )       (  0.1840809 )
                  (  0.0000000  0.0000000 -1.0000000 )       (  0.1952067 )


      isym =  5     inversion                                    

 cryst.   s( 5) = (    -1          0          0      )
                  (     0         -1          0      )
                  (     0          0         -1      )

 cart.    s( 5) = ( -1.0000000  0.0000000  0.0000000 )
                  (  0.0000000 -1.0000000  0.0000000 )
                  (  0.0000000  0.0000000 -1.0000000 )


      isym =  6     inv. 180 deg rotation - cart. axis [0,0,1]   

 cryst.   s( 6) = (     1          0          0      )    f =(  0.5000000 )
                  (     0          1          0      )       (  0.0000000 )
                  (     0          0         -1      )       (  0.5000000 )

 cart.    s( 6) = (  1.0000000  0.0000000  0.0000000 )    f =(  0.5000000 )
                  (  0.0000000  1.0000000  0.0000000 )       (  0.0000000 )
                  (  0.0000000  0.0000000 -1.0000000 )       (  0.1952067 )


      isym =  7     inv. 180 deg rotation - cart. axis [0,1,0]   

 cryst.   s( 7) = (     1          0          0      )    f =(  0.0000000 )
                  (     0         -1          0      )       (  0.5000000 )
                  (     0          0          1      )       (  0.0000000 )

 cart.    s( 7) = (  1.0000000  0.0000000  0.0000000 )    f =(  0.0000000 )
                  (  0.0000000 -1.0000000  0.0000000 )       (  0.1840809 )
                  (  0.0000000  0.0000000  1.0000000 )       (  0.0000000 )


      isym =  8     inv. 180 deg rotation - cart. axis [1,0,0]   

 cryst.   s( 8) = (    -1          0          0      )    f =(  0.5000000 )
                  (     0          1          0      )       ( -0.5000000 )
                  (     0          0          1      )       (  0.5000000 )

 cart.    s( 8) = ( -1.0000000  0.0000000  0.0000000 )    f =(  0.5000000 )
                  (  0.0000000  1.0000000  0.0000000 )       ( -0.1840809 )
                  (  0.0000000  0.0000000  1.0000000 )       (  0.1952067 )


     point group D_2h (mmm) 
     there are  8 classes
     the character table:

       E     C2    C2'   C2''  i     s_v   s_v'  s_v''
A_g    1.00  1.00  1.00  1.00  1.00  1.00  1.00  1.00
B_1g   1.00  1.00 -1.00 -1.00  1.00  1.00 -1.00 -1.00
B_2g   1.00 -1.00  1.00 -1.00  1.00 -1.00  1.00 -1.00
B_3g   1.00 -1.00 -1.00  1.00  1.00 -1.00 -1.00  1.00
A_u    1.00  1.00  1.00  1.00 -1.00 -1.00 -1.00 -1.00
B_1u   1.00  1.00 -1.00 -1.00 -1.00 -1.00  1.00  1.00
B_2u   1.00 -1.00  1.00 -1.00 -1.00  1.00 -1.00  1.00
B_3u   1.00 -1.00 -1.00  1.00 -1.00  1.00  1.00 -1.00

     the symmetry operations in each class and the name of the first element:

     E        1
          identity                                               
     C2       2
          180 deg rotation - cart. axis [0,0,1]                  
     C2'      4
          180 deg rotation - cart. axis [1,0,0]                  
     C2''     3
          180 deg rotation - cart. axis [0,1,0]                  
     i        5
          inversion                                              
     s_v      6
          inv. 180 deg rotation - cart. axis [0,0,1]             
     s_v'     8
          inv. 180 deg rotation - cart. axis [1,0,0]             
     s_v''    7
          inv. 180 deg rotation - cart. axis [0,1,0]             

   Cartesian axes

     site n.     atom                  positions (alat units)
         1           Se  tau(   1) = (   0.8555000   0.0920405   0.1884916  )
         2           Sn  tau(   2) = (   0.1187000   0.0920405   0.0385728  )
         3           Se  tau(   3) = (   0.6445000   0.2761214   0.3836983  )
         4           Sn  tau(   4) = (   0.3813000   0.2761214   0.2337795  )
         5           Se  tau(   5) = (   0.3555000   0.0920405   0.0067151  )
         6           Sn  tau(   6) = (   0.6187000   0.0920405   0.1566338  )
         7           Se  tau(   7) = (   0.1445000   0.2761214   0.2019218  )
         8           Sn  tau(   8) = (   0.8813000   0.2761214   0.3518405  )

   Crystallographic axes

     site n.     atom                  positions (cryst. coord.)
         1           Se  tau(   1) = (  0.8555000  0.2500000  0.4828000  )
         2           Sn  tau(   2) = (  0.1187000  0.2500000  0.0988000  )
         3           Se  tau(   3) = (  0.6445000  0.7500000  0.9828000  )
         4           Sn  tau(   4) = (  0.3813000  0.7500000  0.5988000  )
         5           Se  tau(   5) = (  0.3555000  0.2500000  0.0172000  )
         6           Sn  tau(   6) = (  0.6187000  0.2500000  0.4012000  )
         7           Se  tau(   7) = (  0.1445000  0.7500000  0.5172000  )
         8           Sn  tau(   8) = (  0.8813000  0.7500000  0.9012000  )

     number of k points=    32
                       cart. coord. in units 2pi/alat
        k(    1) = (   0.0000000   0.0000000   0.0000000), wk =   0.0277778
        k(    2) = (   0.0000000   0.0000000   0.4268979), wk =   0.0555556
        k(    3) = (   0.0000000   0.0000000   0.8537959), wk =   0.0555556
        k(    4) = (   0.0000000   0.0000000  -1.2806938), wk =   0.0277778
        k(    5) = (   0.0000000   0.4526995   0.0000000), wk =   0.0555556
        k(    6) = (   0.0000000   0.4526995   0.4268979), wk =   0.1111111
        k(    7) = (   0.0000000   0.4526995   0.8537959), wk =   0.1111111
        k(    8) = (   0.0000000   0.4526995  -1.2806938), wk =   0.0555556
        k(    9) = (   0.0000000   0.9053989   0.0000000), wk =   0.0555556
        k(   10) = (   0.0000000   0.9053989   0.4268979), wk =   0.1111111
        k(   11) = (   0.0000000   0.9053989   0.8537959), wk =   0.1111111
        k(   12) = (   0.0000000   0.9053989  -1.2806938), wk =   0.0555556
        k(   13) = (   0.0000000  -1.3580984   0.0000000), wk =   0.0277778
        k(   14) = (   0.0000000  -1.3580984   0.4268979), wk =   0.0555556
        k(   15) = (   0.0000000  -1.3580984   0.8537959), wk =   0.0555556
        k(   16) = (   0.0000000  -1.3580984  -1.2806938), wk =   0.0277778
        k(   17) = (  -0.5000000   0.0000000   0.0000000), wk =   0.0277778
        k(   18) = (  -0.5000000   0.0000000   0.4268979), wk =   0.0555556
        k(   19) = (  -0.5000000   0.0000000   0.8537959), wk =   0.0555556
        k(   20) = (  -0.5000000   0.0000000  -1.2806938), wk =   0.0277778
        k(   21) = (  -0.5000000   0.4526995   0.0000000), wk =   0.0555556
        k(   22) = (  -0.5000000   0.4526995   0.4268979), wk =   0.1111111
        k(   23) = (  -0.5000000   0.4526995   0.8537959), wk =   0.1111111
        k(   24) = (  -0.5000000   0.4526995  -1.2806938), wk =   0.0555556
        k(   25) = (  -0.5000000   0.9053989   0.0000000), wk =   0.0555556
        k(   26) = (  -0.5000000   0.9053989   0.4268979), wk =   0.1111111
        k(   27) = (  -0.5000000   0.9053989   0.8537959), wk =   0.1111111
        k(   28) = (  -0.5000000   0.9053989  -1.2806938), wk =   0.0555556
        k(   29) = (  -0.5000000  -1.3580984   0.0000000), wk =   0.0277778
        k(   30) = (  -0.5000000  -1.3580984   0.4268979), wk =   0.0555556
        k(   31) = (  -0.5000000  -1.3580984   0.8537959), wk =   0.0555556
        k(   32) = (  -0.5000000  -1.3580984  -1.2806938), wk =   0.0277778

                       cryst. coord.
        k(    1) = (   0.0000000   0.0000000   0.0000000), wk =   0.0277778
        k(    2) = (   0.0000000   0.0000000   0.1666667), wk =   0.0555556
        k(    3) = (   0.0000000   0.0000000   0.3333333), wk =   0.0555556
        k(    4) = (   0.0000000   0.0000000  -0.5000000), wk =   0.0277778
        k(    5) = (   0.0000000   0.1666667   0.0000000), wk =   0.0555556
        k(    6) = (   0.0000000   0.1666667   0.1666667), wk =   0.1111111
        k(    7) = (   0.0000000   0.1666667   0.3333333), wk =   0.1111111
        k(    8) = (   0.0000000   0.1666667  -0.5000000), wk =   0.0555556
        k(    9) = (   0.0000000   0.3333333   0.0000000), wk =   0.0555556
        k(   10) = (   0.0000000   0.3333333   0.1666667), wk =   0.1111111
        k(   11) = (   0.0000000   0.3333333   0.3333333), wk =   0.1111111
        k(   12) = (   0.0000000   0.3333333  -0.5000000), wk =   0.0555556
        k(   13) = (   0.0000000  -0.5000000   0.0000000), wk =   0.0277778
        k(   14) = (   0.0000000  -0.5000000   0.1666667), wk =   0.0555556
        k(   15) = (   0.0000000  -0.5000000   0.3333333), wk =   0.0555556
        k(   16) = (   0.0000000  -0.5000000  -0.5000000), wk =   0.0277778
        k(   17) = (  -0.5000000   0.0000000   0.0000000), wk =   0.0277778
        k(   18) = (  -0.5000000   0.0000000   0.1666667), wk =   0.0555556
        k(   19) = (  -0.5000000   0.0000000   0.3333333), wk =   0.0555556
        k(   20) = (  -0.5000000   0.0000000  -0.5000000), wk =   0.0277778
        k(   21) = (  -0.5000000   0.1666667   0.0000000), wk =   0.0555556
        k(   22) = (  -0.5000000   0.1666667   0.1666667), wk =   0.1111111
        k(   23) = (  -0.5000000   0.1666667   0.3333333), wk =   0.1111111
        k(   24) = (  -0.5000000   0.1666667  -0.5000000), wk =   0.0555556
        k(   25) = (  -0.5000000   0.3333333   0.0000000), wk =   0.0555556
        k(   26) = (  -0.5000000   0.3333333   0.1666667), wk =   0.1111111
        k(   27) = (  -0.5000000   0.3333333   0.3333333), wk =   0.1111111
        k(   28) = (  -0.5000000   0.3333333  -0.5000000), wk =   0.0555556
        k(   29) = (  -0.5000000  -0.5000000   0.0000000), wk =   0.0277778
        k(   30) = (  -0.5000000  -0.5000000   0.1666667), wk =   0.0555556
        k(   31) = (  -0.5000000  -0.5000000   0.3333333), wk =   0.0555556
        k(   32) = (  -0.5000000  -0.5000000  -0.5000000), wk =   0.0277778

     Dense  grid:   192515 G-vectors     FFT dimensions: ( 144,  54,  54)

     Smooth grid:    48645 G-vectors     FFT dimensions: (  90,  32,  36)

     Dynamical RAM for                 wfc:       4.65 MB

     Dynamical RAM for     wfc (w. buffer):      41.82 MB

     Dynamical RAM for           str. fact:       5.88 MB

     Dynamical RAM for           local pot:       0.00 MB

     Dynamical RAM for          nlocal pot:      13.38 MB

     Dynamical RAM for                qrad:       3.21 MB

     Dynamical RAM for          rho,v,vnew:      18.42 MB

     Dynamical RAM for               rhoin:       6.14 MB

     Dynamical RAM for            rho*nmix:      47.00 MB

     Dynamical RAM for           G-vectors:      11.39 MB

     Dynamical RAM for          h,s,v(r/c):       0.46 MB

     Dynamical RAM for          <psi|beta>:       0.11 MB

     Dynamical RAM for                 psi:       9.29 MB

     Dynamical RAM for                hpsi:       9.29 MB

     Dynamical RAM for                spsi:       9.29 MB

     Dynamical RAM for      wfcinit/wfcrot:       9.73 MB

     Dynamical RAM for           addusdens:     141.73 MB

     Dynamical RAM for          addusforce:     145.42 MB

     Estimated static dynamical RAM per process >     172.08 MB

     Estimated max dynamical RAM per process >     317.50 MB

     Estimated total dynamical RAM >       1.24 GB

     Initial potential from superposition of free atoms

     starting charge   75.99954, renormalised to   80.00000
     Starting wfcs are   52 randomized atomic wfcs

     total cpu time spent up to now is        7.4 secs

     Self-consistent Calculation

     iteration #  1     ecut=    40.00 Ry     beta= 0.70
     Davidson diagonalization with overlap
     ethr =  1.00E-02,  avg # of iterations =  3.7

     total cpu time spent up to now is       23.2 secs

     total energy              =    -826.54548499 Ry
     estimated scf accuracy    <       2.63302074 Ry

     iteration #  2     ecut=    40.00 Ry     beta= 0.70
     Davidson diagonalization with overlap
     ethr =  3.29E-03,  avg # of iterations =  2.0

     total cpu time spent up to now is       37.5 secs

     total energy              =    -827.33141571 Ry
     estimated scf accuracy    <       1.09278043 Ry

     iteration #  3     ecut=    40.00 Ry     beta= 0.70
     Davidson diagonalization with overlap
     ethr =  1.37E-03,  avg # of iterations =  2.0

     total cpu time spent up to now is       51.1 secs

     total energy              =    -827.60352570 Ry
     estimated scf accuracy    <       0.06107062 Ry

     iteration #  4     ecut=    40.00 Ry     beta= 0.70
     Davidson diagonalization with overlap
     ethr =  7.63E-05,  avg # of iterations =  3.4

     total cpu time spent up to now is       64.2 secs

     total energy              =    -827.61458867 Ry
     estimated scf accuracy    <       0.00298674 Ry

     iteration #  5     ecut=    40.00 Ry     beta= 0.70
     Davidson diagonalization with overlap
     ethr =  3.73E-06,  avg # of iterations =  5.0

     total cpu time spent up to now is       78.5 secs

     total energy              =    -827.61525111 Ry
     estimated scf accuracy    <       0.00080850 Ry

     iteration #  6     ecut=    40.00 Ry     beta= 0.70
     Davidson diagonalization with overlap
     ethr =  1.01E-06,  avg # of iterations =  2.2

     total cpu time spent up to now is       90.8 secs

     total energy              =    -827.61542593 Ry
     estimated scf accuracy    <       0.00004532 Ry

     iteration #  7     ecut=    40.00 Ry     beta= 0.70
     Davidson diagonalization with overlap
     ethr =  5.66E-08,  avg # of iterations =  5.0

     total cpu time spent up to now is      109.0 secs

     total energy              =    -827.61545494 Ry
     estimated scf accuracy    <       0.00000267 Ry

     iteration #  8     ecut=    40.00 Ry     beta= 0.70
     Davidson diagonalization with overlap
     ethr =  3.33E-09,  avg # of iterations =  3.7

     total cpu time spent up to now is      125.0 secs

     total energy              =    -827.61545602 Ry
     estimated scf accuracy    <       0.00000044 Ry

     iteration #  9     ecut=    40.00 Ry     beta= 0.70
     Davidson diagonalization with overlap
     ethr =  5.44E-10,  avg # of iterations =  3.2

     total cpu time spent up to now is      141.7 secs

     End of self-consistent calculation

          k = 0.0000 0.0000 0.0000 (  6069 PWs)   bands (ev):

   -13.2655 -13.2536 -13.2504 -13.2479 -13.2478 -13.2438 -13.2408 -13.2369
   -13.2326 -13.2317 -13.2311 -13.2240 -13.2166 -13.2102 -13.1956 -13.1905
   -13.1857 -13.1818 -13.1741 -13.1648  -5.7458  -5.3957  -4.6585  -4.1585
     0.8107   1.9486   2.5399   3.0753   3.2305   4.6640   4.7023   4.7770
     5.1827   5.2391   5.8116   6.3117   6.5365   6.9892   7.4011   7.5701
     8.8494  10.9517  11.0999  11.1325  11.3574  11.4510  12.3346  12.6296
    12.7028  12.7427

     occupation numbers 
     1.0000   1.0000   1.0000   1.0000   1.0000   1.0000   1.0000   1.0000
     1.0000   1.0000   1.0000   1.0000   1.0000   1.0000   1.0000   1.0000
     1.0000   1.0000   1.0000   1.0000   1.0000   1.0000   1.0000   1.0000
     1.0000   1.0000   1.0000   1.0000   1.0000   1.0000   1.0000   1.0000
     1.0000   1.0000   1.0000   1.0000   1.0000   1.0000   1.0000   1.0000
     0.0000   0.0000   0.0000   0.0000   0.0000   0.0000   0.0000   0.0000
     0.0000   0.0000

          k = 0.0000 0.0000 0.4269 (  6085 PWs)   bands (ev):

   -13.2639 -13.2522 -13.2507 -13.2492 -13.2469 -13.2458 -13.2414 -13.2377
   -13.2320 -13.2298 -13.2275 -13.2243 -13.2157 -13.2109 -13.1957 -13.1898
   -13.1867 -13.1826 -13.1734 -13.1654  -5.6276  -5.2874  -4.6450  -4.1904
     0.4461   1.7104   1.9311   2.6885   3.2166   4.8189   4.8449   5.3356
     5.3460   5.9065   5.9284   6.5186   6.5927   7.0994   7.4477   7.5873
     8.9715  10.0944  10.7260  10.9025  11.1418  11.4575  11.9013  12.0695
    12.5324  12.7683

     occupation numbers 
     1.0000   1.0000   1.0000   1.0000   1.0000   1.0000   1.0000   1.0000
     1.0000   1.0000   1.0000   1.0000   1.0000   1.0000   1.0000   1.0000
     1.0000   1.0000   1.0000   1.0000   1.0000   1.0000   1.0000   1.0000
     1.0000   1.0000   1.0000   1.0000   1.0000   1.0000   1.0000   1.0000
     1.0000   1.0000   1.0000   1.0000   1.0000   1.0000   1.0000   1.0000
     0.0000   0.0000   0.0000   0.0000   0.0000   0.0000   0.0000   0.0000
     0.0000   0.0000

          k = 0.0000 0.0000 0.8538 (  6057 PWs)   bands (ev):

   -13.2599 -13.2520 -13.2515 -13.2496 -13.2494 -13.2460 -13.2424 -13.2401
   -13.2301 -13.2256 -13.2237 -13.2211 -13.2149 -13.2128 -13.1949 -13.1893
   -13.1881 -13.1843 -13.1716 -13.1670  -5.3119  -4.9960  -4.6886  -4.3308
    -0.0230   0.8104   1.3646   1.9822   3.6443   5.0246   5.3392   5.7843
     6.1140   6.1249   6.3719   6.6089   6.8453   7.4420   7.5932   8.1003
     8.9972   9.5562   9.5822   9.7389  10.4725  10.5770  11.0921  11.2234
    11.9938  12.1197

     occupation numbers 
     1.0000   1.0000   1.0000   1.0000   1.0000   1.0000   1.0000   1.0000
     1.0000   1.0000   1.0000   1.0000   1.0000   1.0000   1.0000   1.0000
     1.0000   1.0000   1.0000   1.0000   1.0000   1.0000   1.0000   1.0000
     1.0000   1.0000   1.0000   1.0000   1.0000   1.0000   1.0000   1.0000
     1.0000   1.0000   1.0000   1.0000   1.0000   1.0000   1.0000   1.0000
     0.0000   0.0000   0.0000   0.0000   0.0000   0.0000   0.0000   0.0000
     0.0000   0.0000

          k = 0.0000 0.0000-1.2807 (  6060 PWs)   bands (ev):

   -13.2553 -13.2553 -13.2520 -13.2520 -13.2469 -13.2469 -13.2422 -13.2422
   -13.2276 -13.2276 -13.2174 -13.2174 -13.2160 -13.2160 -13.1924 -13.1924
   -13.1862 -13.1862 -13.1693 -13.1693  -4.9313  -4.9313  -4.6267  -4.6267
     0.0659   0.0659   1.4334   1.4334   4.3911   4.3911   5.9303   5.9303
     6.3074   6.3074   6.6797   6.6797   7.2611   7.2611   7.7978   7.7978
     9.3225   9.3225   9.6520   9.6520   9.7895   9.7895  10.7612  10.7612
    11.2256  11.2256

     occupation numbers 
     1.0000   1.0000   1.0000   1.0000   1.0000   1.0000   1.0000   1.0000
     1.0000   1.0000   1.0000   1.0000   1.0000   1.0000   1.0000   1.0000
     1.0000   1.0000   1.0000   1.0000   1.0000   1.0000   1.0000   1.0000
     1.0000   1.0000   1.0000   1.0000   1.0000   1.0000   1.0000   1.0000
     1.0000   1.0000   1.0000   1.0000   1.0000   1.0000   1.0000   1.0000
     0.0000   0.0000   0.0000   0.0000   0.0000   0.0000   0.0000   0.0000
     0.0000   0.0000

          k = 0.0000 0.4527 0.0000 (  6116 PWs)   bands (ev):

   -13.2594 -13.2516 -13.2500 -13.2471 -13.2456 -13.2451 -13.2448 -13.2395
   -13.2354 -13.2290 -13.2277 -13.2262 -13.2128 -13.2112 -13.1927 -13.1921
   -13.1852 -13.1837 -13.1741 -13.1670  -5.5976  -5.2702  -4.5967  -4.1700
     0.6095   1.5560   2.3402   2.3700   3.2409   4.6345   4.9626   5.0882
     5.1743   5.3994   6.1255   6.3949   6.5254   7.4132   7.4276   7.4285
     9.0704   9.9282  10.8649  11.1289  11.2214  11.4504  11.8183  11.8713
    12.5550  13.1376

     occupation numbers 
     1.0000   1.0000   1.0000   1.0000   1.0000   1.0000   1.0000   1.0000
     1.0000   1.0000   1.0000   1.0000   1.0000   1.0000   1.0000   1.0000
     1.0000   1.0000   1.0000   1.0000   1.0000   1.0000   1.0000   1.0000
     1.0000   1.0000   1.0000   1.0000   1.0000   1.0000   1.0000   1.0000
     1.0000   1.0000   1.0000   1.0000   1.0000   1.0000   1.0000   1.0000
     0.0000   0.0000   0.0000   0.0000   0.0000   0.0000   0.0000   0.0000
     0.0000   0.0000

          k = 0.0000 0.4527 0.4269 (  6096 PWs)   bands (ev):

   -13.2591 -13.2517 -13.2514 -13.2466 -13.2462 -13.2456 -13.2440 -13.2416
   -13.2346 -13.2279 -13.2263 -13.2237 -13.2135 -13.2105 -13.1931 -13.1911
   -13.1858 -13.1846 -13.1736 -13.1674  -5.4839  -5.1671  -4.5818  -4.1921
     0.4171   1.5344   1.8462   2.2899   3.3523   4.1008   4.3252   5.4220
     5.5923   5.9102   6.0307   6.3508   7.0710   7.2025   7.5516   7.6541
     9.1845   9.6442  10.1419  10.1809  11.1825  11.3141  11.8775  12.0789
    12.5646  12.9661

     occupation numbers 
     1.0000   1.0000   1.0000   1.0000   1.0000   1.0000   1.0000   1.0000
     1.0000   1.0000   1.0000   1.0000   1.0000   1.0000   1.0000   1.0000
     1.0000   1.0000   1.0000   1.0000   1.0000   1.0000   1.0000   1.0000
     1.0000   1.0000   1.0000   1.0000   1.0000   1.0000   1.0000   1.0000
     1.0000   1.0000   1.0000   1.0000   1.0000   1.0000   1.0000   1.0000
     0.0000   0.0000   0.0000   0.0000   0.0000   0.0000   0.0000   0.0000
     0.0000   0.0000

          k = 0.0000 0.4527 0.8538 (  6072 PWs)   bands (ev):

   -13.2588 -13.2553 -13.2508 -13.2482 -13.2463 -13.2457 -13.2448 -13.2427
   -13.2324 -13.2286 -13.2208 -13.2181 -13.2142 -13.2106 -13.1924 -13.1896
   -13.1876 -13.1864 -13.1721 -13.1685  -5.1836  -4.8935  -4.6151  -4.3028
     0.1281   0.9280   1.4478   1.9228   3.7926   4.0948   4.2791   5.3101
     5.4680   5.8008   6.2086   6.6196   7.0335   7.3117   7.3994   7.6189
     9.1863   9.4907   9.9486  10.2731  10.7644  11.1143  11.3045  12.3511
    12.6217  12.9040

     occupation numbers 
     1.0000   1.0000   1.0000   1.0000   1.0000   1.0000   1.0000   1.0000
     1.0000   1.0000   1.0000   1.0000   1.0000   1.0000   1.0000   1.0000
     1.0000   1.0000   1.0000   1.0000   1.0000   1.0000   1.0000   1.0000
     1.0000   1.0000   1.0000   1.0000   1.0000   1.0000   1.0000   1.0000
     1.0000   1.0000   1.0000   1.0000   1.0000   1.0000   1.0000   1.0000
     0.0000   0.0000   0.0000   0.0000   0.0000   0.0000   0.0000   0.0000
     0.0000   0.0000

          k = 0.0000 0.4527-1.2807 (  6076 PWs)   bands (ev):

   -13.2580 -13.2580 -13.2493 -13.2493 -13.2477 -13.2477 -13.2431 -13.2431
   -13.2302 -13.2302 -13.2162 -13.2162 -13.2131 -13.2131 -13.1901 -13.1901
   -13.1879 -13.1879 -13.1702 -13.1702  -4.8309  -4.8309  -4.5575  -4.5575
     0.2526   0.2526   1.5392   1.5392   4.3064   4.3064   4.7842   4.7842
     5.3261   5.3261   6.2948   6.2948   7.1474   7.1474   7.5550   7.5550
     9.2794   9.2794  10.0903  10.0903  11.2587  11.2587  11.7213  11.7213
    12.2940  12.2940

     occupation numbers 
     1.0000   1.0000   1.0000   1.0000   1.0000   1.0000   1.0000   1.0000
     1.0000   1.0000   1.0000   1.0000   1.0000   1.0000   1.0000   1.0000
     1.0000   1.0000   1.0000   1.0000   1.0000   1.0000   1.0000   1.0000
     1.0000   1.0000   1.0000   1.0000   1.0000   1.0000   1.0000   1.0000
     1.0000   1.0000   1.0000   1.0000   1.0000   1.0000   1.0000   1.0000
     0.0000   0.0000   0.0000   0.0000   0.0000   0.0000   0.0000   0.0000
     0.0000   0.0000

          k = 0.0000 0.9054 0.0000 (  6100 PWs)   bands (ev):

   -13.2561 -13.2535 -13.2529 -13.2508 -13.2423 -13.2421 -13.2405 -13.2364
   -13.2342 -13.2318 -13.2269 -13.2176 -13.2155 -13.2074 -13.1968 -13.1950
   -13.1857 -13.1793 -13.1738 -13.1715  -5.1946  -4.9496  -4.5092  -4.3004
     0.2649   1.0177   1.1501   1.6785   3.7025   4.9710   5.3123   5.4423
     5.5132   5.7673   6.3571   6.5066   6.8485   7.1977   7.3280   7.9130
     8.6730   9.5502   9.8460   9.8697  10.1035  10.6276  10.6762  11.5178
    11.8991  12.2764

     occupation numbers 
     1.0000   1.0000   1.0000   1.0000   1.0000   1.0000   1.0000   1.0000
     1.0000   1.0000   1.0000   1.0000   1.0000   1.0000   1.0000   1.0000
     1.0000   1.0000   1.0000   1.0000   1.0000   1.0000   1.0000   1.0000
     1.0000   1.0000   1.0000   1.0000   1.0000   1.0000   1.0000   1.0000
     1.0000   1.0000   1.0000   1.0000   1.0000   1.0000   1.0000   1.0000
     0.0000   0.0000   0.0000   0.0000   0.0000   0.0000   0.0000   0.0000
     0.0000   0.0000

          k = 0.0000 0.9054 0.4269 (  6106 PWs)   bands (ev):

   -13.2596 -13.2566 -13.2542 -13.2523 -13.2431 -13.2398 -13.2396 -13.2361
   -13.2329 -13.2314 -13.2249 -13.2162 -13.2157 -13.2074 -13.1961 -13.1945
   -13.1857 -13.1801 -13.1734 -13.1713  -5.0978  -4.8647  -4.4848  -4.2893
     0.3396   1.1584   1.2314   1.6068   3.8362   3.9315   4.2977   5.1344
     5.5225   5.8402   6.1379   6.4905   6.6523   7.1564   7.2958   7.3765
     9.1184   9.5073   9.6888  10.0186  10.8085  11.3538  11.5178  12.0201
    12.4953  12.8357

     occupation numbers 
     1.0000   1.0000   1.0000   1.0000   1.0000   1.0000   1.0000   1.0000
     1.0000   1.0000   1.0000   1.0000   1.0000   1.0000   1.0000   1.0000
     1.0000   1.0000   1.0000   1.0000   1.0000   1.0000   1.0000   1.0000
     1.0000   1.0000   1.0000   1.0000   1.0000   1.0000   1.0000   1.0000
     1.0000   1.0000   1.0000   1.0000   1.0000   1.0000   1.0000   1.0000
     0.0000   0.0000   0.0000   0.0000   0.0000   0.0000   0.0000   0.0000
     0.0000   0.0000

          k = 0.0000 0.9054 0.8538 (  6092 PWs)   bands (ev):

   -13.2647 -13.2626 -13.2575 -13.2565 -13.2419 -13.2387 -13.2373 -13.2360
   -13.2309 -13.2306 -13.2206 -13.2156 -13.2126 -13.2079 -13.1947 -13.1937
   -13.1852 -13.1818 -13.1725 -13.1712  -4.8540  -4.6521  -4.4743  -4.3031
     0.5072   1.1413   1.4843   1.5839   3.2531   3.6314   4.0732   4.3204
     4.8127   5.2020   5.5153   5.9062   6.2221   6.4864   6.9819   7.2681
     9.0694  10.7096  11.0509  11.2266  11.7015  11.7020  12.5123  12.6812
    13.0209  13.1339

     occupation numbers 
     1.0000   1.0000   1.0000   1.0000   1.0000   1.0000   1.0000   1.0000
     1.0000   1.0000   1.0000   1.0000   1.0000   1.0000   1.0000   1.0000
     1.0000   1.0000   1.0000   1.0000   1.0000   1.0000   1.0000   1.0000
     1.0000   1.0000   1.0000   1.0000   1.0000   1.0000   1.0000   1.0000
     1.0000   1.0000   1.0000   1.0000   1.0000   1.0000   1.0000   1.0000
     0.0000   0.0000   0.0000   0.0000   0.0000   0.0000   0.0000   0.0000
     0.0000   0.0000

          k = 0.0000 0.9054-1.2807 (  6096 PWs)   bands (ev):

   -13.2662 -13.2662 -13.2589 -13.2589 -13.2400 -13.2400 -13.2361 -13.2361
   -13.2300 -13.2300 -13.2170 -13.2170 -13.2094 -13.2094 -13.1936 -13.1936
   -13.1836 -13.1836 -13.1716 -13.1716  -4.5974  -4.5974  -4.4261  -4.4261
     0.7587   0.7587   1.6654   1.6654   3.4404   3.4404   3.8582   3.8582
     4.7522   4.7522   5.4199   5.4199   6.0376   6.0376   6.9416   6.9416
    10.0429  10.0429  11.6698  11.6698  12.7850  12.7850  12.8415  12.8415
    12.9946  12.9946

     occupation numbers 
     1.0000   1.0000   1.0000   1.0000   1.0000   1.0000   1.0000   1.0000
     1.0000   1.0000   1.0000   1.0000   1.0000   1.0000   1.0000   1.0000
     1.0000   1.0000   1.0000   1.0000   1.0000   1.0000   1.0000   1.0000
     1.0000   1.0000   1.0000   1.0000   1.0000   1.0000   1.0000   1.0000
     1.0000   1.0000   1.0000   1.0000   1.0000   1.0000   1.0000   1.0000
     0.0000   0.0000   0.0000   0.0000   0.0000   0.0000   0.0000   0.0000
     0.0000   0.0000

          k = 0.0000-1.3581 0.0000 (  6084 PWs)   bands (ev):

   -13.2578 -13.2578 -13.2538 -13.2538 -13.2390 -13.2390 -13.2371 -13.2371
   -13.2282 -13.2282 -13.2245 -13.2245 -13.2069 -13.2069 -13.2022 -13.2022
   -13.1778 -13.1778 -13.1752 -13.1752  -4.6817  -4.6817  -4.6182  -4.6182
     0.3597   0.3597   1.0564   1.0564   4.4853   4.4853   5.8501   5.8501
     5.8653   5.8653   6.3776   6.3776   7.1087   7.1087   7.3080   7.3080
     9.1104   9.1104   9.5459   9.5459   9.8207   9.8207  10.6272  10.6272
    11.3367  11.3367

     occupation numbers 
     1.0000   1.0000   1.0000   1.0000   1.0000   1.0000   1.0000   1.0000
     1.0000   1.0000   1.0000   1.0000   1.0000   1.0000   1.0000   1.0000
     1.0000   1.0000   1.0000   1.0000   1.0000   1.0000   1.0000   1.0000
     1.0000   1.0000   1.0000   1.0000   1.0000   1.0000   1.0000   1.0000
     1.0000   1.0000   1.0000   1.0000   1.0000   1.0000   1.0000   1.0000
     0.0000   0.0000   0.0000   0.0000   0.0000   0.0000   0.0000   0.0000
     0.0000   0.0000

          k = 0.0000-1.3581 0.4269 (  6106 PWs)   bands (ev):

   -13.2612 -13.2612 -13.2562 -13.2562 -13.2389 -13.2389 -13.2353 -13.2353
   -13.2278 -13.2278 -13.2232 -13.2232 -13.2078 -13.2078 -13.2003 -13.2003
   -13.1786 -13.1786 -13.1744 -13.1744  -4.6217  -4.6217  -4.5657  -4.5657
     0.5225   0.5225   1.1556   1.1556   4.3391   4.3391   4.6829   4.6829
     5.3960   5.3960   6.2249   6.2249   6.5246   6.5246   7.4498   7.4498
     8.9831   8.9831  10.1636  10.1636  11.0844  11.0844  11.6280  11.6280
    12.2884  12.2884

     occupation numbers 
     1.0000   1.0000   1.0000   1.0000   1.0000   1.0000   1.0000   1.0000
     1.0000   1.0000   1.0000   1.0000   1.0000   1.0000   1.0000   1.0000
     1.0000   1.0000   1.0000   1.0000   1.0000   1.0000   1.0000   1.0000
     1.0000   1.0000   1.0000   1.0000   1.0000   1.0000   1.0000   1.0000
     1.0000   1.0000   1.0000   1.0000   1.0000   1.0000   1.0000   1.0000
     0.0000   0.0000   0.0000   0.0000   0.0000   0.0000   0.0000   0.0000
     0.0000   0.0000

          k = 0.0000-1.3581 0.8538 (  6124 PWs)   bands (ev):

   -13.2675 -13.2675 -13.2610 -13.2610 -13.2384 -13.2384 -13.2327 -13.2327
   -13.2269 -13.2269 -13.2211 -13.2211 -13.2079 -13.2079 -13.1975 -13.1975
   -13.1794 -13.1794 -13.1735 -13.1735  -4.4925  -4.4925  -4.4581  -4.4581
     0.9503   0.9503   1.3625   1.3625   3.4450   3.4450   3.9825   3.9825
     4.6941   4.6941   5.5267   5.5267   5.7400   5.7400   6.9354   6.9354
    10.0277  10.0277  11.5336  11.5336  12.5154  12.5154  12.6270  12.6270
    12.8944  12.8944

     occupation numbers 
     1.0000   1.0000   1.0000   1.0000   1.0000   1.0000   1.0000   1.0000
     1.0000   1.0000   1.0000   1.0000   1.0000   1.0000   1.0000   1.0000
     1.0000   1.0000   1.0000   1.0000   1.0000   1.0000   1.0000   1.0000
     1.0000   1.0000   1.0000   1.0000   1.0000   1.0000   1.0000   1.0000
     1.0000   1.0000   1.0000   1.0000   1.0000   1.0000   1.0000   1.0000
     0.0000   0.0000   0.0000   0.0000   0.0000   0.0000   0.0000   0.0000
     0.0000   0.0000

          k = 0.0000-1.3581-1.2807 (  6108 PWs)   bands (ev):

   -13.2705 -13.2705 -13.2634 -13.2634 -13.2383 -13.2383 -13.2316 -13.2316
   -13.2263 -13.2263 -13.2203 -13.2203 -13.2074 -13.2074 -13.1964 -13.1964
   -13.1795 -13.1795 -13.1731 -13.1731  -4.4178  -4.4178  -4.4079  -4.4079
     1.2906   1.2906   1.4407   1.4407   3.0378   3.0378   3.5537   3.5537
     4.4687   4.4687   4.9501   4.9501   5.8020   5.8020   6.6439   6.6439
    10.8680  10.8680  11.1758  11.1758  12.8456  12.8456  12.9783  12.9783
    13.7132  13.7132

     occupation numbers 
     1.0000   1.0000   1.0000   1.0000   1.0000   1.0000   1.0000   1.0000
     1.0000   1.0000   1.0000   1.0000   1.0000   1.0000   1.0000   1.0000
     1.0000   1.0000   1.0000   1.0000   1.0000   1.0000   1.0000   1.0000
     1.0000   1.0000   1.0000   1.0000   1.0000   1.0000   1.0000   1.0000
     1.0000   1.0000   1.0000   1.0000   1.0000   1.0000   1.0000   1.0000
     0.0000   0.0000   0.0000   0.0000   0.0000   0.0000   0.0000   0.0000
     0.0000   0.0000

          k =-0.5000 0.0000 0.0000 (  6084 PWs)   bands (ev):

   -13.2598 -13.2598 -13.2498 -13.2498 -13.2465 -13.2465 -13.2381 -13.2381
   -13.2306 -13.2306 -13.2288 -13.2288 -13.2134 -13.2134 -13.1930 -13.1930
   -13.1836 -13.1836 -13.1691 -13.1691  -5.6061  -5.6061  -4.3734  -4.3734
     1.1510   1.1510   3.0233   3.0233   4.0130   4.0130   4.8556   4.8556
     5.2132   5.2132   6.0083   6.0083   6.2396   6.2396   7.5333   7.5333
    10.6761  10.6761  10.8766  10.8766  11.7685  11.7685  11.9997  11.9997
    13.0952  13.0952

     occupation numbers 
     1.0000   1.0000   1.0000   1.0000   1.0000   1.0000   1.0000   1.0000
     1.0000   1.0000   1.0000   1.0000   1.0000   1.0000   1.0000   1.0000
     1.0000   1.0000   1.0000   1.0000   1.0000   1.0000   1.0000   1.0000
     1.0000   1.0000   1.0000   1.0000   1.0000   1.0000   1.0000   1.0000
     1.0000   1.0000   1.0000   1.0000   1.0000   1.0000   1.0000   1.0000
     0.0000   0.0000   0.0000   0.0000   0.0000   0.0000   0.0000   0.0000
     0.0000   0.0000

          k =-0.5000 0.0000 0.4269 (  6068 PWs)   bands (ev):

   -13.2588 -13.2588 -13.2487 -13.2487 -13.2477 -13.2477 -13.2395 -13.2395
   -13.2283 -13.2283 -13.2280 -13.2280 -13.2135 -13.2135 -13.1929 -13.1929
   -13.1843 -13.1843 -13.1692 -13.1692  -5.4929  -5.4929  -4.3822  -4.3822
     0.8263   0.8263   2.4653   2.4653   4.2525   4.2525   5.0301   5.0301
     5.4496   5.4496   6.3248   6.3248   6.5534   6.5534   7.4486   7.4486
    10.3859  10.3859  11.0379  11.0379  11.0720  11.0720  11.5710  11.5710
    12.9466  12.9467

     occupation numbers 
     1.0000   1.0000   1.0000   1.0000   1.0000   1.0000   1.0000   1.0000
     1.0000   1.0000   1.0000   1.0000   1.0000   1.0000   1.0000   1.0000
     1.0000   1.0000   1.0000   1.0000   1.0000   1.0000   1.0000   1.0000
     1.0000   1.0000   1.0000   1.0000   1.0000   1.0000   1.0000   1.0000
     1.0000   1.0000   1.0000   1.0000   1.0000   1.0000   1.0000   1.0000
     0.0000   0.0000   0.0000   0.0000   0.0000   0.0000   0.0000   0.0000
     0.0000   0.0000

          k =-0.5000 0.0000 0.8538 (  6070 PWs)   bands (ev):

   -13.2565 -13.2565 -13.2501 -13.2501 -13.2474 -13.2474 -13.2421 -13.2421
   -13.2274 -13.2274 -13.2220 -13.2220 -13.2142 -13.2142 -13.1924 -13.1924
   -13.1858 -13.1858 -13.1693 -13.1693  -5.1951  -5.1951  -4.4690  -4.4690
     0.3274   0.3274   1.6292   1.6292   4.6960   4.6960   5.4997   5.4997
     5.8613   5.8613   6.4274   6.4274   6.9832   6.9832   7.7563   7.7563
     9.5837   9.5837  10.0726  10.0726  10.4135  10.4135  11.5181  11.5181
    11.7118  11.7118

     occupation numbers 
     1.0000   1.0000   1.0000   1.0000   1.0000   1.0000   1.0000   1.0000
     1.0000   1.0000   1.0000   1.0000   1.0000   1.0000   1.0000   1.0000
     1.0000   1.0000   1.0000   1.0000   1.0000   1.0000   1.0000   1.0000
     1.0000   1.0000   1.0000   1.0000   1.0000   1.0000   1.0000   1.0000
     1.0000   1.0000   1.0000   1.0000   1.0000   1.0000   1.0000   1.0000
     0.0000   0.0000   0.0000   0.0000   0.0000   0.0000   0.0000   0.0000
     0.0000   0.0000

          k =-0.5000 0.0000-1.2807 (  6048 PWs)   bands (ev):

   -13.2551 -13.2551 -13.2513 -13.2513 -13.2472 -13.2472 -13.2434 -13.2434
   -13.2271 -13.2271 -13.2170 -13.2170 -13.2164 -13.2164 -13.1920 -13.1920
   -13.1865 -13.1865 -13.1693 -13.1693  -4.9282  -4.9282  -4.6311  -4.6311
     0.1457   0.1457   1.2467   1.2467   5.2433   5.2433   5.4909   5.4909
     5.9436   5.9436   6.2877   6.2877   7.5416   7.5416   7.8131   7.8131
     9.3022   9.3022   9.7152   9.7152   9.7710   9.7710  11.1185  11.1185
    11.4686  11.4686

     occupation numbers 
     1.0000   1.0000   1.0000   1.0000   1.0000   1.0000   1.0000   1.0000
     1.0000   1.0000   1.0000   1.0000   1.0000   1.0000   1.0000   1.0000
     1.0000   1.0000   1.0000   1.0000   1.0000   1.0000   1.0000   1.0000
     1.0000   1.0000   1.0000   1.0000   1.0000   1.0000   1.0000   1.0000
     1.0000   1.0000   1.0000   1.0000   1.0000   1.0000   1.0000   1.0000
     0.0000   0.0000   0.0000   0.0000   0.0000   0.0000   0.0000   0.0000
     0.0000   0.0000

          k =-0.5000 0.4527 0.0000 (  6100 PWs)   bands (ev):

   -13.2554 -13.2554 -13.2487 -13.2487 -13.2468 -13.2468 -13.2413 -13.2413
   -13.2317 -13.2317 -13.2270 -13.2270 -13.2123 -13.2123 -13.1918 -13.1918
   -13.1849 -13.1849 -13.1704 -13.1704  -5.4662  -5.4662  -4.3502  -4.3502
     0.9294   0.9294   2.4351   2.4351   4.1473   4.1473   4.8576   4.8576
     5.5298   5.5298   6.1246   6.1246   6.3951   6.3951   7.5916   7.5916
    10.3745  10.3745  10.8682  10.8682  11.3500  11.3500  11.5978  11.5978
    12.8762  12.8763

     occupation numbers 
     1.0000   1.0000   1.0000   1.0000   1.0000   1.0000   1.0000   1.0000
     1.0000   1.0000   1.0000   1.0000   1.0000   1.0000   1.0000   1.0000
     1.0000   1.0000   1.0000   1.0000   1.0000   1.0000   1.0000   1.0000
     1.0000   1.0000   1.0000   1.0000   1.0000   1.0000   1.0000   1.0000
     1.0000   1.0000   1.0000   1.0000   1.0000   1.0000   1.0000   1.0000
     0.0000   0.0000   0.0000   0.0000   0.0000   0.0000   0.0000   0.0000
     0.0000   0.0000

          k =-0.5000 0.4527 0.4269 (  6104 PWs)   bands (ev):

   -13.2555 -13.2555 -13.2499 -13.2499 -13.2460 -13.2460 -13.2422 -13.2422
   -13.2311 -13.2311 -13.2246 -13.2246 -13.2123 -13.2123 -13.1916 -13.1916
   -13.1857 -13.1857 -13.1702 -13.1702  -5.3577  -5.3577  -4.3541  -4.3541
     0.7830   0.7830   2.1680   2.1680   4.1297   4.1297   4.6532   4.6532
     5.4440   5.4440   6.2618   6.2618   7.0752   7.0752   7.5531   7.5531
     9.6832   9.6832  10.7546  10.7546  11.2324  11.2324  11.6450  11.6450
    12.4773  12.4773

     occupation numbers 
     1.0000   1.0000   1.0000   1.0000   1.0000   1.0000   1.0000   1.0000
     1.0000   1.0000   1.0000   1.0000   1.0000   1.0000   1.0000   1.0000
     1.0000   1.0000   1.0000   1.0000   1.0000   1.0000   1.0000   1.0000
     1.0000   1.0000   1.0000   1.0000   1.0000   1.0000   1.0000   1.0000
     1.0000   1.0000   1.0000   1.0000   1.0000   1.0000   1.0000   1.0000
     0.0000   0.0000   0.0000   0.0000   0.0000   0.0000   0.0000   0.0000
     0.0000   0.0000

          k =-0.5000 0.4527 0.8538 (  6068 PWs)   bands (ev):

   -13.2562 -13.2562 -13.2522 -13.2522 -13.2450 -13.2450 -13.2429 -13.2429
   -13.2302 -13.2302 -13.2197 -13.2197 -13.2125 -13.2125 -13.1908 -13.1908
   -13.1876 -13.1876 -13.1699 -13.1699  -5.0756  -5.0756  -4.4222  -4.4222
     0.4679   0.4679   1.6531   1.6531   4.1808   4.1808   4.9876   4.9876
     5.2399   5.2399   6.4368   6.4368   6.8971   6.8971   7.5444   7.5444
     9.7398   9.7398  10.3760  10.3760  10.9207  10.9207  11.5653  11.5653
    12.5065  12.5065

     occupation numbers 
     1.0000   1.0000   1.0000   1.0000   1.0000   1.0000   1.0000   1.0000
     1.0000   1.0000   1.0000   1.0000   1.0000   1.0000   1.0000   1.0000
     1.0000   1.0000   1.0000   1.0000   1.0000   1.0000   1.0000   1.0000
     1.0000   1.0000   1.0000   1.0000   1.0000   1.0000   1.0000   1.0000
     1.0000   1.0000   1.0000   1.0000   1.0000   1.0000   1.0000   1.0000
     0.0000   0.0000   0.0000   0.0000   0.0000   0.0000   0.0000   0.0000
     0.0000   0.0000

          k =-0.5000 0.4527-1.2807 (  6064 PWs)   bands (ev):

   -13.2569 -13.2569 -13.2532 -13.2532 -13.2450 -13.2450 -13.2427 -13.2427
   -13.2298 -13.2298 -13.2168 -13.2168 -13.2129 -13.2129 -13.1896 -13.1896
   -13.1892 -13.1892 -13.1697 -13.1697  -4.8282  -4.8282  -4.5614  -4.5614
     0.3225   0.3225   1.3807   1.3807   4.5928   4.5928   4.7885   4.7885
     5.5558   5.5558   5.9752   5.9752   6.8250   6.8250   7.3418   7.3418
    10.2020  10.2020  10.2592  10.2592  10.7882  10.7882  11.5278  11.5278
    12.4451  12.4451

     occupation numbers 
     1.0000   1.0000   1.0000   1.0000   1.0000   1.0000   1.0000   1.0000
     1.0000   1.0000   1.0000   1.0000   1.0000   1.0000   1.0000   1.0000
     1.0000   1.0000   1.0000   1.0000   1.0000   1.0000   1.0000   1.0000
     1.0000   1.0000   1.0000   1.0000   1.0000   1.0000   1.0000   1.0000
     1.0000   1.0000   1.0000   1.0000   1.0000   1.0000   1.0000   1.0000
     0.0000   0.0000   0.0000   0.0000   0.0000   0.0000   0.0000   0.0000
     0.0000   0.0000

          k =-0.5000 0.9054 0.0000 (  6120 PWs)   bands (ev):

   -13.2557 -13.2557 -13.2510 -13.2510 -13.2414 -13.2414 -13.2400 -13.2400
   -13.2323 -13.2323 -13.2236 -13.2236 -13.2100 -13.2100 -13.1962 -13.1962
   -13.1822 -13.1822 -13.1726 -13.1726  -5.0937  -5.0937  -4.3822  -4.3822
     0.5643   0.5643   1.4041   1.4041   4.6052   4.6052   5.2264   5.2264
     5.9044   5.9044   6.2323   6.2323   6.5491   6.5491   7.6369   7.6369
     9.2246   9.2246  10.1309  10.1309  10.8908  10.8908  11.2858  11.2858
    11.6736  11.6736

     occupation numbers 
     1.0000   1.0000   1.0000   1.0000   1.0000   1.0000   1.0000   1.0000
     1.0000   1.0000   1.0000   1.0000   1.0000   1.0000   1.0000   1.0000
     1.0000   1.0000   1.0000   1.0000   1.0000   1.0000   1.0000   1.0000
     1.0000   1.0000   1.0000   1.0000   1.0000   1.0000   1.0000   1.0000
     1.0000   1.0000   1.0000   1.0000   1.0000   1.0000   1.0000   1.0000
     0.0000   0.0000   0.0000   0.0000   0.0000   0.0000   0.0000   0.0000
     0.0000   0.0000

          k =-0.5000 0.9054 0.4269 (  6108 PWs)   bands (ev):

   -13.2580 -13.2580 -13.2536 -13.2536 -13.2406 -13.2406 -13.2391 -13.2391
   -13.2315 -13.2315 -13.2222 -13.2222 -13.2096 -13.2096 -13.1961 -13.1961
   -13.1824 -13.1824 -13.1724 -13.1724  -5.0025  -5.0025  -4.3653  -4.3653
     0.6607   0.6607   1.4303   1.4303   4.0806   4.0806   4.9040   4.9040
     5.3410   5.3410   6.3181   6.3181   6.6195   6.6195   7.3888   7.3888
     9.7135   9.7135  10.0897  10.0897  11.1654  11.1654  11.5648  11.5648
    12.0996  12.0996

     occupation numbers 
     1.0000   1.0000   1.0000   1.0000   1.0000   1.0000   1.0000   1.0000
     1.0000   1.0000   1.0000   1.0000   1.0000   1.0000   1.0000   1.0000
     1.0000   1.0000   1.0000   1.0000   1.0000   1.0000   1.0000   1.0000
     1.0000   1.0000   1.0000   1.0000   1.0000   1.0000   1.0000   1.0000
     1.0000   1.0000   1.0000   1.0000   1.0000   1.0000   1.0000   1.0000
     0.0000   0.0000   0.0000   0.0000   0.0000   0.0000   0.0000   0.0000
     0.0000   0.0000

          k =-0.5000 0.9054 0.8538 (  6092 PWs)   bands (ev):

   -13.2626 -13.2626 -13.2583 -13.2583 -13.2396 -13.2396 -13.2374 -13.2374
   -13.2299 -13.2299 -13.2198 -13.2198 -13.2082 -13.2082 -13.1958 -13.1958
   -13.1827 -13.1827 -13.1718 -13.1718  -4.7765  -4.7765  -4.3654  -4.3654
     0.7957   0.7957   1.5058   1.5058   3.4928   3.4928   4.3748   4.3748
     4.9026   4.9026   5.5645   5.5645   6.3443   6.3443   7.0949   7.0949
    10.4146  10.4146  11.0017  11.0017  11.1982  11.1982  12.4978  12.4978
    12.6825  12.6825

     occupation numbers 
     1.0000   1.0000   1.0000   1.0000   1.0000   1.0000   1.0000   1.0000
     1.0000   1.0000   1.0000   1.0000   1.0000   1.0000   1.0000   1.0000
     1.0000   1.0000   1.0000   1.0000   1.0000   1.0000   1.0000   1.0000
     1.0000   1.0000   1.0000   1.0000   1.0000   1.0000   1.0000   1.0000
     1.0000   1.0000   1.0000   1.0000   1.0000   1.0000   1.0000   1.0000
     0.0000   0.0000   0.0000   0.0000   0.0000   0.0000   0.0000   0.0000
     0.0000   0.0000

          k =-0.5000 0.9054-1.2807 (  6080 PWs)   bands (ev):

   -13.2648 -13.2648 -13.2607 -13.2607 -13.2392 -13.2392 -13.2368 -13.2368
   -13.2292 -13.2292 -13.2188 -13.2188 -13.2071 -13.2071 -13.1955 -13.1955
   -13.1828 -13.1828 -13.1716 -13.1716  -4.5955  -4.5955  -4.4283  -4.4283
     0.7942   0.7942   1.5953   1.5953   3.6151   3.6151   3.7073   3.7073
     4.9714   4.9714   5.0532   5.0532   6.3814   6.3814   6.7350   6.7350
    10.4915  10.4915  11.2698  11.2698  12.1372  12.1372  12.2367  12.2367
    13.5861  13.5865

     occupation numbers 
     1.0000   1.0000   1.0000   1.0000   1.0000   1.0000   1.0000   1.0000
     1.0000   1.0000   1.0000   1.0000   1.0000   1.0000   1.0000   1.0000
     1.0000   1.0000   1.0000   1.0000   1.0000   1.0000   1.0000   1.0000
     1.0000   1.0000   1.0000   1.0000   1.0000   1.0000   1.0000   1.0000
     1.0000   1.0000   1.0000   1.0000   1.0000   1.0000   1.0000   1.0000
     0.0000   0.0000   0.0000   0.0000   0.0000   0.0000   0.0000   0.0000
     0.0000   0.0000

          k =-0.5000-1.3581 0.0000 (  6096 PWs)   bands (ev):

   -13.2560 -13.2560 -13.2560 -13.2560 -13.2382 -13.2382 -13.2382 -13.2382
   -13.2261 -13.2261 -13.2261 -13.2261 -13.2045 -13.2045 -13.2045 -13.2045
   -13.1765 -13.1765 -13.1765 -13.1765  -4.6505  -4.6505  -4.6505  -4.6505
     0.6673   0.6673   0.6673   0.6673   5.3022   5.3022   5.3022   5.3022
     5.9776   5.9776   5.9776   5.9776   7.0680   7.0680   7.0680   7.0680
     9.5795   9.5795   9.5795   9.5795  10.2424  10.2424  10.2424  10.2424
    12.0013  12.0013

     occupation numbers 
     1.0000   1.0000   1.0000   1.0000   1.0000   1.0000   1.0000   1.0000
     1.0000   1.0000   1.0000   1.0000   1.0000   1.0000   1.0000   1.0000
     1.0000   1.0000   1.0000   1.0000   1.0000   1.0000   1.0000   1.0000
     1.0000   1.0000   1.0000   1.0000   1.0000   1.0000   1.0000   1.0000
     1.0000   1.0000   1.0000   1.0000   1.0000   1.0000   1.0000   1.0000
     0.0000   0.0000   0.0000   0.0000   0.0000   0.0000   0.0000   0.0000
     0.0000   0.0000

          k =-0.5000-1.3581 0.4269 (  6100 PWs)   bands (ev):

   -13.2588 -13.2588 -13.2588 -13.2588 -13.2373 -13.2373 -13.2373 -13.2373
   -13.2254 -13.2254 -13.2254 -13.2254 -13.2039 -13.2039 -13.2039 -13.2039
   -13.1764 -13.1764 -13.1764 -13.1764  -4.5941  -4.5941  -4.5941  -4.5941
     0.8043   0.8043   0.8043   0.8043   4.6674   4.6674   4.6674   4.6674
     5.6440   5.6440   5.6440   5.6440   6.8404   6.8404   6.8404   6.8404
     9.9101   9.9101   9.9101   9.9101  11.3280  11.3280  11.3280  11.3280
    12.2339  12.2339

     occupation numbers 
     1.0000   1.0000   1.0000   1.0000   1.0000   1.0000   1.0000   1.0000
     1.0000   1.0000   1.0000   1.0000   1.0000   1.0000   1.0000   1.0000
     1.0000   1.0000   1.0000   1.0000   1.0000   1.0000   1.0000   1.0000
     1.0000   1.0000   1.0000   1.0000   1.0000   1.0000   1.0000   1.0000
     1.0000   1.0000   1.0000   1.0000   1.0000   1.0000   1.0000   1.0000
     0.0000   0.0000   0.0000   0.0000   0.0000   0.0000   0.0000   0.0000
     0.0000   0.0000

          k =-0.5000-1.3581 0.8538 (  6092 PWs)   bands (ev):

   -13.2643 -13.2643 -13.2643 -13.2643 -13.2362 -13.2362 -13.2362 -13.2362
   -13.2240 -13.2240 -13.2240 -13.2240 -13.2022 -13.2022 -13.2022 -13.2022
   -13.1762 -13.1762 -13.1762 -13.1762  -4.4755  -4.4755  -4.4755  -4.4755
     1.1363   1.1363   1.1363   1.1363   3.7646   3.7646   3.7646   3.7646
     4.8587   4.8587   4.8587   4.8587   6.5652   6.5652   6.5652   6.5652
    10.7495  10.7495  10.7495  10.7495  11.9955  11.9955  11.9955  11.9955
    13.7598  13.7598

     occupation numbers 
     1.0000   1.0000   1.0000   1.0000   1.0000   1.0000   1.0000   1.0000
     1.0000   1.0000   1.0000   1.0000   1.0000   1.0000   1.0000   1.0000
     1.0000   1.0000   1.0000   1.0000   1.0000   1.0000   1.0000   1.0000
     1.0000   1.0000   1.0000   1.0000   1.0000   1.0000   1.0000   1.0000
     1.0000   1.0000   1.0000   1.0000   1.0000   1.0000   1.0000   1.0000
     0.0000   0.0000   0.0000   0.0000   0.0000   0.0000   0.0000   0.0000
     0.0000   0.0000

          k =-0.5000-1.3581-1.2807 (  6096 PWs)   bands (ev):

   -13.2669 -13.2669 -13.2669 -13.2669 -13.2359 -13.2359 -13.2359 -13.2359
   -13.2232 -13.2232 -13.2232 -13.2232 -13.2013 -13.2013 -13.2013 -13.2013
   -13.1760 -13.1760 -13.1760 -13.1760  -4.4128  -4.4128  -4.4128  -4.4128
     1.3467   1.3467   1.3467   1.3467   3.4563   3.4563   3.4563   3.4563
     4.3162   4.3162   4.3162   4.3162   6.5960   6.5960   6.5960   6.5960
    10.6250  10.6250  10.6250  10.6250  12.8400  12.8400  12.8400  12.8400
    14.6052  14.6052

     occupation numbers 
     1.0000   1.0000   1.0000   1.0000   1.0000   1.0000   1.0000   1.0000
     1.0000   1.0000   1.0000   1.0000   1.0000   1.0000   1.0000   1.0000
     1.0000   1.0000   1.0000   1.0000   1.0000   1.0000   1.0000   1.0000
     1.0000   1.0000   1.0000   1.0000   1.0000   1.0000   1.0000   1.0000
     1.0000   1.0000   1.0000   1.0000   1.0000   1.0000   1.0000   1.0000
     0.0000   0.0000   0.0000   0.0000   0.0000   0.0000   0.0000   0.0000
     0.0000   0.0000

     highest occupied, lowest unoccupied level (ev):     8.1003    8.6730

!    total energy              =    -827.61545617 Ry
     estimated scf accuracy    <          9.9E-10 Ry

     The total energy is the sum of the following terms:
     one-electron contribution =    -257.00041223 Ry
     hartree contribution      =     179.11390596 Ry
     xc contribution           =    -309.12413370 Ry
     ewald contribution        =    -440.60481620 Ry

     convergence has been achieved in   9 iterations

     Forces acting on atoms (cartesian axes, Ry/au):

     atom    1 type  2   force =     0.00807640    0.00000000   -0.00037628
     atom    2 type  1   force =    -0.00737550    0.00000000   -0.00107176
     atom    3 type  2   force =    -0.00807640    0.00000000   -0.00037628
     atom    4 type  1   force =     0.00737550    0.00000000   -0.00107176
     atom    5 type  2   force =     0.00807640    0.00000000    0.00037628
     atom    6 type  1   force =    -0.00737550    0.00000000    0.00107176
     atom    7 type  2   force =    -0.00807640    0.00000000    0.00037628
     atom    8 type  1   force =     0.00737550   -0.00000000    0.00107176
     The non-local contrib.  to forces
     atom    1 type  2   force =    -0.11843407    0.00000000    0.09600047
     atom    2 type  1   force =     0.37337750    0.00000000    0.26609321
     atom    3 type  2   force =     0.11843407    0.00000000    0.09600047
     atom    4 type  1   force =    -0.37337750    0.00000000    0.26609321
     atom    5 type  2   force =    -0.11843407    0.00000000   -0.09600047
     atom    6 type  1   force =     0.37337750    0.00000000   -0.26609321
     atom    7 type  2   force =     0.11843407    0.00000000   -0.09600047
     atom    8 type  1   force =    -0.37337750    0.00000000   -0.26609321
     The ionic contribution  to forces
     atom    1 type  2   force =     1.53473235    0.00000000   -1.05154455
     atom    2 type  1   force =    -1.03769718    0.00000000   -0.57506129
     atom    3 type  2   force =    -1.53473235    0.00000000   -1.05154455
     atom    4 type  1   force =     1.03769718   -0.00000000   -0.57506129
     atom    5 type  2   force =     1.53473235    0.00000000    1.05154455
     atom    6 type  1   force =    -1.03769718   -0.00000000    0.57506129
     atom    7 type  2   force =    -1.53473235   -0.00000000    1.05154455
     atom    8 type  1   force =     1.03769718    0.00000000    0.57506129
     The local contribution  to forces
     atom    1 type  2   force =    -1.42126270   -0.00000000    0.96576566
     atom    2 type  1   force =     0.66278397    0.00000000    0.31224369
     atom    3 type  2   force =     1.42126270   -0.00000000    0.96576566
     atom    4 type  1   force =    -0.66278397    0.00000000    0.31224369
     atom    5 type  2   force =    -1.42126270    0.00000000   -0.96576566
     atom    6 type  1   force =     0.66278397    0.00000000   -0.31224369
     atom    7 type  2   force =     1.42126270    0.00000000   -0.96576566
     atom    8 type  1   force =    -0.66278397    0.00000000   -0.31224369
     The core correction contribution to forces
     atom    1 type  2   force =     0.01301330   -0.00000000   -0.01059803
     atom    2 type  1   force =    -0.00578584   -0.00000000   -0.00437817
     atom    3 type  2   force =    -0.01301330    0.00000000   -0.01059803
     atom    4 type  1   force =     0.00578584    0.00000000   -0.00437817
     atom    5 type  2   force =     0.01301330   -0.00000000    0.01059803
     atom    6 type  1   force =    -0.00578584   -0.00000000    0.00437817
     atom    7 type  2   force =    -0.01301330   -0.00000000    0.01059803
     atom    8 type  1   force =     0.00578584    0.00000000    0.00437817
     The Hubbard contrib.    to forces
     atom    1 type  2   force =     0.00000000    0.00000000    0.00000000
     atom    2 type  1   force =     0.00000000    0.00000000    0.00000000
     atom    3 type  2   force =     0.00000000    0.00000000    0.00000000
     atom    4 type  1   force =     0.00000000    0.00000000    0.00000000
     atom    5 type  2   force =     0.00000000    0.00000000    0.00000000
     atom    6 type  1   force =     0.00000000    0.00000000    0.00000000
     atom    7 type  2   force =     0.00000000    0.00000000    0.00000000
     atom    8 type  1   force =     0.00000000    0.00000000    0.00000000
     The SCF correction term to forces
     atom    1 type  2   force =     0.00002752   -0.00000000    0.00000018
     atom    2 type  1   force =    -0.00005395    0.00000000    0.00003081
     atom    3 type  2   force =    -0.00002752    0.00000000    0.00000018
     atom    4 type  1   force =     0.00005395    0.00000000    0.00003081
     atom    5 type  2   force =     0.00002752   -0.00000000   -0.00000018
     atom    6 type  1   force =    -0.00005395    0.00000000   -0.00003081
     atom    7 type  2   force =    -0.00002752   -0.00000000   -0.00000018
     atom    8 type  1   force =     0.00005395    0.00000000   -0.00003081

     Total force =     0.021992     Total SCF correction =     0.000136

     Writing output data file ./tmp/SnSe_pnma.save/

     init_run     :      6.90s CPU      6.26s WALL (       1 calls)
     electrons    :    154.62s CPU    134.33s WALL (       1 calls)
     forces       :      6.39s CPU      6.33s WALL (       1 calls)

     Called by init_run:
     wfcinit      :      3.26s CPU      2.34s WALL (       1 calls)
     wfcinit:atom :      0.05s CPU      0.04s WALL (       8 calls)
     wfcinit:wfcr :      2.85s CPU      2.03s WALL (       8 calls)
     potinit      :      0.78s CPU      0.85s WALL (       1 calls)
     hinit0       :      1.51s CPU      1.53s WALL (       1 calls)

     Called by electrons:
     c_bands      :    122.43s CPU    102.38s WALL (       9 calls)
     sum_band     :     21.18s CPU     18.79s WALL (       9 calls)
     v_of_rho     :      2.59s CPU      2.96s WALL (      10 calls)
     v_h          :      0.16s CPU      0.17s WALL (      10 calls)
     v_xc         :      2.68s CPU      3.08s WALL (      11 calls)
     newd         :      9.28s CPU     11.28s WALL (      10 calls)
     mix_rho      :      0.38s CPU      0.37s WALL (       9 calls)

     Called by c_bands:
     init_us_2    :      1.37s CPU      1.08s WALL (     160 calls)
     cegterg      :     87.97s CPU     71.62s WALL (      72 calls)

     Called by sum_band:
     sum_band:wei :      0.00s CPU      0.00s WALL (       9 calls)
     sum_band:loo :     13.14s CPU     11.60s WALL (       9 calls)
     sum_band:buf :      0.12s CPU      0.08s WALL (      72 calls)
     sum_band:ini :      0.63s CPU      0.47s WALL (      72 calls)
     sum_band:cal :      3.02s CPU      3.89s WALL (      72 calls)
     sum_band:bec :      0.01s CPU      0.01s WALL (      72 calls)
     addusdens    :      5.36s CPU      4.85s WALL (       9 calls)
     addusd:skk   :      0.02s CPU      0.03s WALL (      18 calls)
     addusd:dgemm :      2.16s CPU      1.76s WALL (      18 calls)
     addusd:qvan2 :      2.78s CPU      2.17s WALL (      18 calls)

     Called by *egterg:
     cdiaghg      :      5.23s CPU      6.49s WALL (     315 calls)
     cegterg:over :     10.04s CPU      9.95s WALL (     243 calls)
     cegterg:upda :      3.66s CPU      1.57s WALL (     243 calls)
     cegterg:last :      6.24s CPU      1.92s WALL (     151 calls)
     h_psi        :     52.67s CPU     43.17s WALL (     323 calls)
     s_psi        :      6.64s CPU      2.00s WALL (     323 calls)
     g_psi        :      0.56s CPU      0.42s WALL (     243 calls)

     Called by h_psi:
     h_psi:calbec :      8.57s CPU      9.45s WALL (     323 calls)
     vloc_psi     :     37.09s CPU     31.37s WALL (     323 calls)
     add_vuspsi   :      6.65s CPU      1.99s WALL (     323 calls)

     General routines
     calbec       :     12.60s CPU     14.29s WALL (     427 calls)
     fft          :      1.44s CPU      1.43s WALL (     139 calls)
     ffts         :      0.04s CPU      0.04s WALL (      19 calls)
     fftw         :     38.39s CPU     32.09s WALL (   23072 calls)
     interpolate  :      0.15s CPU      0.15s WALL (      10 calls)

     Parallel routines

     PWSCF        :   2m49.15s CPU   2m28.23s WALL


   This run was terminated on:  18:53: 0   5May2026            

=------------------------------------------------------------------------------=
   JOB DONE.
=------------------------------------------------------------------------------=
