
     Program PWSCF v.6.7MaX starts on  5May2026 at 18:48:14 

     This program is part of the open-source Quantum ESPRESSO suite
     for quantum simulation of materials; please cite
         "P. Giannozzi et al., J. Phys.:Condens. Matter 21 395502 (2009);
         "P. Giannozzi et al., J. Phys.:Condens. Matter 29 465901 (2017);
          URL http://www.quantum-espresso.org", 
     in publications or presentations arising from this work. More details at
     http://www.quantum-espresso.org/quote

     Parallel version (MPI), running on     4 processors

     MPI processes distributed on     1 nodes
     K-points division:     npool     =       4
     Waiting for input...
     Reading input from standard input

     Current dimensions of program PWSCF are:
     Max number of different atomic species (ntypx) = 10
     Max number of k-points (npk) =  40000
     Max angular momentum in pseudopotentials (lmaxx) =  3

     Subspace diagonalization in iterative solution of the eigenvalue problem:
     a serial algorithm will be used


     G-vector sticks info
     --------------------
     sticks:   dense  smooth     PW     G-vecs:    dense   smooth      PW
     Sum        4733    1885    573               157701    39859    6537



     bravais-lattice index     =            8
     lattice parameter (alat)  =      21.4862  a.u.
     unit-cell volume          =    1425.7436 (a.u.)^3
     number of atoms/cell      =            8
     number of atomic types    =            2
     number of electrons       =        80.00
     number of Kohn-Sham states=           50
     kinetic-energy cutoff     =      35.0000  Ry
     charge density cutoff     =     350.0000  Ry
     scf convergence threshold =      1.0E-08
     mixing beta               =       0.7000
     number of iterations used =            8  plain     mixing
     Exchange-correlation= SLA  PW   PBE  PBE
                           (   1   4   3   4   0   0   0)

     celldm(1)=  21.486186  celldm(2)=   0.368162  celldm(3)=   0.390413
     celldm(4)=   0.000000  celldm(5)=   0.000000  celldm(6)=   0.000000

     crystal axes: (cart. coord. in units of alat)
               a(1) = (   1.000000   0.000000   0.000000 )  
               a(2) = (   0.000000   0.368162   0.000000 )  
               a(3) = (   0.000000   0.000000   0.390413 )  

     reciprocal axes: (cart. coord. in units 2 pi/alat)
               b(1) = (  1.000000  0.000000  0.000000 )  
               b(2) = (  0.000000  2.716197  0.000000 )  
               b(3) = (  0.000000  0.000000  2.561388 )  


     PseudoPot. # 1 for Sn read from file:
     ../pseudo/Sn_pbe_v1.uspp.F.UPF
     MD5 check sum: 4cf58ce39ec5d5d420df3dd08604eb00
     Pseudo is Ultrasoft + core correction, Zval = 14.0
     Generated by new atomic code, or converted to UPF format
     Using radial grid of  891 points,  6 beta functions with: 
                l(1) =   0
                l(2) =   0
                l(3) =   1
                l(4) =   1
                l(5) =   2
                l(6) =   2
     Q(r) pseudized with  6 coefficients,  rinner =    1.200   1.200   1.200
                                                       1.200   1.200

     PseudoPot. # 2 for Se read from file:
     ../pseudo/Se_pbe_v1.uspp.F.UPF
     MD5 check sum: 1b3568f3a8ae88f9a2a0ad0698632c85
     Pseudo is Ultrasoft + core correction, Zval =  6.0
     Generated by new atomic code, or converted to UPF format
     Using radial grid of  877 points,  6 beta functions with: 
                l(1) =   0
                l(2) =   0
                l(3) =   1
                l(4) =   1
                l(5) =   2
                l(6) =   2
     Q(r) pseudized with  8 coefficients,  rinner =    1.300   1.300   1.300
                                                       1.300   1.300

     atomic species   valence    mass     pseudopotential
        Sn            14.00   118.71000     Sn( 1.00)
        Se             6.00    78.97100     Se( 1.00)

      8 Sym. Ops., with inversion, found ( 6 have fractional translation)


                                    s                        frac. trans.

      isym =  1     identity                                     

 cryst.   s( 1) = (     1          0          0      )
                  (     0          1          0      )
                  (     0          0          1      )

 cart.    s( 1) = (  1.0000000  0.0000000  0.0000000 )
                  (  0.0000000  1.0000000  0.0000000 )
                  (  0.0000000  0.0000000  1.0000000 )


      isym =  2     180 deg rotation - cart. axis [0,0,1]        

 cryst.   s( 2) = (    -1          0          0      )    f =(  0.5000000 )
                  (     0         -1          0      )       (  0.0000000 )
                  (     0          0          1      )       (  0.5000000 )

 cart.    s( 2) = ( -1.0000000  0.0000000  0.0000000 )    f =(  0.5000000 )
                  (  0.0000000 -1.0000000  0.0000000 )       (  0.0000000 )
                  (  0.0000000  0.0000000  1.0000000 )       (  0.1952067 )


      isym =  3     180 deg rotation - cart. axis [0,1,0]        

 cryst.   s( 3) = (    -1          0          0      )    f =(  0.0000000 )
                  (     0          1          0      )       ( -0.5000000 )
                  (     0          0         -1      )       (  0.0000000 )

 cart.    s( 3) = ( -1.0000000  0.0000000  0.0000000 )    f =(  0.0000000 )
                  (  0.0000000  1.0000000  0.0000000 )       ( -0.1840809 )
                  (  0.0000000  0.0000000 -1.0000000 )       (  0.0000000 )


      isym =  4     180 deg rotation - cart. axis [1,0,0]        

 cryst.   s( 4) = (     1          0          0      )    f =(  0.5000000 )
                  (     0         -1          0      )       (  0.5000000 )
                  (     0          0         -1      )       (  0.5000000 )

 cart.    s( 4) = (  1.0000000  0.0000000  0.0000000 )    f =(  0.5000000 )
                  (  0.0000000 -1.0000000  0.0000000 )       (  0.1840809 )
                  (  0.0000000  0.0000000 -1.0000000 )       (  0.1952067 )


      isym =  5     inversion                                    

 cryst.   s( 5) = (    -1          0          0      )
                  (     0         -1          0      )
                  (     0          0         -1      )

 cart.    s( 5) = ( -1.0000000  0.0000000  0.0000000 )
                  (  0.0000000 -1.0000000  0.0000000 )
                  (  0.0000000  0.0000000 -1.0000000 )


      isym =  6     inv. 180 deg rotation - cart. axis [0,0,1]   

 cryst.   s( 6) = (     1          0          0      )    f =(  0.5000000 )
                  (     0          1          0      )       (  0.0000000 )
                  (     0          0         -1      )       (  0.5000000 )

 cart.    s( 6) = (  1.0000000  0.0000000  0.0000000 )    f =(  0.5000000 )
                  (  0.0000000  1.0000000  0.0000000 )       (  0.0000000 )
                  (  0.0000000  0.0000000 -1.0000000 )       (  0.1952067 )


      isym =  7     inv. 180 deg rotation - cart. axis [0,1,0]   

 cryst.   s( 7) = (     1          0          0      )    f =(  0.0000000 )
                  (     0         -1          0      )       (  0.5000000 )
                  (     0          0          1      )       (  0.0000000 )

 cart.    s( 7) = (  1.0000000  0.0000000  0.0000000 )    f =(  0.0000000 )
                  (  0.0000000 -1.0000000  0.0000000 )       (  0.1840809 )
                  (  0.0000000  0.0000000  1.0000000 )       (  0.0000000 )


      isym =  8     inv. 180 deg rotation - cart. axis [1,0,0]   

 cryst.   s( 8) = (    -1          0          0      )    f =(  0.5000000 )
                  (     0          1          0      )       ( -0.5000000 )
                  (     0          0          1      )       (  0.5000000 )

 cart.    s( 8) = ( -1.0000000  0.0000000  0.0000000 )    f =(  0.5000000 )
                  (  0.0000000  1.0000000  0.0000000 )       ( -0.1840809 )
                  (  0.0000000  0.0000000  1.0000000 )       (  0.1952067 )


     point group D_2h (mmm) 
     there are  8 classes
     the character table:

       E     C2    C2'   C2''  i     s_v   s_v'  s_v''
A_g    1.00  1.00  1.00  1.00  1.00  1.00  1.00  1.00
B_1g   1.00  1.00 -1.00 -1.00  1.00  1.00 -1.00 -1.00
B_2g   1.00 -1.00  1.00 -1.00  1.00 -1.00  1.00 -1.00
B_3g   1.00 -1.00 -1.00  1.00  1.00 -1.00 -1.00  1.00
A_u    1.00  1.00  1.00  1.00 -1.00 -1.00 -1.00 -1.00
B_1u   1.00  1.00 -1.00 -1.00 -1.00 -1.00  1.00  1.00
B_2u   1.00 -1.00  1.00 -1.00 -1.00  1.00 -1.00  1.00
B_3u   1.00 -1.00 -1.00  1.00 -1.00  1.00  1.00 -1.00

     the symmetry operations in each class and the name of the first element:

     E        1
          identity                                               
     C2       2
          180 deg rotation - cart. axis [0,0,1]                  
     C2'      4
          180 deg rotation - cart. axis [1,0,0]                  
     C2''     3
          180 deg rotation - cart. axis [0,1,0]                  
     i        5
          inversion                                              
     s_v      6
          inv. 180 deg rotation - cart. axis [0,0,1]             
     s_v'     8
          inv. 180 deg rotation - cart. axis [1,0,0]             
     s_v''    7
          inv. 180 deg rotation - cart. axis [0,1,0]             

   Cartesian axes

     site n.     atom                  positions (alat units)
         1           Se  tau(   1) = (   0.8555000   0.0920405   0.1884916  )
         2           Sn  tau(   2) = (   0.1187000   0.0920405   0.0385728  )
         3           Se  tau(   3) = (   0.6445000   0.2761214   0.3836983  )
         4           Sn  tau(   4) = (   0.3813000   0.2761214   0.2337795  )
         5           Se  tau(   5) = (   0.3555000   0.0920405   0.0067151  )
         6           Sn  tau(   6) = (   0.6187000   0.0920405   0.1566338  )
         7           Se  tau(   7) = (   0.1445000   0.2761214   0.2019218  )
         8           Sn  tau(   8) = (   0.8813000   0.2761214   0.3518405  )

   Crystallographic axes

     site n.     atom                  positions (cryst. coord.)
         1           Se  tau(   1) = (  0.8555000  0.2500000  0.4828000  )
         2           Sn  tau(   2) = (  0.1187000  0.2500000  0.0988000  )
         3           Se  tau(   3) = (  0.6445000  0.7500000  0.9828000  )
         4           Sn  tau(   4) = (  0.3813000  0.7500000  0.5988000  )
         5           Se  tau(   5) = (  0.3555000  0.2500000  0.0172000  )
         6           Sn  tau(   6) = (  0.6187000  0.2500000  0.4012000  )
         7           Se  tau(   7) = (  0.1445000  0.7500000  0.5172000  )
         8           Sn  tau(   8) = (  0.8813000  0.7500000  0.9012000  )

     number of k points=    32
                       cart. coord. in units 2pi/alat
        k(    1) = (   0.0000000   0.0000000   0.0000000), wk =   0.0277778
        k(    2) = (   0.0000000   0.0000000   0.4268979), wk =   0.0555556
        k(    3) = (   0.0000000   0.0000000   0.8537959), wk =   0.0555556
        k(    4) = (   0.0000000   0.0000000  -1.2806938), wk =   0.0277778
        k(    5) = (   0.0000000   0.4526995   0.0000000), wk =   0.0555556
        k(    6) = (   0.0000000   0.4526995   0.4268979), wk =   0.1111111
        k(    7) = (   0.0000000   0.4526995   0.8537959), wk =   0.1111111
        k(    8) = (   0.0000000   0.4526995  -1.2806938), wk =   0.0555556
        k(    9) = (   0.0000000   0.9053989   0.0000000), wk =   0.0555556
        k(   10) = (   0.0000000   0.9053989   0.4268979), wk =   0.1111111
        k(   11) = (   0.0000000   0.9053989   0.8537959), wk =   0.1111111
        k(   12) = (   0.0000000   0.9053989  -1.2806938), wk =   0.0555556
        k(   13) = (   0.0000000  -1.3580984   0.0000000), wk =   0.0277778
        k(   14) = (   0.0000000  -1.3580984   0.4268979), wk =   0.0555556
        k(   15) = (   0.0000000  -1.3580984   0.8537959), wk =   0.0555556
        k(   16) = (   0.0000000  -1.3580984  -1.2806938), wk =   0.0277778
        k(   17) = (  -0.5000000   0.0000000   0.0000000), wk =   0.0277778
        k(   18) = (  -0.5000000   0.0000000   0.4268979), wk =   0.0555556
        k(   19) = (  -0.5000000   0.0000000   0.8537959), wk =   0.0555556
        k(   20) = (  -0.5000000   0.0000000  -1.2806938), wk =   0.0277778
        k(   21) = (  -0.5000000   0.4526995   0.0000000), wk =   0.0555556
        k(   22) = (  -0.5000000   0.4526995   0.4268979), wk =   0.1111111
        k(   23) = (  -0.5000000   0.4526995   0.8537959), wk =   0.1111111
        k(   24) = (  -0.5000000   0.4526995  -1.2806938), wk =   0.0555556
        k(   25) = (  -0.5000000   0.9053989   0.0000000), wk =   0.0555556
        k(   26) = (  -0.5000000   0.9053989   0.4268979), wk =   0.1111111
        k(   27) = (  -0.5000000   0.9053989   0.8537959), wk =   0.1111111
        k(   28) = (  -0.5000000   0.9053989  -1.2806938), wk =   0.0555556
        k(   29) = (  -0.5000000  -1.3580984   0.0000000), wk =   0.0277778
        k(   30) = (  -0.5000000  -1.3580984   0.4268979), wk =   0.0555556
        k(   31) = (  -0.5000000  -1.3580984   0.8537959), wk =   0.0555556
        k(   32) = (  -0.5000000  -1.3580984  -1.2806938), wk =   0.0277778

                       cryst. coord.
        k(    1) = (   0.0000000   0.0000000   0.0000000), wk =   0.0277778
        k(    2) = (   0.0000000   0.0000000   0.1666667), wk =   0.0555556
        k(    3) = (   0.0000000   0.0000000   0.3333333), wk =   0.0555556
        k(    4) = (   0.0000000   0.0000000  -0.5000000), wk =   0.0277778
        k(    5) = (   0.0000000   0.1666667   0.0000000), wk =   0.0555556
        k(    6) = (   0.0000000   0.1666667   0.1666667), wk =   0.1111111
        k(    7) = (   0.0000000   0.1666667   0.3333333), wk =   0.1111111
        k(    8) = (   0.0000000   0.1666667  -0.5000000), wk =   0.0555556
        k(    9) = (   0.0000000   0.3333333   0.0000000), wk =   0.0555556
        k(   10) = (   0.0000000   0.3333333   0.1666667), wk =   0.1111111
        k(   11) = (   0.0000000   0.3333333   0.3333333), wk =   0.1111111
        k(   12) = (   0.0000000   0.3333333  -0.5000000), wk =   0.0555556
        k(   13) = (   0.0000000  -0.5000000   0.0000000), wk =   0.0277778
        k(   14) = (   0.0000000  -0.5000000   0.1666667), wk =   0.0555556
        k(   15) = (   0.0000000  -0.5000000   0.3333333), wk =   0.0555556
        k(   16) = (   0.0000000  -0.5000000  -0.5000000), wk =   0.0277778
        k(   17) = (  -0.5000000   0.0000000   0.0000000), wk =   0.0277778
        k(   18) = (  -0.5000000   0.0000000   0.1666667), wk =   0.0555556
        k(   19) = (  -0.5000000   0.0000000   0.3333333), wk =   0.0555556
        k(   20) = (  -0.5000000   0.0000000  -0.5000000), wk =   0.0277778
        k(   21) = (  -0.5000000   0.1666667   0.0000000), wk =   0.0555556
        k(   22) = (  -0.5000000   0.1666667   0.1666667), wk =   0.1111111
        k(   23) = (  -0.5000000   0.1666667   0.3333333), wk =   0.1111111
        k(   24) = (  -0.5000000   0.1666667  -0.5000000), wk =   0.0555556
        k(   25) = (  -0.5000000   0.3333333   0.0000000), wk =   0.0555556
        k(   26) = (  -0.5000000   0.3333333   0.1666667), wk =   0.1111111
        k(   27) = (  -0.5000000   0.3333333   0.3333333), wk =   0.1111111
        k(   28) = (  -0.5000000   0.3333333  -0.5000000), wk =   0.0555556
        k(   29) = (  -0.5000000  -0.5000000   0.0000000), wk =   0.0277778
        k(   30) = (  -0.5000000  -0.5000000   0.1666667), wk =   0.0555556
        k(   31) = (  -0.5000000  -0.5000000   0.3333333), wk =   0.0555556
        k(   32) = (  -0.5000000  -0.5000000  -0.5000000), wk =   0.0277778

     Dense  grid:   157701 G-vectors     FFT dimensions: ( 128,  48,  50)

     Smooth grid:    39859 G-vectors     FFT dimensions: (  90,  30,  32)

     Dynamical RAM for                 wfc:       3.80 MB

     Dynamical RAM for     wfc (w. buffer):      34.23 MB

     Dynamical RAM for           str. fact:       4.81 MB

     Dynamical RAM for           local pot:       0.00 MB

     Dynamical RAM for          nlocal pot:      10.95 MB

     Dynamical RAM for                qrad:       3.00 MB

     Dynamical RAM for          rho,v,vnew:      14.25 MB

     Dynamical RAM for               rhoin:       4.75 MB

     Dynamical RAM for            rho*nmix:      38.50 MB

     Dynamical RAM for           G-vectors:       9.33 MB

     Dynamical RAM for          h,s,v(r/c):       0.46 MB

     Dynamical RAM for          <psi|beta>:       0.11 MB

     Dynamical RAM for                 psi:       7.61 MB

     Dynamical RAM for                hpsi:       7.61 MB

     Dynamical RAM for                spsi:       7.61 MB

     Dynamical RAM for      wfcinit/wfcrot:       7.97 MB

     Dynamical RAM for           addusdens:     116.10 MB

     Dynamical RAM for          addusforce:     119.13 MB

     Estimated static dynamical RAM per process >     138.76 MB

     Estimated max dynamical RAM per process >     257.89 MB

     Estimated total dynamical RAM >       1.01 GB

     Initial potential from superposition of free atoms

     starting charge   75.99954, renormalised to   80.00000
     Starting wfcs are   52 randomized atomic wfcs

     total cpu time spent up to now is        6.3 secs

     Self-consistent Calculation

     iteration #  1     ecut=    35.00 Ry     beta= 0.70
     Davidson diagonalization with overlap
     ethr =  1.00E-02,  avg # of iterations =  3.7

     total cpu time spent up to now is       22.1 secs

     total energy              =    -826.53897924 Ry
     estimated scf accuracy    <       2.63906274 Ry

     iteration #  2     ecut=    35.00 Ry     beta= 0.70
     Davidson diagonalization with overlap
     ethr =  3.30E-03,  avg # of iterations =  2.0

     total cpu time spent up to now is       35.4 secs

     total energy              =    -827.32794387 Ry
     estimated scf accuracy    <       1.10039613 Ry

     iteration #  3     ecut=    35.00 Ry     beta= 0.70
     Davidson diagonalization with overlap
     ethr =  1.38E-03,  avg # of iterations =  2.0

     total cpu time spent up to now is       47.9 secs

     total energy              =    -827.60244858 Ry
     estimated scf accuracy    <       0.06090184 Ry

     iteration #  4     ecut=    35.00 Ry     beta= 0.70
     Davidson diagonalization with overlap
     ethr =  7.61E-05,  avg # of iterations =  3.4

     total cpu time spent up to now is       60.2 secs

     total energy              =    -827.61342648 Ry
     estimated scf accuracy    <       0.00298161 Ry

     iteration #  5     ecut=    35.00 Ry     beta= 0.70
     Davidson diagonalization with overlap
     ethr =  3.73E-06,  avg # of iterations =  5.0

     total cpu time spent up to now is       75.4 secs

     total energy              =    -827.61408904 Ry
     estimated scf accuracy    <       0.00080796 Ry

     iteration #  6     ecut=    35.00 Ry     beta= 0.70
     Davidson diagonalization with overlap
     ethr =  1.01E-06,  avg # of iterations =  2.1

     total cpu time spent up to now is       89.0 secs

     total energy              =    -827.61426728 Ry
     estimated scf accuracy    <       0.00004510 Ry

     iteration #  7     ecut=    35.00 Ry     beta= 0.70
     Davidson diagonalization with overlap
     ethr =  5.64E-08,  avg # of iterations =  5.0

     total cpu time spent up to now is      106.7 secs

     total energy              =    -827.61429841 Ry
     estimated scf accuracy    <       0.00000263 Ry

     iteration #  8     ecut=    35.00 Ry     beta= 0.70
     Davidson diagonalization with overlap
     ethr =  3.29E-09,  avg # of iterations =  2.9

     total cpu time spent up to now is      120.3 secs

     total energy              =    -827.61429929 Ry
     estimated scf accuracy    <       0.00000041 Ry

     iteration #  9     ecut=    35.00 Ry     beta= 0.70
     Davidson diagonalization with overlap
     ethr =  5.18E-10,  avg # of iterations =  2.9

     total cpu time spent up to now is      133.7 secs

     End of self-consistent calculation

          k = 0.0000 0.0000 0.0000 (  4957 PWs)   bands (ev):

   -13.2659 -13.2541 -13.2508 -13.2483 -13.2482 -13.2442 -13.2412 -13.2373
   -13.2330 -13.2320 -13.2315 -13.2243 -13.2170 -13.2105 -13.1960 -13.1910
   -13.1861 -13.1822 -13.1746 -13.1652  -5.7454  -5.3953  -4.6580  -4.1580
     0.8108   1.9487   2.5400   3.0755   3.2308   4.6642   4.7026   4.7773
     5.1830   5.2394   5.8119   6.3121   6.5369   6.9894   7.4014   7.5705
     8.8497  10.9520  11.1001  11.1327  11.3577  11.4514  12.3349  12.6300
    12.7032  12.7430

     occupation numbers 
     1.0000   1.0000   1.0000   1.0000   1.0000   1.0000   1.0000   1.0000
     1.0000   1.0000   1.0000   1.0000   1.0000   1.0000   1.0000   1.0000
     1.0000   1.0000   1.0000   1.0000   1.0000   1.0000   1.0000   1.0000
     1.0000   1.0000   1.0000   1.0000   1.0000   1.0000   1.0000   1.0000
     1.0000   1.0000   1.0000   1.0000   1.0000   1.0000   1.0000   1.0000
     0.0000   0.0000   0.0000   0.0000   0.0000   0.0000   0.0000   0.0000
     0.0000   0.0000

          k = 0.0000 0.0000 0.4269 (  4984 PWs)   bands (ev):

   -13.2643 -13.2527 -13.2510 -13.2496 -13.2473 -13.2462 -13.2418 -13.2381
   -13.2324 -13.2302 -13.2279 -13.2247 -13.2161 -13.2112 -13.1961 -13.1903
   -13.1872 -13.1830 -13.1739 -13.1658  -5.6272  -5.2870  -4.6445  -4.1899
     0.4462   1.7104   1.9313   2.6887   3.2168   4.8192   4.8451   5.3359
     5.3463   5.9068   5.9287   6.5190   6.5930   7.0997   7.4479   7.5877
     8.9718  10.0947  10.7263  10.9028  11.1421  11.4578  11.9017  12.0699
    12.5326  12.7686

     occupation numbers 
     1.0000   1.0000   1.0000   1.0000   1.0000   1.0000   1.0000   1.0000
     1.0000   1.0000   1.0000   1.0000   1.0000   1.0000   1.0000   1.0000
     1.0000   1.0000   1.0000   1.0000   1.0000   1.0000   1.0000   1.0000
     1.0000   1.0000   1.0000   1.0000   1.0000   1.0000   1.0000   1.0000
     1.0000   1.0000   1.0000   1.0000   1.0000   1.0000   1.0000   1.0000
     0.0000   0.0000   0.0000   0.0000   0.0000   0.0000   0.0000   0.0000
     0.0000   0.0000

          k = 0.0000 0.0000 0.8538 (  5004 PWs)   bands (ev):

   -13.2603 -13.2524 -13.2519 -13.2500 -13.2498 -13.2464 -13.2428 -13.2405
   -13.2304 -13.2259 -13.2241 -13.2215 -13.2153 -13.2132 -13.1953 -13.1897
   -13.1885 -13.1848 -13.1721 -13.1675  -5.3115  -4.9956  -4.6881  -4.3303
    -0.0229   0.8106   1.3646   1.9823   3.6445   5.0248   5.3395   5.7845
     6.1143   6.1252   6.3722   6.6092   6.8456   7.4424   7.5934   8.1005
     8.9976   9.5566   9.5825   9.7392  10.4729  10.5774  11.0925  11.2237
    11.9941  12.1201

     occupation numbers 
     1.0000   1.0000   1.0000   1.0000   1.0000   1.0000   1.0000   1.0000
     1.0000   1.0000   1.0000   1.0000   1.0000   1.0000   1.0000   1.0000
     1.0000   1.0000   1.0000   1.0000   1.0000   1.0000   1.0000   1.0000
     1.0000   1.0000   1.0000   1.0000   1.0000   1.0000   1.0000   1.0000
     1.0000   1.0000   1.0000   1.0000   1.0000   1.0000   1.0000   1.0000
     0.0000   0.0000   0.0000   0.0000   0.0000   0.0000   0.0000   0.0000
     0.0000   0.0000

          k = 0.0000 0.0000-1.2807 (  5044 PWs)   bands (ev):

   -13.2557 -13.2557 -13.2524 -13.2524 -13.2473 -13.2473 -13.2426 -13.2426
   -13.2280 -13.2280 -13.2178 -13.2178 -13.2165 -13.2165 -13.1928 -13.1928
   -13.1867 -13.1867 -13.1698 -13.1698  -4.9309  -4.9309  -4.6262  -4.6262
     0.0660   0.0660   1.4335   1.4335   4.3914   4.3914   5.9306   5.9306
     6.3076   6.3076   6.6801   6.6801   7.2614   7.2614   7.7980   7.7980
     9.3228   9.3228   9.6523   9.6523   9.7899   9.7899  10.7614  10.7614
    11.2259  11.2259

     occupation numbers 
     1.0000   1.0000   1.0000   1.0000   1.0000   1.0000   1.0000   1.0000
     1.0000   1.0000   1.0000   1.0000   1.0000   1.0000   1.0000   1.0000
     1.0000   1.0000   1.0000   1.0000   1.0000   1.0000   1.0000   1.0000
     1.0000   1.0000   1.0000   1.0000   1.0000   1.0000   1.0000   1.0000
     1.0000   1.0000   1.0000   1.0000   1.0000   1.0000   1.0000   1.0000
     0.0000   0.0000   0.0000   0.0000   0.0000   0.0000   0.0000   0.0000
     0.0000   0.0000

          k = 0.0000 0.4527 0.0000 (  4979 PWs)   bands (ev):

   -13.2598 -13.2520 -13.2504 -13.2475 -13.2460 -13.2456 -13.2452 -13.2399
   -13.2358 -13.2294 -13.2281 -13.2266 -13.2132 -13.2116 -13.1931 -13.1926
   -13.1857 -13.1841 -13.1746 -13.1674  -5.5972  -5.2698  -4.5961  -4.1694
     0.6095   1.5561   2.3404   2.3701   3.2411   4.6348   4.9629   5.0885
     5.1746   5.3997   6.1259   6.3953   6.5258   7.4136   7.4278   7.4288
     9.0707   9.9285  10.8652  11.1293  11.2218  11.4506  11.8186  11.8716
    12.5552  13.1385

     occupation numbers 
     1.0000   1.0000   1.0000   1.0000   1.0000   1.0000   1.0000   1.0000
     1.0000   1.0000   1.0000   1.0000   1.0000   1.0000   1.0000   1.0000
     1.0000   1.0000   1.0000   1.0000   1.0000   1.0000   1.0000   1.0000
     1.0000   1.0000   1.0000   1.0000   1.0000   1.0000   1.0000   1.0000
     1.0000   1.0000   1.0000   1.0000   1.0000   1.0000   1.0000   1.0000
     0.0000   0.0000   0.0000   0.0000   0.0000   0.0000   0.0000   0.0000
     0.0000   0.0000

          k = 0.0000 0.4527 0.4269 (  4984 PWs)   bands (ev):

   -13.2595 -13.2520 -13.2518 -13.2470 -13.2465 -13.2460 -13.2444 -13.2420
   -13.2351 -13.2282 -13.2266 -13.2241 -13.2139 -13.2109 -13.1936 -13.1916
   -13.1862 -13.1851 -13.1740 -13.1678  -5.4835  -5.1667  -4.5812  -4.1916
     0.4171   1.5344   1.8463   2.2901   3.3526   4.1011   4.3254   5.4223
     5.5926   5.9105   6.0310   6.3512   7.0713   7.2028   7.5519   7.6543
     9.1847   9.6446  10.1422  10.1813  11.1828  11.3145  11.8778  12.0792
    12.5648  12.9665

     occupation numbers 
     1.0000   1.0000   1.0000   1.0000   1.0000   1.0000   1.0000   1.0000
     1.0000   1.0000   1.0000   1.0000   1.0000   1.0000   1.0000   1.0000
     1.0000   1.0000   1.0000   1.0000   1.0000   1.0000   1.0000   1.0000
     1.0000   1.0000   1.0000   1.0000   1.0000   1.0000   1.0000   1.0000
     1.0000   1.0000   1.0000   1.0000   1.0000   1.0000   1.0000   1.0000
     0.0000   0.0000   0.0000   0.0000   0.0000   0.0000   0.0000   0.0000
     0.0000   0.0000

          k = 0.0000 0.4527 0.8538 (  5006 PWs)   bands (ev):

   -13.2592 -13.2557 -13.2512 -13.2486 -13.2468 -13.2461 -13.2452 -13.2431
   -13.2328 -13.2290 -13.2212 -13.2185 -13.2146 -13.2110 -13.1928 -13.1900
   -13.1880 -13.1868 -13.1725 -13.1689  -5.1832  -4.8931  -4.6146  -4.3023
     0.1281   0.9281   1.4478   1.9229   3.7929   4.0950   4.2793   5.3104
     5.4682   5.8011   6.2090   6.6200   7.0337   7.3120   7.3997   7.6192
     9.1865   9.4911   9.9490  10.2734  10.7647  11.1146  11.3048  12.3514
    12.6221  12.9044

     occupation numbers 
     1.0000   1.0000   1.0000   1.0000   1.0000   1.0000   1.0000   1.0000
     1.0000   1.0000   1.0000   1.0000   1.0000   1.0000   1.0000   1.0000
     1.0000   1.0000   1.0000   1.0000   1.0000   1.0000   1.0000   1.0000
     1.0000   1.0000   1.0000   1.0000   1.0000   1.0000   1.0000   1.0000
     1.0000   1.0000   1.0000   1.0000   1.0000   1.0000   1.0000   1.0000
     0.0000   0.0000   0.0000   0.0000   0.0000   0.0000   0.0000   0.0000
     0.0000   0.0000

          k = 0.0000 0.4527-1.2807 (  5004 PWs)   bands (ev):

   -13.2584 -13.2584 -13.2497 -13.2497 -13.2481 -13.2481 -13.2435 -13.2435
   -13.2306 -13.2306 -13.2166 -13.2166 -13.2135 -13.2135 -13.1906 -13.1906
   -13.1884 -13.1884 -13.1706 -13.1706  -4.8305  -4.8305  -4.5570  -4.5570
     0.2527   0.2527   1.5393   1.5393   4.3066   4.3066   4.7844   4.7844
     5.3264   5.3264   6.2952   6.2952   7.1477   7.1477   7.5553   7.5553
     9.2797   9.2797  10.0907  10.0907  11.2590  11.2590  11.7216  11.7216
    12.2944  12.2944

     occupation numbers 
     1.0000   1.0000   1.0000   1.0000   1.0000   1.0000   1.0000   1.0000
     1.0000   1.0000   1.0000   1.0000   1.0000   1.0000   1.0000   1.0000
     1.0000   1.0000   1.0000   1.0000   1.0000   1.0000   1.0000   1.0000
     1.0000   1.0000   1.0000   1.0000   1.0000   1.0000   1.0000   1.0000
     1.0000   1.0000   1.0000   1.0000   1.0000   1.0000   1.0000   1.0000
     0.0000   0.0000   0.0000   0.0000   0.0000   0.0000   0.0000   0.0000
     0.0000   0.0000

          k = 0.0000 0.9054 0.0000 (  4973 PWs)   bands (ev):

   -13.2565 -13.2539 -13.2532 -13.2512 -13.2427 -13.2426 -13.2409 -13.2368
   -13.2346 -13.2322 -13.2272 -13.2181 -13.2159 -13.2078 -13.1972 -13.1954
   -13.1862 -13.1797 -13.1743 -13.1719  -5.1942  -4.9492  -4.5086  -4.2998
     0.2649   1.0178   1.1503   1.6787   3.7028   4.9713   5.3126   5.4426
     5.5135   5.7676   6.3575   6.5070   6.8488   7.1979   7.3284   7.9132
     8.6732   9.5505   9.8462   9.8701  10.1039  10.6279  10.6765  11.5182
    11.8994  12.2767

     occupation numbers 
     1.0000   1.0000   1.0000   1.0000   1.0000   1.0000   1.0000   1.0000
     1.0000   1.0000   1.0000   1.0000   1.0000   1.0000   1.0000   1.0000
     1.0000   1.0000   1.0000   1.0000   1.0000   1.0000   1.0000   1.0000
     1.0000   1.0000   1.0000   1.0000   1.0000   1.0000   1.0000   1.0000
     1.0000   1.0000   1.0000   1.0000   1.0000   1.0000   1.0000   1.0000
     0.0000   0.0000   0.0000   0.0000   0.0000   0.0000   0.0000   0.0000
     0.0000   0.0000

          k = 0.0000 0.9054 0.4269 (  4970 PWs)   bands (ev):

   -13.2599 -13.2570 -13.2546 -13.2527 -13.2435 -13.2402 -13.2400 -13.2366
   -13.2333 -13.2318 -13.2253 -13.2166 -13.2160 -13.2078 -13.1966 -13.1949
   -13.1862 -13.1806 -13.1739 -13.1717  -5.0974  -4.8643  -4.4843  -4.2887
     0.3396   1.1584   1.2315   1.6069   3.8364   3.9317   4.2979   5.1347
     5.5228   5.8405   6.1383   6.4909   6.6526   7.1566   7.2961   7.3768
     9.1187   9.5077   9.6892  10.0190  10.8088  11.3542  11.5182  12.0205
    12.4957  12.8360

     occupation numbers 
     1.0000   1.0000   1.0000   1.0000   1.0000   1.0000   1.0000   1.0000
     1.0000   1.0000   1.0000   1.0000   1.0000   1.0000   1.0000   1.0000
     1.0000   1.0000   1.0000   1.0000   1.0000   1.0000   1.0000   1.0000
     1.0000   1.0000   1.0000   1.0000   1.0000   1.0000   1.0000   1.0000
     1.0000   1.0000   1.0000   1.0000   1.0000   1.0000   1.0000   1.0000
     0.0000   0.0000   0.0000   0.0000   0.0000   0.0000   0.0000   0.0000
     0.0000   0.0000

          k = 0.0000 0.9054 0.8538 (  4984 PWs)   bands (ev):

   -13.2651 -13.2629 -13.2579 -13.2568 -13.2423 -13.2391 -13.2377 -13.2364
   -13.2314 -13.2310 -13.2209 -13.2160 -13.2130 -13.2084 -13.1951 -13.1941
   -13.1856 -13.1823 -13.1729 -13.1716  -4.8535  -4.6516  -4.4738  -4.3026
     0.5072   1.1414   1.4843   1.5840   3.2533   3.6316   4.0734   4.3206
     4.8130   5.2022   5.5156   5.9064   6.2225   6.4867   6.9822   7.2684
     9.0698  10.7099  11.0513  11.2269  11.7019  11.7023  12.5128  12.6815
    13.0212  13.1342

     occupation numbers 
     1.0000   1.0000   1.0000   1.0000   1.0000   1.0000   1.0000   1.0000
     1.0000   1.0000   1.0000   1.0000   1.0000   1.0000   1.0000   1.0000
     1.0000   1.0000   1.0000   1.0000   1.0000   1.0000   1.0000   1.0000
     1.0000   1.0000   1.0000   1.0000   1.0000   1.0000   1.0000   1.0000
     1.0000   1.0000   1.0000   1.0000   1.0000   1.0000   1.0000   1.0000
     0.0000   0.0000   0.0000   0.0000   0.0000   0.0000   0.0000   0.0000
     0.0000   0.0000

          k = 0.0000 0.9054-1.2807 (  4974 PWs)   bands (ev):

   -13.2666 -13.2666 -13.2593 -13.2593 -13.2404 -13.2404 -13.2365 -13.2365
   -13.2305 -13.2305 -13.2173 -13.2173 -13.2099 -13.2099 -13.1940 -13.1940
   -13.1840 -13.1840 -13.1720 -13.1720  -4.5968  -4.5968  -4.4256  -4.4256
     0.7588   0.7588   1.6655   1.6655   3.4406   3.4406   3.8584   3.8584
     4.7525   4.7525   5.4203   5.4203   6.0378   6.0378   6.9419   6.9419
    10.0433  10.0433  11.6702  11.6702  12.7853  12.7853  12.8419  12.8419
    12.9950  12.9950

     occupation numbers 
     1.0000   1.0000   1.0000   1.0000   1.0000   1.0000   1.0000   1.0000
     1.0000   1.0000   1.0000   1.0000   1.0000   1.0000   1.0000   1.0000
     1.0000   1.0000   1.0000   1.0000   1.0000   1.0000   1.0000   1.0000
     1.0000   1.0000   1.0000   1.0000   1.0000   1.0000   1.0000   1.0000
     1.0000   1.0000   1.0000   1.0000   1.0000   1.0000   1.0000   1.0000
     0.0000   0.0000   0.0000   0.0000   0.0000   0.0000   0.0000   0.0000
     0.0000   0.0000

          k = 0.0000-1.3581 0.0000 (  4982 PWs)   bands (ev):

   -13.2582 -13.2582 -13.2542 -13.2542 -13.2394 -13.2394 -13.2375 -13.2375
   -13.2286 -13.2286 -13.2249 -13.2249 -13.2074 -13.2074 -13.2026 -13.2026
   -13.1782 -13.1782 -13.1757 -13.1757  -4.6812  -4.6812  -4.6177  -4.6177
     0.3597   0.3597   1.0565   1.0565   4.4856   4.4856   5.8505   5.8505
     5.8656   5.8656   6.3780   6.3780   7.1090   7.1090   7.3082   7.3082
     9.1107   9.1107   9.5461   9.5461   9.8210   9.8210  10.6276  10.6276
    11.3370  11.3370

     occupation numbers 
     1.0000   1.0000   1.0000   1.0000   1.0000   1.0000   1.0000   1.0000
     1.0000   1.0000   1.0000   1.0000   1.0000   1.0000   1.0000   1.0000
     1.0000   1.0000   1.0000   1.0000   1.0000   1.0000   1.0000   1.0000
     1.0000   1.0000   1.0000   1.0000   1.0000   1.0000   1.0000   1.0000
     1.0000   1.0000   1.0000   1.0000   1.0000   1.0000   1.0000   1.0000
     0.0000   0.0000   0.0000   0.0000   0.0000   0.0000   0.0000   0.0000
     0.0000   0.0000

          k = 0.0000-1.3581 0.4269 (  4968 PWs)   bands (ev):

   -13.2615 -13.2615 -13.2566 -13.2566 -13.2393 -13.2393 -13.2357 -13.2357
   -13.2282 -13.2282 -13.2235 -13.2235 -13.2082 -13.2082 -13.2006 -13.2006
   -13.1791 -13.1791 -13.1748 -13.1748  -4.6212  -4.6212  -4.5651  -4.5651
     0.5226   0.5226   1.1557   1.1557   4.3394   4.3394   4.6832   4.6832
     5.3964   5.3964   6.2251   6.2251   6.5250   6.5250   7.4501   7.4501
     8.9835   8.9835  10.1639  10.1639  11.0848  11.0848  11.6282  11.6282
    12.2888  12.2888

     occupation numbers 
     1.0000   1.0000   1.0000   1.0000   1.0000   1.0000   1.0000   1.0000
     1.0000   1.0000   1.0000   1.0000   1.0000   1.0000   1.0000   1.0000
     1.0000   1.0000   1.0000   1.0000   1.0000   1.0000   1.0000   1.0000
     1.0000   1.0000   1.0000   1.0000   1.0000   1.0000   1.0000   1.0000
     1.0000   1.0000   1.0000   1.0000   1.0000   1.0000   1.0000   1.0000
     0.0000   0.0000   0.0000   0.0000   0.0000   0.0000   0.0000   0.0000
     0.0000   0.0000

          k = 0.0000-1.3581 0.8538 (  4962 PWs)   bands (ev):

   -13.2679 -13.2679 -13.2614 -13.2614 -13.2388 -13.2388 -13.2331 -13.2331
   -13.2273 -13.2273 -13.2214 -13.2214 -13.2083 -13.2083 -13.1979 -13.1979
   -13.1798 -13.1798 -13.1739 -13.1739  -4.4920  -4.4920  -4.4576  -4.4576
     0.9503   0.9503   1.3625   1.3625   3.4452   3.4452   3.9827   3.9827
     4.6944   4.6944   5.5270   5.5270   5.7403   5.7403   6.9357   6.9357
    10.0281  10.0281  11.5341  11.5341  12.5156  12.5156  12.6274  12.6274
    12.8947  12.8947

     occupation numbers 
     1.0000   1.0000   1.0000   1.0000   1.0000   1.0000   1.0000   1.0000
     1.0000   1.0000   1.0000   1.0000   1.0000   1.0000   1.0000   1.0000
     1.0000   1.0000   1.0000   1.0000   1.0000   1.0000   1.0000   1.0000
     1.0000   1.0000   1.0000   1.0000   1.0000   1.0000   1.0000   1.0000
     1.0000   1.0000   1.0000   1.0000   1.0000   1.0000   1.0000   1.0000
     0.0000   0.0000   0.0000   0.0000   0.0000   0.0000   0.0000   0.0000
     0.0000   0.0000

          k = 0.0000-1.3581-1.2807 (  4972 PWs)   bands (ev):

   -13.2709 -13.2709 -13.2637 -13.2637 -13.2387 -13.2387 -13.2320 -13.2320
   -13.2267 -13.2267 -13.2207 -13.2207 -13.2078 -13.2078 -13.1968 -13.1968
   -13.1799 -13.1799 -13.1735 -13.1735  -4.4172  -4.4172  -4.4074  -4.4074
     1.2907   1.2907   1.4408   1.4408   3.0380   3.0380   3.5540   3.5540
     4.4690   4.4690   4.9504   4.9504   5.8022   5.8022   6.6442   6.6442
    10.8683  10.8683  11.1762  11.1762  12.8458  12.8458  12.9786  12.9786
    13.7137  13.7137

     occupation numbers 
     1.0000   1.0000   1.0000   1.0000   1.0000   1.0000   1.0000   1.0000
     1.0000   1.0000   1.0000   1.0000   1.0000   1.0000   1.0000   1.0000
     1.0000   1.0000   1.0000   1.0000   1.0000   1.0000   1.0000   1.0000
     1.0000   1.0000   1.0000   1.0000   1.0000   1.0000   1.0000   1.0000
     1.0000   1.0000   1.0000   1.0000   1.0000   1.0000   1.0000   1.0000
     0.0000   0.0000   0.0000   0.0000   0.0000   0.0000   0.0000   0.0000
     0.0000   0.0000

          k =-0.5000 0.0000 0.0000 (  4980 PWs)   bands (ev):

   -13.2602 -13.2602 -13.2502 -13.2502 -13.2469 -13.2469 -13.2385 -13.2385
   -13.2310 -13.2310 -13.2292 -13.2292 -13.2138 -13.2138 -13.1934 -13.1934
   -13.1840 -13.1840 -13.1695 -13.1695  -5.6057  -5.6057  -4.3729  -4.3729
     1.1510   1.1510   3.0236   3.0236   4.0133   4.0133   4.8559   4.8559
     5.2135   5.2135   6.0086   6.0086   6.2399   6.2399   7.5336   7.5336
    10.6763  10.6763  10.8768  10.8768  11.7689  11.7689  12.0000  12.0000
    13.0955  13.0955

     occupation numbers 
     1.0000   1.0000   1.0000   1.0000   1.0000   1.0000   1.0000   1.0000
     1.0000   1.0000   1.0000   1.0000   1.0000   1.0000   1.0000   1.0000
     1.0000   1.0000   1.0000   1.0000   1.0000   1.0000   1.0000   1.0000
     1.0000   1.0000   1.0000   1.0000   1.0000   1.0000   1.0000   1.0000
     1.0000   1.0000   1.0000   1.0000   1.0000   1.0000   1.0000   1.0000
     0.0000   0.0000   0.0000   0.0000   0.0000   0.0000   0.0000   0.0000
     0.0000   0.0000

          k =-0.5000 0.0000 0.4269 (  4984 PWs)   bands (ev):

   -13.2592 -13.2592 -13.2492 -13.2492 -13.2481 -13.2481 -13.2398 -13.2398
   -13.2287 -13.2287 -13.2283 -13.2283 -13.2139 -13.2139 -13.1933 -13.1933
   -13.1848 -13.1848 -13.1696 -13.1696  -5.4925  -5.4925  -4.3817  -4.3817
     0.8263   0.8263   2.4655   2.4655   4.2527   4.2527   5.0303   5.0303
     5.4499   5.4499   6.3251   6.3251   6.5537   6.5537   7.4489   7.4489
    10.3862  10.3862  11.0382  11.0382  11.0724  11.0724  11.5714  11.5714
    12.9469  12.9470

     occupation numbers 
     1.0000   1.0000   1.0000   1.0000   1.0000   1.0000   1.0000   1.0000
     1.0000   1.0000   1.0000   1.0000   1.0000   1.0000   1.0000   1.0000
     1.0000   1.0000   1.0000   1.0000   1.0000   1.0000   1.0000   1.0000
     1.0000   1.0000   1.0000   1.0000   1.0000   1.0000   1.0000   1.0000
     1.0000   1.0000   1.0000   1.0000   1.0000   1.0000   1.0000   1.0000
     0.0000   0.0000   0.0000   0.0000   0.0000   0.0000   0.0000   0.0000
     0.0000   0.0000

          k =-0.5000 0.0000 0.8538 (  4992 PWs)   bands (ev):

   -13.2569 -13.2569 -13.2505 -13.2505 -13.2478 -13.2478 -13.2425 -13.2425
   -13.2278 -13.2278 -13.2224 -13.2224 -13.2146 -13.2146 -13.1928 -13.1928
   -13.1862 -13.1862 -13.1697 -13.1697  -5.1947  -5.1947  -4.4685  -4.4685
     0.3274   0.3274   1.6293   1.6293   4.6963   4.6963   5.5000   5.5000
     5.8616   5.8616   6.4278   6.4278   6.9834   6.9834   7.7566   7.7566
     9.5841   9.5841  10.0729  10.0729  10.4139  10.4139  11.5184  11.5185
    11.7121  11.7121

     occupation numbers 
     1.0000   1.0000   1.0000   1.0000   1.0000   1.0000   1.0000   1.0000
     1.0000   1.0000   1.0000   1.0000   1.0000   1.0000   1.0000   1.0000
     1.0000   1.0000   1.0000   1.0000   1.0000   1.0000   1.0000   1.0000
     1.0000   1.0000   1.0000   1.0000   1.0000   1.0000   1.0000   1.0000
     1.0000   1.0000   1.0000   1.0000   1.0000   1.0000   1.0000   1.0000
     0.0000   0.0000   0.0000   0.0000   0.0000   0.0000   0.0000   0.0000
     0.0000   0.0000

          k =-0.5000 0.0000-1.2807 (  5016 PWs)   bands (ev):

   -13.2555 -13.2555 -13.2517 -13.2517 -13.2476 -13.2476 -13.2438 -13.2438
   -13.2275 -13.2275 -13.2174 -13.2174 -13.2168 -13.2168 -13.1924 -13.1924
   -13.1869 -13.1869 -13.1698 -13.1698  -4.9278  -4.9278  -4.6306  -4.6306
     0.1458   0.1458   1.2468   1.2468   5.2436   5.2436   5.4913   5.4913
     5.9439   5.9439   6.2880   6.2880   7.5419   7.5419   7.8132   7.8132
     9.3026   9.3026   9.7155   9.7155   9.7714   9.7714  11.1188  11.1188
    11.4689  11.4689

     occupation numbers 
     1.0000   1.0000   1.0000   1.0000   1.0000   1.0000   1.0000   1.0000
     1.0000   1.0000   1.0000   1.0000   1.0000   1.0000   1.0000   1.0000
     1.0000   1.0000   1.0000   1.0000   1.0000   1.0000   1.0000   1.0000
     1.0000   1.0000   1.0000   1.0000   1.0000   1.0000   1.0000   1.0000
     1.0000   1.0000   1.0000   1.0000   1.0000   1.0000   1.0000   1.0000
     0.0000   0.0000   0.0000   0.0000   0.0000   0.0000   0.0000   0.0000
     0.0000   0.0000

          k =-0.5000 0.4527 0.0000 (  4984 PWs)   bands (ev):

   -13.2558 -13.2558 -13.2491 -13.2491 -13.2472 -13.2472 -13.2417 -13.2417
   -13.2321 -13.2321 -13.2274 -13.2274 -13.2127 -13.2127 -13.1922 -13.1922
   -13.1853 -13.1853 -13.1708 -13.1708  -5.4658  -5.4658  -4.3497  -4.3497
     0.9294   0.9294   2.4353   2.4353   4.1476   4.1476   4.8579   4.8579
     5.5300   5.5300   6.1250   6.1250   6.3954   6.3954   7.5919   7.5919
    10.3749  10.3749  10.8685  10.8685  11.3503  11.3503  11.5982  11.5982
    12.8766  12.8766

     occupation numbers 
     1.0000   1.0000   1.0000   1.0000   1.0000   1.0000   1.0000   1.0000
     1.0000   1.0000   1.0000   1.0000   1.0000   1.0000   1.0000   1.0000
     1.0000   1.0000   1.0000   1.0000   1.0000   1.0000   1.0000   1.0000
     1.0000   1.0000   1.0000   1.0000   1.0000   1.0000   1.0000   1.0000
     1.0000   1.0000   1.0000   1.0000   1.0000   1.0000   1.0000   1.0000
     0.0000   0.0000   0.0000   0.0000   0.0000   0.0000   0.0000   0.0000
     0.0000   0.0000

          k =-0.5000 0.4527 0.4269 (  4980 PWs)   bands (ev):

   -13.2559 -13.2559 -13.2503 -13.2503 -13.2464 -13.2464 -13.2426 -13.2426
   -13.2315 -13.2315 -13.2250 -13.2250 -13.2127 -13.2127 -13.1920 -13.1920
   -13.1861 -13.1861 -13.1706 -13.1706  -5.3573  -5.3573  -4.3535  -4.3535
     0.7830   0.7830   2.1682   2.1682   4.1300   4.1300   4.6535   4.6535
     5.4444   5.4444   6.2621   6.2621   7.0755   7.0755   7.5534   7.5534
     9.6836   9.6836  10.7549  10.7549  11.2327  11.2327  11.6453  11.6453
    12.4776  12.4776

     occupation numbers 
     1.0000   1.0000   1.0000   1.0000   1.0000   1.0000   1.0000   1.0000
     1.0000   1.0000   1.0000   1.0000   1.0000   1.0000   1.0000   1.0000
     1.0000   1.0000   1.0000   1.0000   1.0000   1.0000   1.0000   1.0000
     1.0000   1.0000   1.0000   1.0000   1.0000   1.0000   1.0000   1.0000
     1.0000   1.0000   1.0000   1.0000   1.0000   1.0000   1.0000   1.0000
     0.0000   0.0000   0.0000   0.0000   0.0000   0.0000   0.0000   0.0000
     0.0000   0.0000

          k =-0.5000 0.4527 0.8538 (  4996 PWs)   bands (ev):

   -13.2566 -13.2566 -13.2526 -13.2526 -13.2454 -13.2454 -13.2433 -13.2433
   -13.2306 -13.2306 -13.2201 -13.2201 -13.2129 -13.2129 -13.1912 -13.1912
   -13.1880 -13.1880 -13.1703 -13.1703  -5.0751  -5.0751  -4.4217  -4.4217
     0.4680   0.4680   1.6532   1.6532   4.1810   4.1810   4.9878   4.9878
     5.2402   5.2402   6.4372   6.4372   6.8974   6.8974   7.5446   7.5446
     9.7401   9.7401  10.3764  10.3764  10.9210  10.9210  11.5657  11.5657
    12.5068  12.5068

     occupation numbers 
     1.0000   1.0000   1.0000   1.0000   1.0000   1.0000   1.0000   1.0000
     1.0000   1.0000   1.0000   1.0000   1.0000   1.0000   1.0000   1.0000
     1.0000   1.0000   1.0000   1.0000   1.0000   1.0000   1.0000   1.0000
     1.0000   1.0000   1.0000   1.0000   1.0000   1.0000   1.0000   1.0000
     1.0000   1.0000   1.0000   1.0000   1.0000   1.0000   1.0000   1.0000
     0.0000   0.0000   0.0000   0.0000   0.0000   0.0000   0.0000   0.0000
     0.0000   0.0000

          k =-0.5000 0.4527-1.2807 (  5000 PWs)   bands (ev):

   -13.2573 -13.2573 -13.2536 -13.2536 -13.2454 -13.2454 -13.2431 -13.2431
   -13.2302 -13.2302 -13.2171 -13.2171 -13.2133 -13.2133 -13.1900 -13.1900
   -13.1896 -13.1896 -13.1702 -13.1702  -4.8277  -4.8277  -4.5609  -4.5609
     0.3226   0.3226   1.3807   1.3807   4.5930   4.5930   4.7888   4.7888
     5.5562   5.5562   5.9754   5.9754   6.8253   6.8253   7.3421   7.3421
    10.2024  10.2024  10.2596  10.2596  10.7885  10.7885  11.5282  11.5282
    12.4455  12.4455

     occupation numbers 
     1.0000   1.0000   1.0000   1.0000   1.0000   1.0000   1.0000   1.0000
     1.0000   1.0000   1.0000   1.0000   1.0000   1.0000   1.0000   1.0000
     1.0000   1.0000   1.0000   1.0000   1.0000   1.0000   1.0000   1.0000
     1.0000   1.0000   1.0000   1.0000   1.0000   1.0000   1.0000   1.0000
     1.0000   1.0000   1.0000   1.0000   1.0000   1.0000   1.0000   1.0000
     0.0000   0.0000   0.0000   0.0000   0.0000   0.0000   0.0000   0.0000
     0.0000   0.0000

          k =-0.5000 0.9054 0.0000 (  4990 PWs)   bands (ev):

   -13.2561 -13.2561 -13.2514 -13.2514 -13.2418 -13.2418 -13.2405 -13.2405
   -13.2327 -13.2327 -13.2240 -13.2240 -13.2104 -13.2104 -13.1967 -13.1967
   -13.1826 -13.1826 -13.1731 -13.1731  -5.0933  -5.0933  -4.3816  -4.3816
     0.5644   0.5644   1.4042   1.4042   4.6055   4.6055   5.2267   5.2267
     5.9047   5.9047   6.2327   6.2327   6.5495   6.5495   7.6371   7.6371
     9.2249   9.2249  10.1312  10.1312  10.8911  10.8911  11.2862  11.2862
    11.6740  11.6740

     occupation numbers 
     1.0000   1.0000   1.0000   1.0000   1.0000   1.0000   1.0000   1.0000
     1.0000   1.0000   1.0000   1.0000   1.0000   1.0000   1.0000   1.0000
     1.0000   1.0000   1.0000   1.0000   1.0000   1.0000   1.0000   1.0000
     1.0000   1.0000   1.0000   1.0000   1.0000   1.0000   1.0000   1.0000
     1.0000   1.0000   1.0000   1.0000   1.0000   1.0000   1.0000   1.0000
     0.0000   0.0000   0.0000   0.0000   0.0000   0.0000   0.0000   0.0000
     0.0000   0.0000

          k =-0.5000 0.9054 0.4269 (  4988 PWs)   bands (ev):

   -13.2584 -13.2584 -13.2539 -13.2539 -13.2410 -13.2410 -13.2395 -13.2395
   -13.2319 -13.2319 -13.2226 -13.2226 -13.2100 -13.2100 -13.1965 -13.1965
   -13.1828 -13.1828 -13.1728 -13.1728  -5.0020  -5.0020  -4.3648  -4.3648
     0.6607   0.6607   1.4304   1.4304   4.0809   4.0809   4.9042   4.9042
     5.3414   5.3414   6.3185   6.3185   6.6198   6.6198   7.3890   7.3890
     9.7138   9.7138  10.0901  10.0901  11.1657  11.1657  11.5651  11.5651
    12.0999  12.0999

     occupation numbers 
     1.0000   1.0000   1.0000   1.0000   1.0000   1.0000   1.0000   1.0000
     1.0000   1.0000   1.0000   1.0000   1.0000   1.0000   1.0000   1.0000
     1.0000   1.0000   1.0000   1.0000   1.0000   1.0000   1.0000   1.0000
     1.0000   1.0000   1.0000   1.0000   1.0000   1.0000   1.0000   1.0000
     1.0000   1.0000   1.0000   1.0000   1.0000   1.0000   1.0000   1.0000
     0.0000   0.0000   0.0000   0.0000   0.0000   0.0000   0.0000   0.0000
     0.0000   0.0000

          k =-0.5000 0.9054 0.8538 (  4996 PWs)   bands (ev):

   -13.2630 -13.2630 -13.2587 -13.2587 -13.2400 -13.2400 -13.2378 -13.2378
   -13.2303 -13.2303 -13.2202 -13.2202 -13.2086 -13.2086 -13.1962 -13.1962
   -13.1831 -13.1831 -13.1723 -13.1723  -4.7760  -4.7760  -4.3648  -4.3648
     0.7957   0.7957   1.5059   1.5059   3.4930   3.4930   4.3751   4.3751
     4.9029   4.9029   5.5647   5.5647   6.3446   6.3446   7.0951   7.0951
    10.4149  10.4149  11.0020  11.0020  11.1986  11.1986  12.4982  12.4982
    12.6828  12.6828

     occupation numbers 
     1.0000   1.0000   1.0000   1.0000   1.0000   1.0000   1.0000   1.0000
     1.0000   1.0000   1.0000   1.0000   1.0000   1.0000   1.0000   1.0000
     1.0000   1.0000   1.0000   1.0000   1.0000   1.0000   1.0000   1.0000
     1.0000   1.0000   1.0000   1.0000   1.0000   1.0000   1.0000   1.0000
     1.0000   1.0000   1.0000   1.0000   1.0000   1.0000   1.0000   1.0000
     0.0000   0.0000   0.0000   0.0000   0.0000   0.0000   0.0000   0.0000
     0.0000   0.0000

          k =-0.5000 0.9054-1.2807 (  4984 PWs)   bands (ev):

   -13.2652 -13.2652 -13.2610 -13.2610 -13.2396 -13.2396 -13.2372 -13.2372
   -13.2296 -13.2296 -13.2192 -13.2192 -13.2075 -13.2075 -13.1960 -13.1960
   -13.1832 -13.1832 -13.1720 -13.1720  -4.5950  -4.5950  -4.4278  -4.4278
     0.7943   0.7943   1.5954   1.5954   3.6153   3.6153   3.7075   3.7075
     4.9717   4.9717   5.0535   5.0535   6.3817   6.3817   6.7353   6.7353
    10.4918  10.4918  11.2701  11.2701  12.1376  12.1376  12.2371  12.2371
    13.5865  13.5866

     occupation numbers 
     1.0000   1.0000   1.0000   1.0000   1.0000   1.0000   1.0000   1.0000
     1.0000   1.0000   1.0000   1.0000   1.0000   1.0000   1.0000   1.0000
     1.0000   1.0000   1.0000   1.0000   1.0000   1.0000   1.0000   1.0000
     1.0000   1.0000   1.0000   1.0000   1.0000   1.0000   1.0000   1.0000
     1.0000   1.0000   1.0000   1.0000   1.0000   1.0000   1.0000   1.0000
     0.0000   0.0000   0.0000   0.0000   0.0000   0.0000   0.0000   0.0000
     0.0000   0.0000

          k =-0.5000-1.3581 0.0000 (  4940 PWs)   bands (ev):

   -13.2563 -13.2563 -13.2563 -13.2563 -13.2386 -13.2386 -13.2386 -13.2386
   -13.2264 -13.2264 -13.2264 -13.2264 -13.2049 -13.2049 -13.2049 -13.2049
   -13.1769 -13.1769 -13.1769 -13.1769  -4.6500  -4.6500  -4.6500  -4.6500
     0.6673   0.6673   0.6673   0.6673   5.3025   5.3025   5.3025   5.3025
     5.9780   5.9780   5.9780   5.9780   7.0683   7.0683   7.0683   7.0683
     9.5798   9.5798   9.5798   9.5798  10.2427  10.2427  10.2427  10.2427
    12.0017  12.0017

     occupation numbers 
     1.0000   1.0000   1.0000   1.0000   1.0000   1.0000   1.0000   1.0000
     1.0000   1.0000   1.0000   1.0000   1.0000   1.0000   1.0000   1.0000
     1.0000   1.0000   1.0000   1.0000   1.0000   1.0000   1.0000   1.0000
     1.0000   1.0000   1.0000   1.0000   1.0000   1.0000   1.0000   1.0000
     1.0000   1.0000   1.0000   1.0000   1.0000   1.0000   1.0000   1.0000
     0.0000   0.0000   0.0000   0.0000   0.0000   0.0000   0.0000   0.0000
     0.0000   0.0000

          k =-0.5000-1.3581 0.4269 (  4964 PWs)   bands (ev):

   -13.2592 -13.2592 -13.2592 -13.2592 -13.2377 -13.2377 -13.2377 -13.2377
   -13.2258 -13.2258 -13.2258 -13.2258 -13.2043 -13.2043 -13.2043 -13.2043
   -13.1768 -13.1768 -13.1768 -13.1768  -4.5936  -4.5936  -4.5936  -4.5936
     0.8044   0.8044   0.8044   0.8044   4.6677   4.6677   4.6677   4.6677
     5.6444   5.6444   5.6444   5.6444   6.8407   6.8407   6.8407   6.8407
     9.9104   9.9104   9.9104   9.9104  11.3283  11.3283  11.3283  11.3283
    12.2342  12.2342

     occupation numbers 
     1.0000   1.0000   1.0000   1.0000   1.0000   1.0000   1.0000   1.0000
     1.0000   1.0000   1.0000   1.0000   1.0000   1.0000   1.0000   1.0000
     1.0000   1.0000   1.0000   1.0000   1.0000   1.0000   1.0000   1.0000
     1.0000   1.0000   1.0000   1.0000   1.0000   1.0000   1.0000   1.0000
     1.0000   1.0000   1.0000   1.0000   1.0000   1.0000   1.0000   1.0000
     0.0000   0.0000   0.0000   0.0000   0.0000   0.0000   0.0000   0.0000
     0.0000   0.0000

          k =-0.5000-1.3581 0.8538 (  4984 PWs)   bands (ev):

   -13.2646 -13.2646 -13.2646 -13.2646 -13.2366 -13.2366 -13.2366 -13.2366
   -13.2244 -13.2244 -13.2244 -13.2244 -13.2027 -13.2027 -13.2027 -13.2027
   -13.1766 -13.1766 -13.1766 -13.1766  -4.4749  -4.4749  -4.4749  -4.4749
     1.1364   1.1364   1.1364   1.1364   3.7648   3.7648   3.7648   3.7648
     4.8589   4.8589   4.8589   4.8589   6.5654   6.5654   6.5654   6.5654
    10.7499  10.7499  10.7499  10.7499  11.9958  11.9958  11.9958  11.9958
    13.7603  13.7603

     occupation numbers 
     1.0000   1.0000   1.0000   1.0000   1.0000   1.0000   1.0000   1.0000
     1.0000   1.0000   1.0000   1.0000   1.0000   1.0000   1.0000   1.0000
     1.0000   1.0000   1.0000   1.0000   1.0000   1.0000   1.0000   1.0000
     1.0000   1.0000   1.0000   1.0000   1.0000   1.0000   1.0000   1.0000
     1.0000   1.0000   1.0000   1.0000   1.0000   1.0000   1.0000   1.0000
     0.0000   0.0000   0.0000   0.0000   0.0000   0.0000   0.0000   0.0000
     0.0000   0.0000

          k =-0.5000-1.3581-1.2807 (  4968 PWs)   bands (ev):

   -13.2673 -13.2673 -13.2673 -13.2673 -13.2363 -13.2363 -13.2363 -13.2363
   -13.2236 -13.2236 -13.2236 -13.2236 -13.2018 -13.2018 -13.2018 -13.2018
   -13.1764 -13.1764 -13.1764 -13.1764  -4.4123  -4.4123  -4.4123  -4.4123
     1.3468   1.3468   1.3468   1.3468   3.4565   3.4565   3.4565   3.4565
     4.3164   4.3164   4.3164   4.3164   6.5963   6.5963   6.5963   6.5963
    10.6253  10.6253  10.6253  10.6253  12.8405  12.8405  12.8405  12.8405
    14.6057  14.6057

     occupation numbers 
     1.0000   1.0000   1.0000   1.0000   1.0000   1.0000   1.0000   1.0000
     1.0000   1.0000   1.0000   1.0000   1.0000   1.0000   1.0000   1.0000
     1.0000   1.0000   1.0000   1.0000   1.0000   1.0000   1.0000   1.0000
     1.0000   1.0000   1.0000   1.0000   1.0000   1.0000   1.0000   1.0000
     1.0000   1.0000   1.0000   1.0000   1.0000   1.0000   1.0000   1.0000
     0.0000   0.0000   0.0000   0.0000   0.0000   0.0000   0.0000   0.0000
     0.0000   0.0000

     highest occupied, lowest unoccupied level (ev):     8.1005    8.6732

!    total energy              =    -827.61429941 Ry
     estimated scf accuracy    <          1.1E-09 Ry

     The total energy is the sum of the following terms:
     one-electron contribution =    -256.99525075 Ry
     hartree contribution      =     179.11187529 Ry
     xc contribution           =    -309.12610775 Ry
     ewald contribution        =    -440.60481620 Ry

     convergence has been achieved in   9 iterations

     Forces acting on atoms (cartesian axes, Ry/au):

     atom    1 type  2   force =     0.00810534    0.00000000   -0.00039879
     atom    2 type  1   force =    -0.00741533    0.00000000   -0.00109709
     atom    3 type  2   force =    -0.00810534    0.00000000   -0.00039879
     atom    4 type  1   force =     0.00741533    0.00000000   -0.00109709
     atom    5 type  2   force =     0.00810534    0.00000000    0.00039879
     atom    6 type  1   force =    -0.00741533    0.00000000    0.00109709
     atom    7 type  2   force =    -0.00810534    0.00000000    0.00039879
     atom    8 type  1   force =     0.00741533    0.00000000    0.00109709
     The non-local contrib.  to forces
     atom    1 type  2   force =    -0.11875990    0.00000000    0.09627774
     atom    2 type  1   force =     0.37332282    0.00000000    0.26604993
     atom    3 type  2   force =     0.11875990    0.00000000    0.09627774
     atom    4 type  1   force =    -0.37332282    0.00000000    0.26604993
     atom    5 type  2   force =    -0.11875990    0.00000000   -0.09627774
     atom    6 type  1   force =     0.37332282    0.00000000   -0.26604993
     atom    7 type  2   force =     0.11875990    0.00000000   -0.09627774
     atom    8 type  1   force =    -0.37332282    0.00000000   -0.26604993
     The ionic contribution  to forces
     atom    1 type  2   force =     1.53473235    0.00000000   -1.05154455
     atom    2 type  1   force =    -1.03769718    0.00000000   -0.57506129
     atom    3 type  2   force =    -1.53473235    0.00000000   -1.05154455
     atom    4 type  1   force =     1.03769718   -0.00000000   -0.57506129
     atom    5 type  2   force =     1.53473235    0.00000000    1.05154455
     atom    6 type  1   force =    -1.03769718   -0.00000000    0.57506129
     atom    7 type  2   force =    -1.53473235   -0.00000000    1.05154455
     atom    8 type  1   force =     1.03769718    0.00000000    0.57506129
     The local contribution  to forces
     atom    1 type  2   force =    -1.42100274   -0.00000000    0.96554860
     atom    2 type  1   force =     0.66278043   -0.00000000    0.31224973
     atom    3 type  2   force =     1.42100274   -0.00000000    0.96554860
     atom    4 type  1   force =    -0.66278043    0.00000000    0.31224973
     atom    5 type  2   force =    -1.42100274    0.00000000   -0.96554860
     atom    6 type  1   force =     0.66278043    0.00000000   -0.31224973
     atom    7 type  2   force =     1.42100274    0.00000000   -0.96554860
     atom    8 type  1   force =    -0.66278043    0.00000000   -0.31224973
     The core correction contribution to forces
     atom    1 type  2   force =     0.01310777   -0.00000000   -0.01068114
     atom    2 type  1   force =    -0.00577225   -0.00000000   -0.00437111
     atom    3 type  2   force =    -0.01310777   -0.00000000   -0.01068114
     atom    4 type  1   force =     0.00577225    0.00000000   -0.00437111
     atom    5 type  2   force =     0.01310777   -0.00000000    0.01068114
     atom    6 type  1   force =    -0.00577225   -0.00000000    0.00437111
     atom    7 type  2   force =    -0.01310777   -0.00000000    0.01068114
     atom    8 type  1   force =     0.00577225    0.00000000    0.00437111
     The Hubbard contrib.    to forces
     atom    1 type  2   force =     0.00000000    0.00000000    0.00000000
     atom    2 type  1   force =     0.00000000    0.00000000    0.00000000
     atom    3 type  2   force =     0.00000000    0.00000000    0.00000000
     atom    4 type  1   force =     0.00000000    0.00000000    0.00000000
     atom    5 type  2   force =     0.00000000    0.00000000    0.00000000
     atom    6 type  1   force =     0.00000000    0.00000000    0.00000000
     atom    7 type  2   force =     0.00000000    0.00000000    0.00000000
     atom    8 type  1   force =     0.00000000    0.00000000    0.00000000
     The SCF correction term to forces
     atom    1 type  2   force =     0.00002786   -0.00000000    0.00000056
     atom    2 type  1   force =    -0.00004915   -0.00000000    0.00003565
     atom    3 type  2   force =    -0.00002786    0.00000000    0.00000056
     atom    4 type  1   force =     0.00004915   -0.00000000    0.00003565
     atom    5 type  2   force =     0.00002786    0.00000000   -0.00000056
     atom    6 type  1   force =    -0.00004915    0.00000000   -0.00003565
     atom    7 type  2   force =    -0.00002786    0.00000000   -0.00000056
     atom    8 type  1   force =     0.00004915   -0.00000000   -0.00003565

     Total force =     0.022095     Total SCF correction =     0.000134

     Writing output data file ./tmp/SnSe_pnma.save/

     init_run     :      5.87s CPU      5.18s WALL (       1 calls)
     electrons    :    146.53s CPU    127.39s WALL (       1 calls)
     forces       :      3.79s CPU      3.55s WALL (       1 calls)

     Called by init_run:
     wfcinit      :      3.27s CPU      2.50s WALL (       1 calls)
     wfcinit:atom :      0.04s CPU      0.03s WALL (       8 calls)
     wfcinit:wfcr :      2.97s CPU      2.28s WALL (       8 calls)
     potinit      :      0.67s CPU      0.72s WALL (       1 calls)
     hinit0       :      1.23s CPU      1.25s WALL (       1 calls)

     Called by electrons:
     c_bands      :    116.31s CPU     97.70s WALL (       9 calls)
     sum_band     :     20.03s CPU     18.07s WALL (       9 calls)
     v_of_rho     :      2.59s CPU      2.84s WALL (      10 calls)
     v_h          :      0.20s CPU      0.20s WALL (      10 calls)
     v_xc         :      2.65s CPU      2.91s WALL (      11 calls)
     newd         :      7.72s CPU      8.98s WALL (      10 calls)
     mix_rho      :      0.41s CPU      0.40s WALL (       9 calls)

     Called by c_bands:
     init_us_2    :      1.12s CPU      0.87s WALL (     160 calls)
     cegterg      :     87.78s CPU     73.37s WALL (      72 calls)

     Called by sum_band:
     sum_band:wei :      0.00s CPU      0.00s WALL (       9 calls)
     sum_band:loo :     13.29s CPU     12.04s WALL (       9 calls)
     sum_band:buf :      0.09s CPU      0.07s WALL (      72 calls)
     sum_band:ini :      0.52s CPU      0.40s WALL (      72 calls)
     sum_band:cal :      2.55s CPU      3.66s WALL (      72 calls)
     sum_band:bec :      0.01s CPU      0.01s WALL (      72 calls)
     addusdens    :      4.32s CPU      3.99s WALL (       9 calls)
     addusd:skk   :      0.02s CPU      0.03s WALL (      18 calls)
     addusd:dgemm :      1.72s CPU      1.28s WALL (      18 calls)
     addusd:qvan2 :      2.12s CPU      1.79s WALL (      18 calls)

     Called by *egterg:
     cdiaghg      :      5.81s CPU      7.46s WALL (     308 calls)
     cegterg:over :      8.43s CPU      9.02s WALL (     236 calls)
     cegterg:upda :      3.02s CPU      1.43s WALL (     236 calls)
     cegterg:last :      5.20s CPU      1.61s WALL (     150 calls)
     h_psi        :     56.84s CPU     46.01s WALL (     316 calls)
     s_psi        :      5.36s CPU      1.57s WALL (     316 calls)
     g_psi        :      0.47s CPU      0.33s WALL (     236 calls)

     Called by h_psi:
     h_psi:calbec :      7.33s CPU      7.75s WALL (     316 calls)
     vloc_psi     :     43.60s CPU     35.99s WALL (     316 calls)
     add_vuspsi   :      5.44s CPU      1.61s WALL (     316 calls)

     General routines
     calbec       :     10.73s CPU     11.96s WALL (     420 calls)
     fft          :      2.31s CPU      2.30s WALL (     139 calls)
     ffts         :      0.05s CPU      0.04s WALL (      19 calls)
     fftw         :     47.29s CPU     38.89s WALL (   22940 calls)
     interpolate  :      0.19s CPU      0.19s WALL (      10 calls)

     Parallel routines

     PWSCF        :   2m37.38s CPU   2m17.35s WALL


   This run was terminated on:  18:50:31   5May2026            

=------------------------------------------------------------------------------=
   JOB DONE.
=------------------------------------------------------------------------------=
