
     Program PWSCF v.6.7MaX starts on  5May2026 at 18:53: 0 

     This program is part of the open-source Quantum ESPRESSO suite
     for quantum simulation of materials; please cite
         "P. Giannozzi et al., J. Phys.:Condens. Matter 21 395502 (2009);
         "P. Giannozzi et al., J. Phys.:Condens. Matter 29 465901 (2017);
          URL http://www.quantum-espresso.org", 
     in publications or presentations arising from this work. More details at
     http://www.quantum-espresso.org/quote

     Parallel version (MPI), running on     4 processors

     MPI processes distributed on     1 nodes
     K-points division:     npool     =       4
     Waiting for input...
     Reading input from standard input

     Current dimensions of program PWSCF are:
     Max number of different atomic species (ntypx) = 10
     Max number of k-points (npk) =  40000
     Max angular momentum in pseudopotentials (lmaxx) =  3

     Subspace diagonalization in iterative solution of the eigenvalue problem:
     a serial algorithm will be used


     G-vector sticks info
     --------------------
     sticks:   dense  smooth     PW     G-vecs:    dense   smooth      PW
     Sum        6089    2419    719               229813    58101    9297



     bravais-lattice index     =            8
     lattice parameter (alat)  =      21.4862  a.u.
     unit-cell volume          =    1425.7436 (a.u.)^3
     number of atoms/cell      =            8
     number of atomic types    =            2
     number of electrons       =        80.00
     number of Kohn-Sham states=           50
     kinetic-energy cutoff     =      45.0000  Ry
     charge density cutoff     =     450.0000  Ry
     scf convergence threshold =      1.0E-08
     mixing beta               =       0.7000
     number of iterations used =            8  plain     mixing
     Exchange-correlation= SLA  PW   PBE  PBE
                           (   1   4   3   4   0   0   0)

     celldm(1)=  21.486186  celldm(2)=   0.368162  celldm(3)=   0.390413
     celldm(4)=   0.000000  celldm(5)=   0.000000  celldm(6)=   0.000000

     crystal axes: (cart. coord. in units of alat)
               a(1) = (   1.000000   0.000000   0.000000 )  
               a(2) = (   0.000000   0.368162   0.000000 )  
               a(3) = (   0.000000   0.000000   0.390413 )  

     reciprocal axes: (cart. coord. in units 2 pi/alat)
               b(1) = (  1.000000  0.000000  0.000000 )  
               b(2) = (  0.000000  2.716197  0.000000 )  
               b(3) = (  0.000000  0.000000  2.561388 )  


     PseudoPot. # 1 for Sn read from file:
     ../pseudo/Sn_pbe_v1.uspp.F.UPF
     MD5 check sum: 4cf58ce39ec5d5d420df3dd08604eb00
     Pseudo is Ultrasoft + core correction, Zval = 14.0
     Generated by new atomic code, or converted to UPF format
     Using radial grid of  891 points,  6 beta functions with: 
                l(1) =   0
                l(2) =   0
                l(3) =   1
                l(4) =   1
                l(5) =   2
                l(6) =   2
     Q(r) pseudized with  6 coefficients,  rinner =    1.200   1.200   1.200
                                                       1.200   1.200

     PseudoPot. # 2 for Se read from file:
     ../pseudo/Se_pbe_v1.uspp.F.UPF
     MD5 check sum: 1b3568f3a8ae88f9a2a0ad0698632c85
     Pseudo is Ultrasoft + core correction, Zval =  6.0
     Generated by new atomic code, or converted to UPF format
     Using radial grid of  877 points,  6 beta functions with: 
                l(1) =   0
                l(2) =   0
                l(3) =   1
                l(4) =   1
                l(5) =   2
                l(6) =   2
     Q(r) pseudized with  8 coefficients,  rinner =    1.300   1.300   1.300
                                                       1.300   1.300

     atomic species   valence    mass     pseudopotential
        Sn            14.00   118.71000     Sn( 1.00)
        Se             6.00    78.97100     Se( 1.00)

      8 Sym. Ops., with inversion, found ( 6 have fractional translation)


                                    s                        frac. trans.

      isym =  1     identity                                     

 cryst.   s( 1) = (     1          0          0      )
                  (     0          1          0      )
                  (     0          0          1      )

 cart.    s( 1) = (  1.0000000  0.0000000  0.0000000 )
                  (  0.0000000  1.0000000  0.0000000 )
                  (  0.0000000  0.0000000  1.0000000 )


      isym =  2     180 deg rotation - cart. axis [0,0,1]        

 cryst.   s( 2) = (    -1          0          0      )    f =(  0.5000000 )
                  (     0         -1          0      )       (  0.0000000 )
                  (     0          0          1      )       (  0.5000000 )

 cart.    s( 2) = ( -1.0000000  0.0000000  0.0000000 )    f =(  0.5000000 )
                  (  0.0000000 -1.0000000  0.0000000 )       (  0.0000000 )
                  (  0.0000000  0.0000000  1.0000000 )       (  0.1952067 )


      isym =  3     180 deg rotation - cart. axis [0,1,0]        

 cryst.   s( 3) = (    -1          0          0      )    f =(  0.0000000 )
                  (     0          1          0      )       ( -0.5000000 )
                  (     0          0         -1      )       (  0.0000000 )

 cart.    s( 3) = ( -1.0000000  0.0000000  0.0000000 )    f =(  0.0000000 )
                  (  0.0000000  1.0000000  0.0000000 )       ( -0.1840809 )
                  (  0.0000000  0.0000000 -1.0000000 )       (  0.0000000 )


      isym =  4     180 deg rotation - cart. axis [1,0,0]        

 cryst.   s( 4) = (     1          0          0      )    f =(  0.5000000 )
                  (     0         -1          0      )       (  0.5000000 )
                  (     0          0         -1      )       (  0.5000000 )

 cart.    s( 4) = (  1.0000000  0.0000000  0.0000000 )    f =(  0.5000000 )
                  (  0.0000000 -1.0000000  0.0000000 )       (  0.1840809 )
                  (  0.0000000  0.0000000 -1.0000000 )       (  0.1952067 )


      isym =  5     inversion                                    

 cryst.   s( 5) = (    -1          0          0      )
                  (     0         -1          0      )
                  (     0          0         -1      )

 cart.    s( 5) = ( -1.0000000  0.0000000  0.0000000 )
                  (  0.0000000 -1.0000000  0.0000000 )
                  (  0.0000000  0.0000000 -1.0000000 )


      isym =  6     inv. 180 deg rotation - cart. axis [0,0,1]   

 cryst.   s( 6) = (     1          0          0      )    f =(  0.5000000 )
                  (     0          1          0      )       (  0.0000000 )
                  (     0          0         -1      )       (  0.5000000 )

 cart.    s( 6) = (  1.0000000  0.0000000  0.0000000 )    f =(  0.5000000 )
                  (  0.0000000  1.0000000  0.0000000 )       (  0.0000000 )
                  (  0.0000000  0.0000000 -1.0000000 )       (  0.1952067 )


      isym =  7     inv. 180 deg rotation - cart. axis [0,1,0]   

 cryst.   s( 7) = (     1          0          0      )    f =(  0.0000000 )
                  (     0         -1          0      )       (  0.5000000 )
                  (     0          0          1      )       (  0.0000000 )

 cart.    s( 7) = (  1.0000000  0.0000000  0.0000000 )    f =(  0.0000000 )
                  (  0.0000000 -1.0000000  0.0000000 )       (  0.1840809 )
                  (  0.0000000  0.0000000  1.0000000 )       (  0.0000000 )


      isym =  8     inv. 180 deg rotation - cart. axis [1,0,0]   

 cryst.   s( 8) = (    -1          0          0      )    f =(  0.5000000 )
                  (     0          1          0      )       ( -0.5000000 )
                  (     0          0          1      )       (  0.5000000 )

 cart.    s( 8) = ( -1.0000000  0.0000000  0.0000000 )    f =(  0.5000000 )
                  (  0.0000000  1.0000000  0.0000000 )       ( -0.1840809 )
                  (  0.0000000  0.0000000  1.0000000 )       (  0.1952067 )


     point group D_2h (mmm) 
     there are  8 classes
     the character table:

       E     C2    C2'   C2''  i     s_v   s_v'  s_v''
A_g    1.00  1.00  1.00  1.00  1.00  1.00  1.00  1.00
B_1g   1.00  1.00 -1.00 -1.00  1.00  1.00 -1.00 -1.00
B_2g   1.00 -1.00  1.00 -1.00  1.00 -1.00  1.00 -1.00
B_3g   1.00 -1.00 -1.00  1.00  1.00 -1.00 -1.00  1.00
A_u    1.00  1.00  1.00  1.00 -1.00 -1.00 -1.00 -1.00
B_1u   1.00  1.00 -1.00 -1.00 -1.00 -1.00  1.00  1.00
B_2u   1.00 -1.00  1.00 -1.00 -1.00  1.00 -1.00  1.00
B_3u   1.00 -1.00 -1.00  1.00 -1.00  1.00  1.00 -1.00

     the symmetry operations in each class and the name of the first element:

     E        1
          identity                                               
     C2       2
          180 deg rotation - cart. axis [0,0,1]                  
     C2'      4
          180 deg rotation - cart. axis [1,0,0]                  
     C2''     3
          180 deg rotation - cart. axis [0,1,0]                  
     i        5
          inversion                                              
     s_v      6
          inv. 180 deg rotation - cart. axis [0,0,1]             
     s_v'     8
          inv. 180 deg rotation - cart. axis [1,0,0]             
     s_v''    7
          inv. 180 deg rotation - cart. axis [0,1,0]             

   Cartesian axes

     site n.     atom                  positions (alat units)
         1           Se  tau(   1) = (   0.8555000   0.0920405   0.1884916  )
         2           Sn  tau(   2) = (   0.1187000   0.0920405   0.0385728  )
         3           Se  tau(   3) = (   0.6445000   0.2761214   0.3836983  )
         4           Sn  tau(   4) = (   0.3813000   0.2761214   0.2337795  )
         5           Se  tau(   5) = (   0.3555000   0.0920405   0.0067151  )
         6           Sn  tau(   6) = (   0.6187000   0.0920405   0.1566338  )
         7           Se  tau(   7) = (   0.1445000   0.2761214   0.2019218  )
         8           Sn  tau(   8) = (   0.8813000   0.2761214   0.3518405  )

   Crystallographic axes

     site n.     atom                  positions (cryst. coord.)
         1           Se  tau(   1) = (  0.8555000  0.2500000  0.4828000  )
         2           Sn  tau(   2) = (  0.1187000  0.2500000  0.0988000  )
         3           Se  tau(   3) = (  0.6445000  0.7500000  0.9828000  )
         4           Sn  tau(   4) = (  0.3813000  0.7500000  0.5988000  )
         5           Se  tau(   5) = (  0.3555000  0.2500000  0.0172000  )
         6           Sn  tau(   6) = (  0.6187000  0.2500000  0.4012000  )
         7           Se  tau(   7) = (  0.1445000  0.7500000  0.5172000  )
         8           Sn  tau(   8) = (  0.8813000  0.7500000  0.9012000  )

     number of k points=    32
                       cart. coord. in units 2pi/alat
        k(    1) = (   0.0000000   0.0000000   0.0000000), wk =   0.0277778
        k(    2) = (   0.0000000   0.0000000   0.4268979), wk =   0.0555556
        k(    3) = (   0.0000000   0.0000000   0.8537959), wk =   0.0555556
        k(    4) = (   0.0000000   0.0000000  -1.2806938), wk =   0.0277778
        k(    5) = (   0.0000000   0.4526995   0.0000000), wk =   0.0555556
        k(    6) = (   0.0000000   0.4526995   0.4268979), wk =   0.1111111
        k(    7) = (   0.0000000   0.4526995   0.8537959), wk =   0.1111111
        k(    8) = (   0.0000000   0.4526995  -1.2806938), wk =   0.0555556
        k(    9) = (   0.0000000   0.9053989   0.0000000), wk =   0.0555556
        k(   10) = (   0.0000000   0.9053989   0.4268979), wk =   0.1111111
        k(   11) = (   0.0000000   0.9053989   0.8537959), wk =   0.1111111
        k(   12) = (   0.0000000   0.9053989  -1.2806938), wk =   0.0555556
        k(   13) = (   0.0000000  -1.3580984   0.0000000), wk =   0.0277778
        k(   14) = (   0.0000000  -1.3580984   0.4268979), wk =   0.0555556
        k(   15) = (   0.0000000  -1.3580984   0.8537959), wk =   0.0555556
        k(   16) = (   0.0000000  -1.3580984  -1.2806938), wk =   0.0277778
        k(   17) = (  -0.5000000   0.0000000   0.0000000), wk =   0.0277778
        k(   18) = (  -0.5000000   0.0000000   0.4268979), wk =   0.0555556
        k(   19) = (  -0.5000000   0.0000000   0.8537959), wk =   0.0555556
        k(   20) = (  -0.5000000   0.0000000  -1.2806938), wk =   0.0277778
        k(   21) = (  -0.5000000   0.4526995   0.0000000), wk =   0.0555556
        k(   22) = (  -0.5000000   0.4526995   0.4268979), wk =   0.1111111
        k(   23) = (  -0.5000000   0.4526995   0.8537959), wk =   0.1111111
        k(   24) = (  -0.5000000   0.4526995  -1.2806938), wk =   0.0555556
        k(   25) = (  -0.5000000   0.9053989   0.0000000), wk =   0.0555556
        k(   26) = (  -0.5000000   0.9053989   0.4268979), wk =   0.1111111
        k(   27) = (  -0.5000000   0.9053989   0.8537959), wk =   0.1111111
        k(   28) = (  -0.5000000   0.9053989  -1.2806938), wk =   0.0555556
        k(   29) = (  -0.5000000  -1.3580984   0.0000000), wk =   0.0277778
        k(   30) = (  -0.5000000  -1.3580984   0.4268979), wk =   0.0555556
        k(   31) = (  -0.5000000  -1.3580984   0.8537959), wk =   0.0555556
        k(   32) = (  -0.5000000  -1.3580984  -1.2806938), wk =   0.0277778

                       cryst. coord.
        k(    1) = (   0.0000000   0.0000000   0.0000000), wk =   0.0277778
        k(    2) = (   0.0000000   0.0000000   0.1666667), wk =   0.0555556
        k(    3) = (   0.0000000   0.0000000   0.3333333), wk =   0.0555556
        k(    4) = (   0.0000000   0.0000000  -0.5000000), wk =   0.0277778
        k(    5) = (   0.0000000   0.1666667   0.0000000), wk =   0.0555556
        k(    6) = (   0.0000000   0.1666667   0.1666667), wk =   0.1111111
        k(    7) = (   0.0000000   0.1666667   0.3333333), wk =   0.1111111
        k(    8) = (   0.0000000   0.1666667  -0.5000000), wk =   0.0555556
        k(    9) = (   0.0000000   0.3333333   0.0000000), wk =   0.0555556
        k(   10) = (   0.0000000   0.3333333   0.1666667), wk =   0.1111111
        k(   11) = (   0.0000000   0.3333333   0.3333333), wk =   0.1111111
        k(   12) = (   0.0000000   0.3333333  -0.5000000), wk =   0.0555556
        k(   13) = (   0.0000000  -0.5000000   0.0000000), wk =   0.0277778
        k(   14) = (   0.0000000  -0.5000000   0.1666667), wk =   0.0555556
        k(   15) = (   0.0000000  -0.5000000   0.3333333), wk =   0.0555556
        k(   16) = (   0.0000000  -0.5000000  -0.5000000), wk =   0.0277778
        k(   17) = (  -0.5000000   0.0000000   0.0000000), wk =   0.0277778
        k(   18) = (  -0.5000000   0.0000000   0.1666667), wk =   0.0555556
        k(   19) = (  -0.5000000   0.0000000   0.3333333), wk =   0.0555556
        k(   20) = (  -0.5000000   0.0000000  -0.5000000), wk =   0.0277778
        k(   21) = (  -0.5000000   0.1666667   0.0000000), wk =   0.0555556
        k(   22) = (  -0.5000000   0.1666667   0.1666667), wk =   0.1111111
        k(   23) = (  -0.5000000   0.1666667   0.3333333), wk =   0.1111111
        k(   24) = (  -0.5000000   0.1666667  -0.5000000), wk =   0.0555556
        k(   25) = (  -0.5000000   0.3333333   0.0000000), wk =   0.0555556
        k(   26) = (  -0.5000000   0.3333333   0.1666667), wk =   0.1111111
        k(   27) = (  -0.5000000   0.3333333   0.3333333), wk =   0.1111111
        k(   28) = (  -0.5000000   0.3333333  -0.5000000), wk =   0.0555556
        k(   29) = (  -0.5000000  -0.5000000   0.0000000), wk =   0.0277778
        k(   30) = (  -0.5000000  -0.5000000   0.1666667), wk =   0.0555556
        k(   31) = (  -0.5000000  -0.5000000   0.3333333), wk =   0.0555556
        k(   32) = (  -0.5000000  -0.5000000  -0.5000000), wk =   0.0277778

     Dense  grid:   229813 G-vectors     FFT dimensions: ( 150,  54,  60)

     Smooth grid:    58101 G-vectors     FFT dimensions: (  96,  36,  36)

     Dynamical RAM for                 wfc:       5.55 MB

     Dynamical RAM for     wfc (w. buffer):      49.91 MB

     Dynamical RAM for           str. fact:       7.01 MB

     Dynamical RAM for           local pot:       0.00 MB

     Dynamical RAM for          nlocal pot:      15.97 MB

     Dynamical RAM for                qrad:       3.40 MB

     Dynamical RAM for          rho,v,vnew:      21.64 MB

     Dynamical RAM for               rhoin:       7.21 MB

     Dynamical RAM for            rho*nmix:      56.11 MB

     Dynamical RAM for           G-vectors:      13.59 MB

     Dynamical RAM for          h,s,v(r/c):       0.46 MB

     Dynamical RAM for          <psi|beta>:       0.11 MB

     Dynamical RAM for                 psi:      11.09 MB

     Dynamical RAM for                hpsi:      11.09 MB

     Dynamical RAM for                spsi:      11.09 MB

     Dynamical RAM for      wfcinit/wfcrot:      11.60 MB

     Dynamical RAM for           addusdens:     169.20 MB

     Dynamical RAM for          addusforce:     173.59 MB

     Estimated static dynamical RAM per process >     203.91 MB

     Estimated max dynamical RAM per process >     377.51 MB

     Estimated total dynamical RAM >       1.47 GB

     Initial potential from superposition of free atoms

     starting charge   75.99954, renormalised to   80.00000
     Starting wfcs are   52 randomized atomic wfcs

     total cpu time spent up to now is        9.1 secs

     Self-consistent Calculation

     iteration #  1     ecut=    45.00 Ry     beta= 0.70
     Davidson diagonalization with overlap
     ethr =  1.00E-02,  avg # of iterations =  3.8

     total cpu time spent up to now is       33.6 secs

     total energy              =    -826.54801974 Ry
     estimated scf accuracy    <       2.63132243 Ry

     iteration #  2     ecut=    45.00 Ry     beta= 0.70
     Davidson diagonalization with overlap
     ethr =  3.29E-03,  avg # of iterations =  2.0

     total cpu time spent up to now is       55.1 secs

     total energy              =    -827.33324845 Ry
     estimated scf accuracy    <       1.08985983 Ry

     iteration #  3     ecut=    45.00 Ry     beta= 0.70
     Davidson diagonalization with overlap
     ethr =  1.36E-03,  avg # of iterations =  2.0

     total cpu time spent up to now is       72.9 secs

     total energy              =    -827.60444176 Ry
     estimated scf accuracy    <       0.06108166 Ry

     iteration #  4     ecut=    45.00 Ry     beta= 0.70
     Davidson diagonalization with overlap
     ethr =  7.64E-05,  avg # of iterations =  3.2

     total cpu time spent up to now is       89.4 secs

     total energy              =    -827.61552890 Ry
     estimated scf accuracy    <       0.00299415 Ry

     iteration #  5     ecut=    45.00 Ry     beta= 0.70
     Davidson diagonalization with overlap
     ethr =  3.74E-06,  avg # of iterations =  5.3

     total cpu time spent up to now is      109.5 secs

     total energy              =    -827.61619237 Ry
     estimated scf accuracy    <       0.00080967 Ry

     iteration #  6     ecut=    45.00 Ry     beta= 0.70
     Davidson diagonalization with overlap
     ethr =  1.01E-06,  avg # of iterations =  2.3

     total cpu time spent up to now is      125.4 secs

     total energy              =    -827.61636758 Ry
     estimated scf accuracy    <       0.00004560 Ry

     iteration #  7     ecut=    45.00 Ry     beta= 0.70
     Davidson diagonalization with overlap
     ethr =  5.70E-08,  avg # of iterations =  5.0

     total cpu time spent up to now is      147.8 secs

     total energy              =    -827.61639595 Ry
     estimated scf accuracy    <       0.00000267 Ry

     iteration #  8     ecut=    45.00 Ry     beta= 0.70
     Davidson diagonalization with overlap
     ethr =  3.33E-09,  avg # of iterations =  3.5

     total cpu time spent up to now is      165.3 secs

     total energy              =    -827.61639703 Ry
     estimated scf accuracy    <       0.00000043 Ry

     iteration #  9     ecut=    45.00 Ry     beta= 0.70
     Davidson diagonalization with overlap
     ethr =  5.43E-10,  avg # of iterations =  2.9

     total cpu time spent up to now is      183.7 secs

     End of self-consistent calculation

          k = 0.0000 0.0000 0.0000 (  7253 PWs)   bands (ev):

   -13.2666 -13.2547 -13.2516 -13.2491 -13.2489 -13.2449 -13.2420 -13.2380
   -13.2338 -13.2328 -13.2322 -13.2251 -13.2177 -13.2113 -13.1968 -13.1917
   -13.1868 -13.1830 -13.1753 -13.1660  -5.7459  -5.3957  -4.6586  -4.1586
     0.8106   1.9486   2.5398   3.0752   3.2304   4.6640   4.7023   4.7770
     5.1827   5.2391   5.8116   6.3116   6.5365   6.9891   7.4010   7.5700
     8.8494  10.9517  11.0998  11.1325  11.3573  11.4510  12.3346  12.6295
    12.7029  12.7426

     occupation numbers 
     1.0000   1.0000   1.0000   1.0000   1.0000   1.0000   1.0000   1.0000
     1.0000   1.0000   1.0000   1.0000   1.0000   1.0000   1.0000   1.0000
     1.0000   1.0000   1.0000   1.0000   1.0000   1.0000   1.0000   1.0000
     1.0000   1.0000   1.0000   1.0000   1.0000   1.0000   1.0000   1.0000
     1.0000   1.0000   1.0000   1.0000   1.0000   1.0000   1.0000   1.0000
     0.0000   0.0000   0.0000   0.0000   0.0000   0.0000   0.0000   0.0000
     0.0000   0.0000

          k = 0.0000 0.0000 0.4269 (  7286 PWs)   bands (ev):

   -13.2651 -13.2534 -13.2519 -13.2503 -13.2481 -13.2470 -13.2426 -13.2389
   -13.2332 -13.2310 -13.2287 -13.2255 -13.2169 -13.2120 -13.1968 -13.1909
   -13.1879 -13.1838 -13.1746 -13.1666  -5.6277  -5.2874  -4.6451  -4.1905
     0.4461   1.7104   1.9311   2.6884   3.2166   4.8189   4.8449   5.3356
     5.3460   5.9064   5.9284   6.5186   6.5926   7.0993   7.4476   7.5873
     8.9715  10.0943  10.7260  10.9025  11.1418  11.4574  11.9013  12.0696
    12.5323  12.7682

     occupation numbers 
     1.0000   1.0000   1.0000   1.0000   1.0000   1.0000   1.0000   1.0000
     1.0000   1.0000   1.0000   1.0000   1.0000   1.0000   1.0000   1.0000
     1.0000   1.0000   1.0000   1.0000   1.0000   1.0000   1.0000   1.0000
     1.0000   1.0000   1.0000   1.0000   1.0000   1.0000   1.0000   1.0000
     1.0000   1.0000   1.0000   1.0000   1.0000   1.0000   1.0000   1.0000
     0.0000   0.0000   0.0000   0.0000   0.0000   0.0000   0.0000   0.0000
     0.0000   0.0000

          k = 0.0000 0.0000 0.8538 (  7284 PWs)   bands (ev):

   -13.2610 -13.2532 -13.2526 -13.2507 -13.2506 -13.2472 -13.2435 -13.2413
   -13.2312 -13.2267 -13.2249 -13.2223 -13.2161 -13.2140 -13.1960 -13.1905
   -13.1893 -13.1855 -13.1728 -13.1682  -5.3119  -4.9961  -4.6887  -4.3309
    -0.0230   0.8104   1.3646   1.9821   3.6443   5.0245   5.3391   5.7842
     6.1140   6.1249   6.3718   6.6089   6.8452   7.4420   7.5931   8.1002
     8.9972   9.5562   9.5822   9.7389  10.4725  10.5770  11.0920  11.2235
    11.9938  12.1197

     occupation numbers 
     1.0000   1.0000   1.0000   1.0000   1.0000   1.0000   1.0000   1.0000
     1.0000   1.0000   1.0000   1.0000   1.0000   1.0000   1.0000   1.0000
     1.0000   1.0000   1.0000   1.0000   1.0000   1.0000   1.0000   1.0000
     1.0000   1.0000   1.0000   1.0000   1.0000   1.0000   1.0000   1.0000
     1.0000   1.0000   1.0000   1.0000   1.0000   1.0000   1.0000   1.0000
     0.0000   0.0000   0.0000   0.0000   0.0000   0.0000   0.0000   0.0000
     0.0000   0.0000

          k = 0.0000 0.0000-1.2807 (  7318 PWs)   bands (ev):

   -13.2565 -13.2565 -13.2531 -13.2531 -13.2481 -13.2481 -13.2433 -13.2433
   -13.2288 -13.2288 -13.2186 -13.2186 -13.2172 -13.2172 -13.1935 -13.1935
   -13.1874 -13.1874 -13.1705 -13.1705  -4.9314  -4.9314  -4.6267  -4.6267
     0.0659   0.0659   1.4334   1.4334   4.3911   4.3911   5.9302   5.9302
     6.3073   6.3073   6.6796   6.6796   7.2611   7.2611   7.7977   7.7977
     9.3225   9.3225   9.6521   9.6521   9.7894   9.7894  10.7612  10.7612
    11.2256  11.2256

     occupation numbers 
     1.0000   1.0000   1.0000   1.0000   1.0000   1.0000   1.0000   1.0000
     1.0000   1.0000   1.0000   1.0000   1.0000   1.0000   1.0000   1.0000
     1.0000   1.0000   1.0000   1.0000   1.0000   1.0000   1.0000   1.0000
     1.0000   1.0000   1.0000   1.0000   1.0000   1.0000   1.0000   1.0000
     1.0000   1.0000   1.0000   1.0000   1.0000   1.0000   1.0000   1.0000
     0.0000   0.0000   0.0000   0.0000   0.0000   0.0000   0.0000   0.0000
     0.0000   0.0000

          k = 0.0000 0.4527 0.0000 (  7261 PWs)   bands (ev):

   -13.2606 -13.2527 -13.2511 -13.2483 -13.2468 -13.2463 -13.2459 -13.2407
   -13.2365 -13.2302 -13.2289 -13.2273 -13.2140 -13.2123 -13.1938 -13.1933
   -13.1864 -13.1848 -13.1753 -13.1682  -5.5977  -5.2702  -4.5967  -4.1701
     0.6094   1.5560   2.3402   2.3699   3.2408   4.6345   4.9626   5.0882
     5.1743   5.3994   6.1254   6.3949   6.5254   7.4131   7.4275   7.4284
     9.0704   9.9281  10.8649  11.1289  11.2213  11.4503  11.8183  11.8713
    12.5549  13.1377

     occupation numbers 
     1.0000   1.0000   1.0000   1.0000   1.0000   1.0000   1.0000   1.0000
     1.0000   1.0000   1.0000   1.0000   1.0000   1.0000   1.0000   1.0000
     1.0000   1.0000   1.0000   1.0000   1.0000   1.0000   1.0000   1.0000
     1.0000   1.0000   1.0000   1.0000   1.0000   1.0000   1.0000   1.0000
     1.0000   1.0000   1.0000   1.0000   1.0000   1.0000   1.0000   1.0000
     0.0000   0.0000   0.0000   0.0000   0.0000   0.0000   0.0000   0.0000
     0.0000   0.0000

          k = 0.0000 0.4527 0.4269 (  7277 PWs)   bands (ev):

   -13.2603 -13.2528 -13.2525 -13.2478 -13.2473 -13.2468 -13.2452 -13.2428
   -13.2358 -13.2290 -13.2274 -13.2248 -13.2147 -13.2117 -13.1943 -13.1923
   -13.1870 -13.1858 -13.1747 -13.1685  -5.4839  -5.1671  -4.5819  -4.1922
     0.4170   1.5344   1.8461   2.2898   3.3523   4.1008   4.3251   5.4220
     5.5923   5.9101   6.0306   6.3508   7.0709   7.2024   7.5515   7.6540
     9.1845   9.6442  10.1419  10.1809  11.1824  11.3140  11.8774  12.0788
    12.5645  12.9662

     occupation numbers 
     1.0000   1.0000   1.0000   1.0000   1.0000   1.0000   1.0000   1.0000
     1.0000   1.0000   1.0000   1.0000   1.0000   1.0000   1.0000   1.0000
     1.0000   1.0000   1.0000   1.0000   1.0000   1.0000   1.0000   1.0000
     1.0000   1.0000   1.0000   1.0000   1.0000   1.0000   1.0000   1.0000
     1.0000   1.0000   1.0000   1.0000   1.0000   1.0000   1.0000   1.0000
     0.0000   0.0000   0.0000   0.0000   0.0000   0.0000   0.0000   0.0000
     0.0000   0.0000

          k = 0.0000 0.4527 0.8538 (  7285 PWs)   bands (ev):

   -13.2599 -13.2564 -13.2519 -13.2493 -13.2475 -13.2468 -13.2460 -13.2438
   -13.2336 -13.2298 -13.2219 -13.2193 -13.2154 -13.2118 -13.1935 -13.1908
   -13.1887 -13.1876 -13.1732 -13.1697  -5.1837  -4.8936  -4.6152  -4.3029
     0.1280   0.9279   1.4478   1.9227   3.7926   4.0948   4.2791   5.3100
     5.4679   5.8008   6.2085   6.6196   7.0334   7.3116   7.3993   7.6188
     9.1863   9.4907   9.9486  10.2730  10.7644  11.1142  11.3045  12.3510
    12.6218  12.9040

     occupation numbers 
     1.0000   1.0000   1.0000   1.0000   1.0000   1.0000   1.0000   1.0000
     1.0000   1.0000   1.0000   1.0000   1.0000   1.0000   1.0000   1.0000
     1.0000   1.0000   1.0000   1.0000   1.0000   1.0000   1.0000   1.0000
     1.0000   1.0000   1.0000   1.0000   1.0000   1.0000   1.0000   1.0000
     1.0000   1.0000   1.0000   1.0000   1.0000   1.0000   1.0000   1.0000
     0.0000   0.0000   0.0000   0.0000   0.0000   0.0000   0.0000   0.0000
     0.0000   0.0000

          k = 0.0000 0.4527-1.2807 (  7256 PWs)   bands (ev):

   -13.2591 -13.2591 -13.2504 -13.2504 -13.2488 -13.2488 -13.2442 -13.2442
   -13.2313 -13.2313 -13.2174 -13.2174 -13.2143 -13.2143 -13.1913 -13.1913
   -13.1891 -13.1891 -13.1713 -13.1713  -4.8310  -4.8310  -4.5576  -4.5576
     0.2526   0.2526   1.5392   1.5392   4.3063   4.3063   4.7842   4.7842
     5.3260   5.3260   6.2947   6.2947   7.1474   7.1474   7.5549   7.5549
     9.2793   9.2793  10.0903  10.0903  11.2587  11.2587  11.7212  11.7212
    12.2940  12.2940

     occupation numbers 
     1.0000   1.0000   1.0000   1.0000   1.0000   1.0000   1.0000   1.0000
     1.0000   1.0000   1.0000   1.0000   1.0000   1.0000   1.0000   1.0000
     1.0000   1.0000   1.0000   1.0000   1.0000   1.0000   1.0000   1.0000
     1.0000   1.0000   1.0000   1.0000   1.0000   1.0000   1.0000   1.0000
     1.0000   1.0000   1.0000   1.0000   1.0000   1.0000   1.0000   1.0000
     0.0000   0.0000   0.0000   0.0000   0.0000   0.0000   0.0000   0.0000
     0.0000   0.0000

          k = 0.0000 0.9054 0.0000 (  7261 PWs)   bands (ev):

   -13.2573 -13.2547 -13.2540 -13.2519 -13.2435 -13.2433 -13.2416 -13.2376
   -13.2353 -13.2330 -13.2280 -13.2188 -13.2166 -13.2086 -13.1979 -13.1961
   -13.1869 -13.1804 -13.1750 -13.1727  -5.1947  -4.9497  -4.5093  -4.3004
     0.2649   1.0177   1.1501   1.6785   3.7025   4.9710   5.3123   5.4423
     5.5132   5.7672   6.3570   6.5065   6.8485   7.1976   7.3279   7.9129
     8.6729   9.5502   9.8460   9.8697  10.1036  10.6276  10.6762  11.5177
    11.8990  12.2764

     occupation numbers 
     1.0000   1.0000   1.0000   1.0000   1.0000   1.0000   1.0000   1.0000
     1.0000   1.0000   1.0000   1.0000   1.0000   1.0000   1.0000   1.0000
     1.0000   1.0000   1.0000   1.0000   1.0000   1.0000   1.0000   1.0000
     1.0000   1.0000   1.0000   1.0000   1.0000   1.0000   1.0000   1.0000
     1.0000   1.0000   1.0000   1.0000   1.0000   1.0000   1.0000   1.0000
     0.0000   0.0000   0.0000   0.0000   0.0000   0.0000   0.0000   0.0000
     0.0000   0.0000

          k = 0.0000 0.9054 0.4269 (  7251 PWs)   bands (ev):

   -13.2607 -13.2577 -13.2553 -13.2534 -13.2442 -13.2409 -13.2407 -13.2373
   -13.2340 -13.2326 -13.2260 -13.2173 -13.2168 -13.2085 -13.1973 -13.1957
   -13.1869 -13.1813 -13.1746 -13.1725  -5.0979  -4.8648  -4.4849  -4.2894
     0.3396   1.1584   1.2314   1.6067   3.8362   3.9315   4.2976   5.1344
     5.5224   5.8401   6.1379   6.4905   6.6522   7.1563   7.2958   7.3764
     9.1184   9.5073   9.6888  10.0186  10.8085  11.3538  11.5178  12.0201
    12.4954  12.8357

     occupation numbers 
     1.0000   1.0000   1.0000   1.0000   1.0000   1.0000   1.0000   1.0000
     1.0000   1.0000   1.0000   1.0000   1.0000   1.0000   1.0000   1.0000
     1.0000   1.0000   1.0000   1.0000   1.0000   1.0000   1.0000   1.0000
     1.0000   1.0000   1.0000   1.0000   1.0000   1.0000   1.0000   1.0000
     1.0000   1.0000   1.0000   1.0000   1.0000   1.0000   1.0000   1.0000
     0.0000   0.0000   0.0000   0.0000   0.0000   0.0000   0.0000   0.0000
     0.0000   0.0000

          k = 0.0000 0.9054 0.8538 (  7265 PWs)   bands (ev):

   -13.2658 -13.2637 -13.2586 -13.2576 -13.2430 -13.2398 -13.2384 -13.2371
   -13.2321 -13.2318 -13.2217 -13.2168 -13.2138 -13.2091 -13.1959 -13.1948
   -13.1863 -13.1830 -13.1736 -13.1724  -4.8540  -4.6522  -4.4744  -4.3032
     0.5072   1.1413   1.4842   1.5838   3.2531   3.6314   4.0732   4.3204
     4.8127   5.2019   5.5152   5.9061   6.2220   6.4864   6.9818   7.2680
     9.0694  10.7096  11.0508  11.2265  11.7015  11.7020  12.5123  12.6811
    13.0209  13.1338

     occupation numbers 
     1.0000   1.0000   1.0000   1.0000   1.0000   1.0000   1.0000   1.0000
     1.0000   1.0000   1.0000   1.0000   1.0000   1.0000   1.0000   1.0000
     1.0000   1.0000   1.0000   1.0000   1.0000   1.0000   1.0000   1.0000
     1.0000   1.0000   1.0000   1.0000   1.0000   1.0000   1.0000   1.0000
     1.0000   1.0000   1.0000   1.0000   1.0000   1.0000   1.0000   1.0000
     0.0000   0.0000   0.0000   0.0000   0.0000   0.0000   0.0000   0.0000
     0.0000   0.0000

          k = 0.0000 0.9054-1.2807 (  7264 PWs)   bands (ev):

   -13.2673 -13.2673 -13.2600 -13.2600 -13.2411 -13.2411 -13.2373 -13.2373
   -13.2312 -13.2312 -13.2181 -13.2181 -13.2106 -13.2106 -13.1948 -13.1948
   -13.1848 -13.1848 -13.1727 -13.1727  -4.5974  -4.5974  -4.4262  -4.4262
     0.7587   0.7587   1.6654   1.6654   3.4404   3.4404   3.8581   3.8581
     4.7522   4.7522   5.4199   5.4199   6.0375   6.0375   6.9415   6.9415
    10.0429  10.0429  11.6698  11.6698  12.7850  12.7850  12.8414  12.8414
    12.9946  12.9946

     occupation numbers 
     1.0000   1.0000   1.0000   1.0000   1.0000   1.0000   1.0000   1.0000
     1.0000   1.0000   1.0000   1.0000   1.0000   1.0000   1.0000   1.0000
     1.0000   1.0000   1.0000   1.0000   1.0000   1.0000   1.0000   1.0000
     1.0000   1.0000   1.0000   1.0000   1.0000   1.0000   1.0000   1.0000
     1.0000   1.0000   1.0000   1.0000   1.0000   1.0000   1.0000   1.0000
     0.0000   0.0000   0.0000   0.0000   0.0000   0.0000   0.0000   0.0000
     0.0000   0.0000

          k = 0.0000-1.3581 0.0000 (  7228 PWs)   bands (ev):

   -13.2589 -13.2589 -13.2549 -13.2549 -13.2402 -13.2402 -13.2382 -13.2382
   -13.2293 -13.2293 -13.2256 -13.2256 -13.2081 -13.2081 -13.2033 -13.2033
   -13.1789 -13.1789 -13.1763 -13.1763  -4.6817  -4.6817  -4.6183  -4.6183
     0.3597   0.3597   1.0563   1.0563   4.4853   4.4853   5.8501   5.8501
     5.8652   5.8652   6.3776   6.3776   7.1086   7.1086   7.3079   7.3079
     9.1104   9.1104   9.5458   9.5458   9.8207   9.8207  10.6272  10.6272
    11.3367  11.3367

     occupation numbers 
     1.0000   1.0000   1.0000   1.0000   1.0000   1.0000   1.0000   1.0000
     1.0000   1.0000   1.0000   1.0000   1.0000   1.0000   1.0000   1.0000
     1.0000   1.0000   1.0000   1.0000   1.0000   1.0000   1.0000   1.0000
     1.0000   1.0000   1.0000   1.0000   1.0000   1.0000   1.0000   1.0000
     1.0000   1.0000   1.0000   1.0000   1.0000   1.0000   1.0000   1.0000
     0.0000   0.0000   0.0000   0.0000   0.0000   0.0000   0.0000   0.0000
     0.0000   0.0000

          k = 0.0000-1.3581 0.4269 (  7230 PWs)   bands (ev):

   -13.2623 -13.2623 -13.2573 -13.2573 -13.2400 -13.2400 -13.2364 -13.2364
   -13.2290 -13.2290 -13.2243 -13.2243 -13.2089 -13.2089 -13.2014 -13.2014
   -13.1798 -13.1798 -13.1756 -13.1756  -4.6218  -4.6218  -4.5657  -4.5657
     0.5225   0.5225   1.1556   1.1556   4.3391   4.3391   4.6828   4.6828
     5.3960   5.3960   6.2248   6.2248   6.5245   6.5245   7.4497   7.4497
     8.9831   8.9831  10.1635  10.1635  11.0844  11.0844  11.6280  11.6280
    12.2884  12.2884

     occupation numbers 
     1.0000   1.0000   1.0000   1.0000   1.0000   1.0000   1.0000   1.0000
     1.0000   1.0000   1.0000   1.0000   1.0000   1.0000   1.0000   1.0000
     1.0000   1.0000   1.0000   1.0000   1.0000   1.0000   1.0000   1.0000
     1.0000   1.0000   1.0000   1.0000   1.0000   1.0000   1.0000   1.0000
     1.0000   1.0000   1.0000   1.0000   1.0000   1.0000   1.0000   1.0000
     0.0000   0.0000   0.0000   0.0000   0.0000   0.0000   0.0000   0.0000
     0.0000   0.0000

          k = 0.0000-1.3581 0.8538 (  7264 PWs)   bands (ev):

   -13.2686 -13.2686 -13.2621 -13.2621 -13.2396 -13.2396 -13.2338 -13.2338
   -13.2280 -13.2280 -13.2222 -13.2222 -13.2090 -13.2090 -13.1987 -13.1987
   -13.1805 -13.1805 -13.1746 -13.1746  -4.4926  -4.4926  -4.4582  -4.4582
     0.9502   0.9502   1.3624   1.3624   3.4450   3.4450   3.9824   3.9824
     4.6940   4.6940   5.5267   5.5267   5.7399   5.7399   6.9353   6.9353
    10.0276  10.0276  11.5336  11.5336  12.5153  12.5153  12.6269  12.6269
    12.8944  12.8944

     occupation numbers 
     1.0000   1.0000   1.0000   1.0000   1.0000   1.0000   1.0000   1.0000
     1.0000   1.0000   1.0000   1.0000   1.0000   1.0000   1.0000   1.0000
     1.0000   1.0000   1.0000   1.0000   1.0000   1.0000   1.0000   1.0000
     1.0000   1.0000   1.0000   1.0000   1.0000   1.0000   1.0000   1.0000
     1.0000   1.0000   1.0000   1.0000   1.0000   1.0000   1.0000   1.0000
     0.0000   0.0000   0.0000   0.0000   0.0000   0.0000   0.0000   0.0000
     0.0000   0.0000

          k = 0.0000-1.3581-1.2807 (  7272 PWs)   bands (ev):

   -13.2717 -13.2717 -13.2645 -13.2645 -13.2395 -13.2395 -13.2328 -13.2328
   -13.2274 -13.2274 -13.2215 -13.2215 -13.2085 -13.2085 -13.1976 -13.1976
   -13.1806 -13.1806 -13.1743 -13.1743  -4.4179  -4.4179  -4.4080  -4.4080
     1.2906   1.2906   1.4407   1.4407   3.0378   3.0378   3.5537   3.5537
     4.4687   4.4687   4.9501   4.9501   5.8019   5.8019   6.6438   6.6438
    10.8679  10.8679  11.1758  11.1758  12.8455  12.8455  12.9782  12.9782
    13.7132  13.7132

     occupation numbers 
     1.0000   1.0000   1.0000   1.0000   1.0000   1.0000   1.0000   1.0000
     1.0000   1.0000   1.0000   1.0000   1.0000   1.0000   1.0000   1.0000
     1.0000   1.0000   1.0000   1.0000   1.0000   1.0000   1.0000   1.0000
     1.0000   1.0000   1.0000   1.0000   1.0000   1.0000   1.0000   1.0000
     1.0000   1.0000   1.0000   1.0000   1.0000   1.0000   1.0000   1.0000
     0.0000   0.0000   0.0000   0.0000   0.0000   0.0000   0.0000   0.0000
     0.0000   0.0000

          k =-0.5000 0.0000 0.0000 (  7246 PWs)   bands (ev):

   -13.2610 -13.2610 -13.2509 -13.2509 -13.2476 -13.2476 -13.2392 -13.2392
   -13.2317 -13.2317 -13.2300 -13.2300 -13.2145 -13.2145 -13.1942 -13.1942
   -13.1848 -13.1848 -13.1703 -13.1703  -5.6062  -5.6062  -4.3735  -4.3735
     1.1509   1.1509   3.0232   3.0232   4.0130   4.0130   4.8556   4.8556
     5.2132   5.2132   6.0083   6.0083   6.2395   6.2395   7.5332   7.5332
    10.6760  10.6760  10.8765  10.8765  11.7685  11.7685  11.9997  11.9997
    13.0951  13.0951

     occupation numbers 
     1.0000   1.0000   1.0000   1.0000   1.0000   1.0000   1.0000   1.0000
     1.0000   1.0000   1.0000   1.0000   1.0000   1.0000   1.0000   1.0000
     1.0000   1.0000   1.0000   1.0000   1.0000   1.0000   1.0000   1.0000
     1.0000   1.0000   1.0000   1.0000   1.0000   1.0000   1.0000   1.0000
     1.0000   1.0000   1.0000   1.0000   1.0000   1.0000   1.0000   1.0000
     0.0000   0.0000   0.0000   0.0000   0.0000   0.0000   0.0000   0.0000
     0.0000   0.0000

          k =-0.5000 0.0000 0.4269 (  7300 PWs)   bands (ev):

   -13.2600 -13.2600 -13.2499 -13.2499 -13.2489 -13.2489 -13.2406 -13.2406
   -13.2295 -13.2295 -13.2291 -13.2291 -13.2147 -13.2147 -13.1940 -13.1940
   -13.1855 -13.1855 -13.1703 -13.1703  -5.4929  -5.4929  -4.3823  -4.3823
     0.8262   0.8262   2.4652   2.4652   4.2525   4.2525   5.0301   5.0301
     5.4496   5.4496   6.3248   6.3248   6.5534   6.5534   7.4485   7.4485
    10.3858  10.3858  11.0378  11.0378  11.0720  11.0720  11.5710  11.5710
    12.9466  12.9466

     occupation numbers 
     1.0000   1.0000   1.0000   1.0000   1.0000   1.0000   1.0000   1.0000
     1.0000   1.0000   1.0000   1.0000   1.0000   1.0000   1.0000   1.0000
     1.0000   1.0000   1.0000   1.0000   1.0000   1.0000   1.0000   1.0000
     1.0000   1.0000   1.0000   1.0000   1.0000   1.0000   1.0000   1.0000
     1.0000   1.0000   1.0000   1.0000   1.0000   1.0000   1.0000   1.0000
     0.0000   0.0000   0.0000   0.0000   0.0000   0.0000   0.0000   0.0000
     0.0000   0.0000

          k =-0.5000 0.0000 0.8538 (  7284 PWs)   bands (ev):

   -13.2577 -13.2577 -13.2513 -13.2513 -13.2486 -13.2486 -13.2433 -13.2433
   -13.2286 -13.2286 -13.2231 -13.2231 -13.2153 -13.2153 -13.1935 -13.1935
   -13.1870 -13.1870 -13.1704 -13.1704  -5.1951  -5.1951  -4.4691  -4.4691
     0.3273   0.3273   1.6291   1.6291   4.6960   4.6960   5.4997   5.4997
     5.8612   5.8612   6.4274   6.4274   6.9831   6.9831   7.7562   7.7562
     9.5837   9.5837  10.0726  10.0726  10.4134  10.4134  11.5181  11.5181
    11.7118  11.7118

     occupation numbers 
     1.0000   1.0000   1.0000   1.0000   1.0000   1.0000   1.0000   1.0000
     1.0000   1.0000   1.0000   1.0000   1.0000   1.0000   1.0000   1.0000
     1.0000   1.0000   1.0000   1.0000   1.0000   1.0000   1.0000   1.0000
     1.0000   1.0000   1.0000   1.0000   1.0000   1.0000   1.0000   1.0000
     1.0000   1.0000   1.0000   1.0000   1.0000   1.0000   1.0000   1.0000
     0.0000   0.0000   0.0000   0.0000   0.0000   0.0000   0.0000   0.0000
     0.0000   0.0000

          k =-0.5000 0.0000-1.2807 (  7268 PWs)   bands (ev):

   -13.2563 -13.2563 -13.2524 -13.2524 -13.2484 -13.2484 -13.2446 -13.2446
   -13.2282 -13.2282 -13.2181 -13.2181 -13.2176 -13.2176 -13.1931 -13.1931
   -13.1877 -13.1877 -13.1705 -13.1705  -4.9283  -4.9283  -4.6312  -4.6312
     0.1457   0.1457   1.2467   1.2467   5.2433   5.2433   5.4909   5.4909
     5.9435   5.9435   6.2876   6.2876   7.5415   7.5415   7.8130   7.8130
     9.3022   9.3022   9.7152   9.7152   9.7709   9.7709  11.1185  11.1185
    11.4686  11.4686

     occupation numbers 
     1.0000   1.0000   1.0000   1.0000   1.0000   1.0000   1.0000   1.0000
     1.0000   1.0000   1.0000   1.0000   1.0000   1.0000   1.0000   1.0000
     1.0000   1.0000   1.0000   1.0000   1.0000   1.0000   1.0000   1.0000
     1.0000   1.0000   1.0000   1.0000   1.0000   1.0000   1.0000   1.0000
     1.0000   1.0000   1.0000   1.0000   1.0000   1.0000   1.0000   1.0000
     0.0000   0.0000   0.0000   0.0000   0.0000   0.0000   0.0000   0.0000
     0.0000   0.0000

          k =-0.5000 0.4527 0.0000 (  7264 PWs)   bands (ev):

   -13.2566 -13.2566 -13.2499 -13.2499 -13.2480 -13.2480 -13.2424 -13.2424
   -13.2328 -13.2328 -13.2281 -13.2281 -13.2134 -13.2134 -13.1929 -13.1929
   -13.1860 -13.1860 -13.1715 -13.1715  -5.4663  -5.4663  -4.3503  -4.3503
     0.9293   0.9293   2.4350   2.4350   4.1473   4.1473   4.8576   4.8576
     5.5297   5.5297   6.1246   6.1246   6.3950   6.3950   7.5915   7.5915
    10.3745  10.3745  10.8682  10.8682  11.3499  11.3499  11.5978  11.5978
    12.8761  12.8762

     occupation numbers 
     1.0000   1.0000   1.0000   1.0000   1.0000   1.0000   1.0000   1.0000
     1.0000   1.0000   1.0000   1.0000   1.0000   1.0000   1.0000   1.0000
     1.0000   1.0000   1.0000   1.0000   1.0000   1.0000   1.0000   1.0000
     1.0000   1.0000   1.0000   1.0000   1.0000   1.0000   1.0000   1.0000
     1.0000   1.0000   1.0000   1.0000   1.0000   1.0000   1.0000   1.0000
     0.0000   0.0000   0.0000   0.0000   0.0000   0.0000   0.0000   0.0000
     0.0000   0.0000

          k =-0.5000 0.4527 0.4269 (  7272 PWs)   bands (ev):

   -13.2566 -13.2566 -13.2510 -13.2510 -13.2471 -13.2471 -13.2434 -13.2434
   -13.2322 -13.2322 -13.2258 -13.2258 -13.2135 -13.2135 -13.1927 -13.1927
   -13.1869 -13.1869 -13.1714 -13.1714  -5.3577  -5.3577  -4.3542  -4.3542
     0.7829   0.7829   2.1680   2.1680   4.1297   4.1297   4.6532   4.6532
     5.4440   5.4440   6.2617   6.2617   7.0751   7.0751   7.5530   7.5530
     9.6832   9.6832  10.7546  10.7546  11.2323  11.2323  11.6450  11.6450
    12.4773  12.4773

     occupation numbers 
     1.0000   1.0000   1.0000   1.0000   1.0000   1.0000   1.0000   1.0000
     1.0000   1.0000   1.0000   1.0000   1.0000   1.0000   1.0000   1.0000
     1.0000   1.0000   1.0000   1.0000   1.0000   1.0000   1.0000   1.0000
     1.0000   1.0000   1.0000   1.0000   1.0000   1.0000   1.0000   1.0000
     1.0000   1.0000   1.0000   1.0000   1.0000   1.0000   1.0000   1.0000
     0.0000   0.0000   0.0000   0.0000   0.0000   0.0000   0.0000   0.0000
     0.0000   0.0000

          k =-0.5000 0.4527 0.8538 (  7282 PWs)   bands (ev):

   -13.2573 -13.2573 -13.2533 -13.2533 -13.2462 -13.2462 -13.2441 -13.2441
   -13.2313 -13.2313 -13.2209 -13.2209 -13.2137 -13.2137 -13.1919 -13.1919
   -13.1887 -13.1887 -13.1711 -13.1711  -5.0756  -5.0756  -4.4223  -4.4223
     0.4679   0.4679   1.6530   1.6530   4.1808   4.1808   4.9875   4.9875
     5.2399   5.2399   6.4368   6.4368   6.8971   6.8971   7.5442   7.5442
     9.7398   9.7398  10.3759  10.3759  10.9207  10.9207  11.5653  11.5653
    12.5064  12.5064

     occupation numbers 
     1.0000   1.0000   1.0000   1.0000   1.0000   1.0000   1.0000   1.0000
     1.0000   1.0000   1.0000   1.0000   1.0000   1.0000   1.0000   1.0000
     1.0000   1.0000   1.0000   1.0000   1.0000   1.0000   1.0000   1.0000
     1.0000   1.0000   1.0000   1.0000   1.0000   1.0000   1.0000   1.0000
     1.0000   1.0000   1.0000   1.0000   1.0000   1.0000   1.0000   1.0000
     0.0000   0.0000   0.0000   0.0000   0.0000   0.0000   0.0000   0.0000
     0.0000   0.0000

          k =-0.5000 0.4527-1.2807 (  7280 PWs)   bands (ev):

   -13.2580 -13.2580 -13.2544 -13.2544 -13.2461 -13.2461 -13.2439 -13.2439
   -13.2310 -13.2310 -13.2179 -13.2179 -13.2141 -13.2141 -13.1908 -13.1908
   -13.1903 -13.1903 -13.1709 -13.1709  -4.8282  -4.8282  -4.5614  -4.5614
     0.3225   0.3225   1.3806   1.3806   4.5927   4.5927   4.7885   4.7885
     5.5558   5.5558   5.9751   5.9751   6.8249   6.8249   7.3417   7.3417
    10.2020  10.2020  10.2592  10.2592  10.7882  10.7882  11.5277  11.5277
    12.4451  12.4451

     occupation numbers 
     1.0000   1.0000   1.0000   1.0000   1.0000   1.0000   1.0000   1.0000
     1.0000   1.0000   1.0000   1.0000   1.0000   1.0000   1.0000   1.0000
     1.0000   1.0000   1.0000   1.0000   1.0000   1.0000   1.0000   1.0000
     1.0000   1.0000   1.0000   1.0000   1.0000   1.0000   1.0000   1.0000
     1.0000   1.0000   1.0000   1.0000   1.0000   1.0000   1.0000   1.0000
     0.0000   0.0000   0.0000   0.0000   0.0000   0.0000   0.0000   0.0000
     0.0000   0.0000

          k =-0.5000 0.9054 0.0000 (  7242 PWs)   bands (ev):

   -13.2568 -13.2568 -13.2521 -13.2521 -13.2425 -13.2425 -13.2412 -13.2412
   -13.2335 -13.2335 -13.2247 -13.2247 -13.2112 -13.2112 -13.1974 -13.1974
   -13.1834 -13.1834 -13.1738 -13.1738  -5.0938  -5.0938  -4.3823  -4.3823
     0.5643   0.5643   1.4041   1.4041   4.6052   4.6052   5.2264   5.2264
     5.9043   5.9043   6.2322   6.2322   6.5491   6.5491   7.6368   7.6368
     9.2245   9.2245  10.1309  10.1309  10.8907  10.8907  11.2858  11.2858
    11.6736  11.6736

     occupation numbers 
     1.0000   1.0000   1.0000   1.0000   1.0000   1.0000   1.0000   1.0000
     1.0000   1.0000   1.0000   1.0000   1.0000   1.0000   1.0000   1.0000
     1.0000   1.0000   1.0000   1.0000   1.0000   1.0000   1.0000   1.0000
     1.0000   1.0000   1.0000   1.0000   1.0000   1.0000   1.0000   1.0000
     1.0000   1.0000   1.0000   1.0000   1.0000   1.0000   1.0000   1.0000
     0.0000   0.0000   0.0000   0.0000   0.0000   0.0000   0.0000   0.0000
     0.0000   0.0000

          k =-0.5000 0.9054 0.4269 (  7260 PWs)   bands (ev):

   -13.2592 -13.2592 -13.2547 -13.2547 -13.2417 -13.2417 -13.2402 -13.2402
   -13.2326 -13.2326 -13.2234 -13.2234 -13.2108 -13.2108 -13.1973 -13.1973
   -13.1835 -13.1835 -13.1735 -13.1735  -5.0025  -5.0025  -4.3654  -4.3654
     0.6607   0.6607   1.4302   1.4302   4.0806   4.0806   4.9039   4.9039
     5.3410   5.3410   6.3181   6.3181   6.6195   6.6195   7.3887   7.3887
     9.7135   9.7135  10.0897  10.0897  11.1654  11.1654  11.5648  11.5648
    12.0996  12.0996

     occupation numbers 
     1.0000   1.0000   1.0000   1.0000   1.0000   1.0000   1.0000   1.0000
     1.0000   1.0000   1.0000   1.0000   1.0000   1.0000   1.0000   1.0000
     1.0000   1.0000   1.0000   1.0000   1.0000   1.0000   1.0000   1.0000
     1.0000   1.0000   1.0000   1.0000   1.0000   1.0000   1.0000   1.0000
     1.0000   1.0000   1.0000   1.0000   1.0000   1.0000   1.0000   1.0000
     0.0000   0.0000   0.0000   0.0000   0.0000   0.0000   0.0000   0.0000
     0.0000   0.0000

          k =-0.5000 0.9054 0.8538 (  7280 PWs)   bands (ev):

   -13.2637 -13.2637 -13.2595 -13.2595 -13.2407 -13.2407 -13.2386 -13.2386
   -13.2311 -13.2311 -13.2210 -13.2210 -13.2093 -13.2093 -13.1969 -13.1969
   -13.1838 -13.1838 -13.1730 -13.1730  -4.7766  -4.7766  -4.3655  -4.3655
     0.7956   0.7956   1.5058   1.5058   3.4928   3.4928   4.3748   4.3748
     4.9026   4.9026   5.5644   5.5644   6.3442   6.3442   7.0948   7.0948
    10.4146  10.4146  11.0017  11.0017  11.1981  11.1981  12.4978  12.4978
    12.6824  12.6824

     occupation numbers 
     1.0000   1.0000   1.0000   1.0000   1.0000   1.0000   1.0000   1.0000
     1.0000   1.0000   1.0000   1.0000   1.0000   1.0000   1.0000   1.0000
     1.0000   1.0000   1.0000   1.0000   1.0000   1.0000   1.0000   1.0000
     1.0000   1.0000   1.0000   1.0000   1.0000   1.0000   1.0000   1.0000
     1.0000   1.0000   1.0000   1.0000   1.0000   1.0000   1.0000   1.0000
     0.0000   0.0000   0.0000   0.0000   0.0000   0.0000   0.0000   0.0000
     0.0000   0.0000

          k =-0.5000 0.9054-1.2807 (  7292 PWs)   bands (ev):

   -13.2659 -13.2659 -13.2618 -13.2618 -13.2404 -13.2404 -13.2380 -13.2380
   -13.2304 -13.2304 -13.2200 -13.2200 -13.2083 -13.2083 -13.1967 -13.1967
   -13.1839 -13.1839 -13.1728 -13.1728  -4.5956  -4.5956  -4.4284  -4.4284
     0.7942   0.7942   1.5953   1.5953   3.6151   3.6151   3.7073   3.7073
     4.9714   4.9714   5.0531   5.0531   6.3814   6.3814   6.7349   6.7349
    10.4914  10.4914  11.2698  11.2698  12.1372  12.1372  12.2366  12.2366
    13.5861  13.5864

     occupation numbers 
     1.0000   1.0000   1.0000   1.0000   1.0000   1.0000   1.0000   1.0000
     1.0000   1.0000   1.0000   1.0000   1.0000   1.0000   1.0000   1.0000
     1.0000   1.0000   1.0000   1.0000   1.0000   1.0000   1.0000   1.0000
     1.0000   1.0000   1.0000   1.0000   1.0000   1.0000   1.0000   1.0000
     1.0000   1.0000   1.0000   1.0000   1.0000   1.0000   1.0000   1.0000
     0.0000   0.0000   0.0000   0.0000   0.0000   0.0000   0.0000   0.0000
     0.0000   0.0000

          k =-0.5000-1.3581 0.0000 (  7228 PWs)   bands (ev):

   -13.2571 -13.2571 -13.2571 -13.2571 -13.2393 -13.2393 -13.2393 -13.2393
   -13.2272 -13.2272 -13.2272 -13.2272 -13.2057 -13.2057 -13.2057 -13.2057
   -13.1776 -13.1776 -13.1776 -13.1776  -4.6506  -4.6506  -4.6506  -4.6506
     0.6672   0.6672   0.6672   0.6672   5.3022   5.3022   5.3022   5.3022
     5.9775   5.9775   5.9775   5.9775   7.0679   7.0679   7.0679   7.0679
     9.5794   9.5794   9.5794   9.5794  10.2424  10.2424  10.2424  10.2424
    12.0013  12.0013

     occupation numbers 
     1.0000   1.0000   1.0000   1.0000   1.0000   1.0000   1.0000   1.0000
     1.0000   1.0000   1.0000   1.0000   1.0000   1.0000   1.0000   1.0000
     1.0000   1.0000   1.0000   1.0000   1.0000   1.0000   1.0000   1.0000
     1.0000   1.0000   1.0000   1.0000   1.0000   1.0000   1.0000   1.0000
     1.0000   1.0000   1.0000   1.0000   1.0000   1.0000   1.0000   1.0000
     0.0000   0.0000   0.0000   0.0000   0.0000   0.0000   0.0000   0.0000
     0.0000   0.0000

          k =-0.5000-1.3581 0.4269 (  7212 PWs)   bands (ev):

   -13.2599 -13.2599 -13.2599 -13.2599 -13.2385 -13.2385 -13.2385 -13.2385
   -13.2265 -13.2265 -13.2265 -13.2265 -13.2050 -13.2050 -13.2050 -13.2050
   -13.1775 -13.1775 -13.1775 -13.1775  -4.5942  -4.5942  -4.5942  -4.5942
     0.8043   0.8043   0.8043   0.8043   4.6674   4.6674   4.6674   4.6674
     5.6440   5.6440   5.6440   5.6440   6.8403   6.8403   6.8403   6.8403
     9.9101   9.9101   9.9101   9.9101  11.3279  11.3279  11.3279  11.3279
    12.2339  12.2339

     occupation numbers 
     1.0000   1.0000   1.0000   1.0000   1.0000   1.0000   1.0000   1.0000
     1.0000   1.0000   1.0000   1.0000   1.0000   1.0000   1.0000   1.0000
     1.0000   1.0000   1.0000   1.0000   1.0000   1.0000   1.0000   1.0000
     1.0000   1.0000   1.0000   1.0000   1.0000   1.0000   1.0000   1.0000
     1.0000   1.0000   1.0000   1.0000   1.0000   1.0000   1.0000   1.0000
     0.0000   0.0000   0.0000   0.0000   0.0000   0.0000   0.0000   0.0000
     0.0000   0.0000

          k =-0.5000-1.3581 0.8538 (  7268 PWs)   bands (ev):

   -13.2654 -13.2654 -13.2654 -13.2654 -13.2374 -13.2374 -13.2374 -13.2374
   -13.2251 -13.2251 -13.2251 -13.2251 -13.2034 -13.2034 -13.2034 -13.2034
   -13.1773 -13.1773 -13.1773 -13.1773  -4.4756  -4.4756  -4.4756  -4.4756
     1.1363   1.1363   1.1363   1.1363   3.7645   3.7645   3.7645   3.7645
     4.8586   4.8586   4.8586   4.8586   6.5651   6.5651   6.5651   6.5651
    10.7495  10.7495  10.7495  10.7495  11.9954  11.9954  11.9954  11.9954
    13.7597  13.7597

     occupation numbers 
     1.0000   1.0000   1.0000   1.0000   1.0000   1.0000   1.0000   1.0000
     1.0000   1.0000   1.0000   1.0000   1.0000   1.0000   1.0000   1.0000
     1.0000   1.0000   1.0000   1.0000   1.0000   1.0000   1.0000   1.0000
     1.0000   1.0000   1.0000   1.0000   1.0000   1.0000   1.0000   1.0000
     1.0000   1.0000   1.0000   1.0000   1.0000   1.0000   1.0000   1.0000
     0.0000   0.0000   0.0000   0.0000   0.0000   0.0000   0.0000   0.0000
     0.0000   0.0000

          k =-0.5000-1.3581-1.2807 (  7288 PWs)   bands (ev):

   -13.2681 -13.2681 -13.2681 -13.2681 -13.2371 -13.2371 -13.2371 -13.2371
   -13.2244 -13.2244 -13.2244 -13.2244 -13.2025 -13.2025 -13.2025 -13.2025
   -13.1772 -13.1772 -13.1772 -13.1772  -4.4129  -4.4129  -4.4129  -4.4129
     1.3467   1.3467   1.3467   1.3467   3.4563   3.4563   3.4563   3.4563
     4.3161   4.3161   4.3161   4.3161   6.5959   6.5959   6.5959   6.5959
    10.6250  10.6250  10.6250  10.6250  12.8400  12.8400  12.8400  12.8400
    14.6051  14.6051

     occupation numbers 
     1.0000   1.0000   1.0000   1.0000   1.0000   1.0000   1.0000   1.0000
     1.0000   1.0000   1.0000   1.0000   1.0000   1.0000   1.0000   1.0000
     1.0000   1.0000   1.0000   1.0000   1.0000   1.0000   1.0000   1.0000
     1.0000   1.0000   1.0000   1.0000   1.0000   1.0000   1.0000   1.0000
     1.0000   1.0000   1.0000   1.0000   1.0000   1.0000   1.0000   1.0000
     0.0000   0.0000   0.0000   0.0000   0.0000   0.0000   0.0000   0.0000
     0.0000   0.0000

     highest occupied, lowest unoccupied level (ev):     8.1002    8.6729

!    total energy              =    -827.61639718 Ry
     estimated scf accuracy    <          1.1E-09 Ry

     The total energy is the sum of the following terms:
     one-electron contribution =    -257.00043781 Ry
     hartree contribution      =     179.11127219 Ry
     xc contribution           =    -309.12241537 Ry
     ewald contribution        =    -440.60481620 Ry

     convergence has been achieved in   9 iterations

     Forces acting on atoms (cartesian axes, Ry/au):

     atom    1 type  2   force =     0.00807150    0.00000000   -0.00037343
     atom    2 type  1   force =    -0.00737723    0.00000000   -0.00107509
     atom    3 type  2   force =    -0.00807150    0.00000000   -0.00037343
     atom    4 type  1   force =     0.00737723   -0.00000000   -0.00107509
     atom    5 type  2   force =     0.00807150    0.00000000    0.00037343
     atom    6 type  1   force =    -0.00737723   -0.00000000    0.00107509
     atom    7 type  2   force =    -0.00807150    0.00000000    0.00037343
     atom    8 type  1   force =     0.00737723    0.00000000    0.00107509
     The non-local contrib.  to forces
     atom    1 type  2   force =    -0.11832558    0.00000000    0.09591981
     atom    2 type  1   force =     0.37334031    0.00000000    0.26607041
     atom    3 type  2   force =     0.11832558    0.00000000    0.09591981
     atom    4 type  1   force =    -0.37334031    0.00000000    0.26607041
     atom    5 type  2   force =    -0.11832558    0.00000000   -0.09591981
     atom    6 type  1   force =     0.37334031    0.00000000   -0.26607041
     atom    7 type  2   force =     0.11832558    0.00000000   -0.09591981
     atom    8 type  1   force =    -0.37334031    0.00000000   -0.26607041
     The ionic contribution  to forces
     atom    1 type  2   force =     1.53473235    0.00000000   -1.05154455
     atom    2 type  1   force =    -1.03769718    0.00000000   -0.57506129
     atom    3 type  2   force =    -1.53473235    0.00000000   -1.05154455
     atom    4 type  1   force =     1.03769718   -0.00000000   -0.57506129
     atom    5 type  2   force =     1.53473235    0.00000000    1.05154455
     atom    6 type  1   force =    -1.03769718   -0.00000000    0.57506129
     atom    7 type  2   force =    -1.53473235   -0.00000000    1.05154455
     atom    8 type  1   force =     1.03769718    0.00000000    0.57506129
     The local contribution  to forces
     atom    1 type  2   force =    -1.42135837   -0.00000000    0.96583020
     atom    2 type  1   force =     0.66282576    0.00000000    0.31226125
     atom    3 type  2   force =     1.42135837   -0.00000000    0.96583020
     atom    4 type  1   force =    -0.66282576    0.00000000    0.31226125
     atom    5 type  2   force =    -1.42135837    0.00000000   -0.96583020
     atom    6 type  1   force =     0.66282576    0.00000000   -0.31226125
     atom    7 type  2   force =     1.42135837    0.00000000   -0.96583020
     atom    8 type  1   force =    -0.66282576    0.00000000   -0.31226125
     The core correction contribution to forces
     atom    1 type  2   force =     0.01299236   -0.00000000   -0.01057936
     atom    2 type  1   force =    -0.00578142   -0.00000000   -0.00437407
     atom    3 type  2   force =    -0.01299236   -0.00000000   -0.01057936
     atom    4 type  1   force =     0.00578142    0.00000000   -0.00437407
     atom    5 type  2   force =     0.01299236   -0.00000000    0.01057936
     atom    6 type  1   force =    -0.00578142    0.00000000    0.00437407
     atom    7 type  2   force =    -0.01299236   -0.00000000    0.01057936
     atom    8 type  1   force =     0.00578142    0.00000000    0.00437407
     The Hubbard contrib.    to forces
     atom    1 type  2   force =     0.00000000    0.00000000    0.00000000
     atom    2 type  1   force =     0.00000000    0.00000000    0.00000000
     atom    3 type  2   force =     0.00000000    0.00000000    0.00000000
     atom    4 type  1   force =     0.00000000    0.00000000    0.00000000
     atom    5 type  2   force =     0.00000000    0.00000000    0.00000000
     atom    6 type  1   force =     0.00000000    0.00000000    0.00000000
     atom    7 type  2   force =     0.00000000    0.00000000    0.00000000
     atom    8 type  1   force =     0.00000000    0.00000000    0.00000000
     The SCF correction term to forces
     atom    1 type  2   force =     0.00003075    0.00000000    0.00000048
     atom    2 type  1   force =    -0.00006469   -0.00000000    0.00002861
     atom    3 type  2   force =    -0.00003075    0.00000000    0.00000048
     atom    4 type  1   force =     0.00006469   -0.00000000    0.00002861
     atom    5 type  2   force =     0.00003075   -0.00000000   -0.00000048
     atom    6 type  1   force =    -0.00006469   -0.00000000   -0.00002861
     atom    7 type  2   force =    -0.00003075   -0.00000000   -0.00000048
     atom    8 type  1   force =     0.00006469    0.00000000   -0.00002861

     Total force =     0.021988     Total SCF correction =     0.000154

     Writing output data file ./tmp/SnSe_pnma.save/

     init_run     :      8.70s CPU      8.73s WALL (       1 calls)
     electrons    :    194.98s CPU    174.65s WALL (       1 calls)
     forces       :      6.37s CPU      6.36s WALL (       1 calls)

     Called by init_run:
     wfcinit      :      4.56s CPU      4.22s WALL (       1 calls)
     wfcinit:atom :      0.05s CPU      0.04s WALL (       8 calls)
     wfcinit:wfcr :      4.08s CPU      3.85s WALL (       8 calls)
     potinit      :      0.98s CPU      1.05s WALL (       1 calls)
     hinit0       :      1.93s CPU      1.94s WALL (       1 calls)

     Called by electrons:
     c_bands      :    157.55s CPU    137.60s WALL (       9 calls)
     sum_band     :     26.54s CPU     23.65s WALL (       9 calls)
     v_of_rho     :      2.98s CPU      3.44s WALL (      10 calls)
     v_h          :      0.19s CPU      0.19s WALL (      10 calls)
     v_xc         :      3.05s CPU      3.54s WALL (      11 calls)
     newd         :      8.58s CPU     10.94s WALL (      10 calls)
     mix_rho      :      0.44s CPU      0.43s WALL (       9 calls)

     Called by c_bands:
     init_us_2    :      1.76s CPU      1.33s WALL (     160 calls)
     cegterg      :    118.42s CPU    102.20s WALL (      72 calls)

     Called by sum_band:
     sum_band:wei :      0.00s CPU      0.00s WALL (       9 calls)
     sum_band:loo :     16.85s CPU     14.24s WALL (       9 calls)
     sum_band:buf :      0.15s CPU      0.10s WALL (      72 calls)
     sum_band:ini :      0.81s CPU      0.58s WALL (      72 calls)
     sum_band:cal :      3.31s CPU      3.69s WALL (      72 calls)
     sum_band:bec :      0.01s CPU      0.01s WALL (      72 calls)
     addusdens    :      6.33s CPU      6.36s WALL (       9 calls)
     addusd:skk   :      0.02s CPU      0.03s WALL (      18 calls)
     addusd:dgemm :      2.53s CPU      2.36s WALL (      18 calls)
     addusd:qvan2 :      3.32s CPU      2.80s WALL (      18 calls)

     Called by *egterg:
     cdiaghg      :      6.61s CPU      7.53s WALL (     318 calls)
     cegterg:over :     13.70s CPU     14.09s WALL (     246 calls)
     cegterg:upda :      4.24s CPU      1.86s WALL (     246 calls)
     cegterg:last :      7.48s CPU      2.13s WALL (     150 calls)
     h_psi        :     71.74s CPU     62.45s WALL (     326 calls)
     s_psi        :      7.83s CPU      2.22s WALL (     326 calls)
     g_psi        :      0.67s CPU      0.49s WALL (     246 calls)

     Called by h_psi:
     h_psi:calbec :     12.07s CPU     14.24s WALL (     326 calls)
     vloc_psi     :     51.15s CPU     44.98s WALL (     326 calls)
     add_vuspsi   :      7.87s CPU      2.23s WALL (     326 calls)

     General routines
     calbec       :     16.66s CPU     18.93s WALL (     430 calls)
     fft          :      1.57s CPU      1.53s WALL (     139 calls)
     ffts         :      0.06s CPU      0.06s WALL (      19 calls)
     fftw         :     53.50s CPU     46.23s WALL (   23110 calls)
     interpolate  :      0.16s CPU      0.16s WALL (      10 calls)

     Parallel routines

     PWSCF        :   3m30.60s CPU   3m10.31s WALL


   This run was terminated on:  18:56:10   5May2026            

=------------------------------------------------------------------------------=
   JOB DONE.
=------------------------------------------------------------------------------=
