
     Program PWSCF v.6.7MaX starts on  5May2026 at 19: 3:48 

     This program is part of the open-source Quantum ESPRESSO suite
     for quantum simulation of materials; please cite
         "P. Giannozzi et al., J. Phys.:Condens. Matter 21 395502 (2009);
         "P. Giannozzi et al., J. Phys.:Condens. Matter 29 465901 (2017);
          URL http://www.quantum-espresso.org", 
     in publications or presentations arising from this work. More details at
     http://www.quantum-espresso.org/quote

     Parallel version (MPI), running on     4 processors

     MPI processes distributed on     1 nodes
     K-points division:     npool     =       4
     Waiting for input...
     Reading input from standard input

     Current dimensions of program PWSCF are:
     Max number of different atomic species (ntypx) = 10
     Max number of k-points (npk) =  40000
     Max angular momentum in pseudopotentials (lmaxx) =  3

     Subspace diagonalization in iterative solution of the eigenvalue problem:
     a serial algorithm will be used


     G-vector sticks info
     --------------------
     sticks:   dense  smooth     PW     G-vecs:    dense   smooth      PW
     Sum        8111    3239    941               353691    89523   13851



     bravais-lattice index     =            8
     lattice parameter (alat)  =      21.4862  a.u.
     unit-cell volume          =    1425.7436 (a.u.)^3
     number of atoms/cell      =            8
     number of atomic types    =            2
     number of electrons       =        80.00
     number of Kohn-Sham states=           50
     kinetic-energy cutoff     =      60.0000  Ry
     charge density cutoff     =     600.0000  Ry
     scf convergence threshold =      1.0E-08
     mixing beta               =       0.7000
     number of iterations used =            8  plain     mixing
     Exchange-correlation= SLA  PW   PBE  PBE
                           (   1   4   3   4   0   0   0)

     celldm(1)=  21.486186  celldm(2)=   0.368162  celldm(3)=   0.390413
     celldm(4)=   0.000000  celldm(5)=   0.000000  celldm(6)=   0.000000

     crystal axes: (cart. coord. in units of alat)
               a(1) = (   1.000000   0.000000   0.000000 )  
               a(2) = (   0.000000   0.368162   0.000000 )  
               a(3) = (   0.000000   0.000000   0.390413 )  

     reciprocal axes: (cart. coord. in units 2 pi/alat)
               b(1) = (  1.000000  0.000000  0.000000 )  
               b(2) = (  0.000000  2.716197  0.000000 )  
               b(3) = (  0.000000  0.000000  2.561388 )  


     PseudoPot. # 1 for Sn read from file:
     ../pseudo/Sn_pbe_v1.uspp.F.UPF
     MD5 check sum: 4cf58ce39ec5d5d420df3dd08604eb00
     Pseudo is Ultrasoft + core correction, Zval = 14.0
     Generated by new atomic code, or converted to UPF format
     Using radial grid of  891 points,  6 beta functions with: 
                l(1) =   0
                l(2) =   0
                l(3) =   1
                l(4) =   1
                l(5) =   2
                l(6) =   2
     Q(r) pseudized with  6 coefficients,  rinner =    1.200   1.200   1.200
                                                       1.200   1.200

     PseudoPot. # 2 for Se read from file:
     ../pseudo/Se_pbe_v1.uspp.F.UPF
     MD5 check sum: 1b3568f3a8ae88f9a2a0ad0698632c85
     Pseudo is Ultrasoft + core correction, Zval =  6.0
     Generated by new atomic code, or converted to UPF format
     Using radial grid of  877 points,  6 beta functions with: 
                l(1) =   0
                l(2) =   0
                l(3) =   1
                l(4) =   1
                l(5) =   2
                l(6) =   2
     Q(r) pseudized with  8 coefficients,  rinner =    1.300   1.300   1.300
                                                       1.300   1.300

     atomic species   valence    mass     pseudopotential
        Sn            14.00   118.71000     Sn( 1.00)
        Se             6.00    78.97100     Se( 1.00)

      8 Sym. Ops., with inversion, found ( 6 have fractional translation)


                                    s                        frac. trans.

      isym =  1     identity                                     

 cryst.   s( 1) = (     1          0          0      )
                  (     0          1          0      )
                  (     0          0          1      )

 cart.    s( 1) = (  1.0000000  0.0000000  0.0000000 )
                  (  0.0000000  1.0000000  0.0000000 )
                  (  0.0000000  0.0000000  1.0000000 )


      isym =  2     180 deg rotation - cart. axis [0,0,1]        

 cryst.   s( 2) = (    -1          0          0      )    f =(  0.5000000 )
                  (     0         -1          0      )       (  0.0000000 )
                  (     0          0          1      )       (  0.5000000 )

 cart.    s( 2) = ( -1.0000000  0.0000000  0.0000000 )    f =(  0.5000000 )
                  (  0.0000000 -1.0000000  0.0000000 )       (  0.0000000 )
                  (  0.0000000  0.0000000  1.0000000 )       (  0.1952067 )


      isym =  3     180 deg rotation - cart. axis [0,1,0]        

 cryst.   s( 3) = (    -1          0          0      )    f =(  0.0000000 )
                  (     0          1          0      )       ( -0.5000000 )
                  (     0          0         -1      )       (  0.0000000 )

 cart.    s( 3) = ( -1.0000000  0.0000000  0.0000000 )    f =(  0.0000000 )
                  (  0.0000000  1.0000000  0.0000000 )       ( -0.1840809 )
                  (  0.0000000  0.0000000 -1.0000000 )       (  0.0000000 )


      isym =  4     180 deg rotation - cart. axis [1,0,0]        

 cryst.   s( 4) = (     1          0          0      )    f =(  0.5000000 )
                  (     0         -1          0      )       (  0.5000000 )
                  (     0          0         -1      )       (  0.5000000 )

 cart.    s( 4) = (  1.0000000  0.0000000  0.0000000 )    f =(  0.5000000 )
                  (  0.0000000 -1.0000000  0.0000000 )       (  0.1840809 )
                  (  0.0000000  0.0000000 -1.0000000 )       (  0.1952067 )


      isym =  5     inversion                                    

 cryst.   s( 5) = (    -1          0          0      )
                  (     0         -1          0      )
                  (     0          0         -1      )

 cart.    s( 5) = ( -1.0000000  0.0000000  0.0000000 )
                  (  0.0000000 -1.0000000  0.0000000 )
                  (  0.0000000  0.0000000 -1.0000000 )


      isym =  6     inv. 180 deg rotation - cart. axis [0,0,1]   

 cryst.   s( 6) = (     1          0          0      )    f =(  0.5000000 )
                  (     0          1          0      )       (  0.0000000 )
                  (     0          0         -1      )       (  0.5000000 )

 cart.    s( 6) = (  1.0000000  0.0000000  0.0000000 )    f =(  0.5000000 )
                  (  0.0000000  1.0000000  0.0000000 )       (  0.0000000 )
                  (  0.0000000  0.0000000 -1.0000000 )       (  0.1952067 )


      isym =  7     inv. 180 deg rotation - cart. axis [0,1,0]   

 cryst.   s( 7) = (     1          0          0      )    f =(  0.0000000 )
                  (     0         -1          0      )       (  0.5000000 )
                  (     0          0          1      )       (  0.0000000 )

 cart.    s( 7) = (  1.0000000  0.0000000  0.0000000 )    f =(  0.0000000 )
                  (  0.0000000 -1.0000000  0.0000000 )       (  0.1840809 )
                  (  0.0000000  0.0000000  1.0000000 )       (  0.0000000 )


      isym =  8     inv. 180 deg rotation - cart. axis [1,0,0]   

 cryst.   s( 8) = (    -1          0          0      )    f =(  0.5000000 )
                  (     0          1          0      )       ( -0.5000000 )
                  (     0          0          1      )       (  0.5000000 )

 cart.    s( 8) = ( -1.0000000  0.0000000  0.0000000 )    f =(  0.5000000 )
                  (  0.0000000  1.0000000  0.0000000 )       ( -0.1840809 )
                  (  0.0000000  0.0000000  1.0000000 )       (  0.1952067 )


     point group D_2h (mmm) 
     there are  8 classes
     the character table:

       E     C2    C2'   C2''  i     s_v   s_v'  s_v''
A_g    1.00  1.00  1.00  1.00  1.00  1.00  1.00  1.00
B_1g   1.00  1.00 -1.00 -1.00  1.00  1.00 -1.00 -1.00
B_2g   1.00 -1.00  1.00 -1.00  1.00 -1.00  1.00 -1.00
B_3g   1.00 -1.00 -1.00  1.00  1.00 -1.00 -1.00  1.00
A_u    1.00  1.00  1.00  1.00 -1.00 -1.00 -1.00 -1.00
B_1u   1.00  1.00 -1.00 -1.00 -1.00 -1.00  1.00  1.00
B_2u   1.00 -1.00  1.00 -1.00 -1.00  1.00 -1.00  1.00
B_3u   1.00 -1.00 -1.00  1.00 -1.00  1.00  1.00 -1.00

     the symmetry operations in each class and the name of the first element:

     E        1
          identity                                               
     C2       2
          180 deg rotation - cart. axis [0,0,1]                  
     C2'      4
          180 deg rotation - cart. axis [1,0,0]                  
     C2''     3
          180 deg rotation - cart. axis [0,1,0]                  
     i        5
          inversion                                              
     s_v      6
          inv. 180 deg rotation - cart. axis [0,0,1]             
     s_v'     8
          inv. 180 deg rotation - cart. axis [1,0,0]             
     s_v''    7
          inv. 180 deg rotation - cart. axis [0,1,0]             

   Cartesian axes

     site n.     atom                  positions (alat units)
         1           Se  tau(   1) = (   0.8555000   0.0920405   0.1884916  )
         2           Sn  tau(   2) = (   0.1187000   0.0920405   0.0385728  )
         3           Se  tau(   3) = (   0.6445000   0.2761214   0.3836983  )
         4           Sn  tau(   4) = (   0.3813000   0.2761214   0.2337795  )
         5           Se  tau(   5) = (   0.3555000   0.0920405   0.0067151  )
         6           Sn  tau(   6) = (   0.6187000   0.0920405   0.1566338  )
         7           Se  tau(   7) = (   0.1445000   0.2761214   0.2019218  )
         8           Sn  tau(   8) = (   0.8813000   0.2761214   0.3518405  )

   Crystallographic axes

     site n.     atom                  positions (cryst. coord.)
         1           Se  tau(   1) = (  0.8555000  0.2500000  0.4828000  )
         2           Sn  tau(   2) = (  0.1187000  0.2500000  0.0988000  )
         3           Se  tau(   3) = (  0.6445000  0.7500000  0.9828000  )
         4           Sn  tau(   4) = (  0.3813000  0.7500000  0.5988000  )
         5           Se  tau(   5) = (  0.3555000  0.2500000  0.0172000  )
         6           Sn  tau(   6) = (  0.6187000  0.2500000  0.4012000  )
         7           Se  tau(   7) = (  0.1445000  0.7500000  0.5172000  )
         8           Sn  tau(   8) = (  0.8813000  0.7500000  0.9012000  )

     number of k points=    32
                       cart. coord. in units 2pi/alat
        k(    1) = (   0.0000000   0.0000000   0.0000000), wk =   0.0277778
        k(    2) = (   0.0000000   0.0000000   0.4268979), wk =   0.0555556
        k(    3) = (   0.0000000   0.0000000   0.8537959), wk =   0.0555556
        k(    4) = (   0.0000000   0.0000000  -1.2806938), wk =   0.0277778
        k(    5) = (   0.0000000   0.4526995   0.0000000), wk =   0.0555556
        k(    6) = (   0.0000000   0.4526995   0.4268979), wk =   0.1111111
        k(    7) = (   0.0000000   0.4526995   0.8537959), wk =   0.1111111
        k(    8) = (   0.0000000   0.4526995  -1.2806938), wk =   0.0555556
        k(    9) = (   0.0000000   0.9053989   0.0000000), wk =   0.0555556
        k(   10) = (   0.0000000   0.9053989   0.4268979), wk =   0.1111111
        k(   11) = (   0.0000000   0.9053989   0.8537959), wk =   0.1111111
        k(   12) = (   0.0000000   0.9053989  -1.2806938), wk =   0.0555556
        k(   13) = (   0.0000000  -1.3580984   0.0000000), wk =   0.0277778
        k(   14) = (   0.0000000  -1.3580984   0.4268979), wk =   0.0555556
        k(   15) = (   0.0000000  -1.3580984   0.8537959), wk =   0.0555556
        k(   16) = (   0.0000000  -1.3580984  -1.2806938), wk =   0.0277778
        k(   17) = (  -0.5000000   0.0000000   0.0000000), wk =   0.0277778
        k(   18) = (  -0.5000000   0.0000000   0.4268979), wk =   0.0555556
        k(   19) = (  -0.5000000   0.0000000   0.8537959), wk =   0.0555556
        k(   20) = (  -0.5000000   0.0000000  -1.2806938), wk =   0.0277778
        k(   21) = (  -0.5000000   0.4526995   0.0000000), wk =   0.0555556
        k(   22) = (  -0.5000000   0.4526995   0.4268979), wk =   0.1111111
        k(   23) = (  -0.5000000   0.4526995   0.8537959), wk =   0.1111111
        k(   24) = (  -0.5000000   0.4526995  -1.2806938), wk =   0.0555556
        k(   25) = (  -0.5000000   0.9053989   0.0000000), wk =   0.0555556
        k(   26) = (  -0.5000000   0.9053989   0.4268979), wk =   0.1111111
        k(   27) = (  -0.5000000   0.9053989   0.8537959), wk =   0.1111111
        k(   28) = (  -0.5000000   0.9053989  -1.2806938), wk =   0.0555556
        k(   29) = (  -0.5000000  -1.3580984   0.0000000), wk =   0.0277778
        k(   30) = (  -0.5000000  -1.3580984   0.4268979), wk =   0.0555556
        k(   31) = (  -0.5000000  -1.3580984   0.8537959), wk =   0.0555556
        k(   32) = (  -0.5000000  -1.3580984  -1.2806938), wk =   0.0277778

                       cryst. coord.
        k(    1) = (   0.0000000   0.0000000   0.0000000), wk =   0.0277778
        k(    2) = (   0.0000000   0.0000000   0.1666667), wk =   0.0555556
        k(    3) = (   0.0000000   0.0000000   0.3333333), wk =   0.0555556
        k(    4) = (   0.0000000   0.0000000  -0.5000000), wk =   0.0277778
        k(    5) = (   0.0000000   0.1666667   0.0000000), wk =   0.0555556
        k(    6) = (   0.0000000   0.1666667   0.1666667), wk =   0.1111111
        k(    7) = (   0.0000000   0.1666667   0.3333333), wk =   0.1111111
        k(    8) = (   0.0000000   0.1666667  -0.5000000), wk =   0.0555556
        k(    9) = (   0.0000000   0.3333333   0.0000000), wk =   0.0555556
        k(   10) = (   0.0000000   0.3333333   0.1666667), wk =   0.1111111
        k(   11) = (   0.0000000   0.3333333   0.3333333), wk =   0.1111111
        k(   12) = (   0.0000000   0.3333333  -0.5000000), wk =   0.0555556
        k(   13) = (   0.0000000  -0.5000000   0.0000000), wk =   0.0277778
        k(   14) = (   0.0000000  -0.5000000   0.1666667), wk =   0.0555556
        k(   15) = (   0.0000000  -0.5000000   0.3333333), wk =   0.0555556
        k(   16) = (   0.0000000  -0.5000000  -0.5000000), wk =   0.0277778
        k(   17) = (  -0.5000000   0.0000000   0.0000000), wk =   0.0277778
        k(   18) = (  -0.5000000   0.0000000   0.1666667), wk =   0.0555556
        k(   19) = (  -0.5000000   0.0000000   0.3333333), wk =   0.0555556
        k(   20) = (  -0.5000000   0.0000000  -0.5000000), wk =   0.0277778
        k(   21) = (  -0.5000000   0.1666667   0.0000000), wk =   0.0555556
        k(   22) = (  -0.5000000   0.1666667   0.1666667), wk =   0.1111111
        k(   23) = (  -0.5000000   0.1666667   0.3333333), wk =   0.1111111
        k(   24) = (  -0.5000000   0.1666667  -0.5000000), wk =   0.0555556
        k(   25) = (  -0.5000000   0.3333333   0.0000000), wk =   0.0555556
        k(   26) = (  -0.5000000   0.3333333   0.1666667), wk =   0.1111111
        k(   27) = (  -0.5000000   0.3333333   0.3333333), wk =   0.1111111
        k(   28) = (  -0.5000000   0.3333333  -0.5000000), wk =   0.0555556
        k(   29) = (  -0.5000000  -0.5000000   0.0000000), wk =   0.0277778
        k(   30) = (  -0.5000000  -0.5000000   0.1666667), wk =   0.0555556
        k(   31) = (  -0.5000000  -0.5000000   0.3333333), wk =   0.0555556
        k(   32) = (  -0.5000000  -0.5000000  -0.5000000), wk =   0.0277778

     Dense  grid:   353691 G-vectors     FFT dimensions: ( 180,  64,  72)

     Smooth grid:    89523 G-vectors     FFT dimensions: ( 108,  40,  48)

     Dynamical RAM for                 wfc:       8.54 MB

     Dynamical RAM for     wfc (w. buffer):      76.84 MB

     Dynamical RAM for           str. fact:      10.79 MB

     Dynamical RAM for           local pot:       0.00 MB

     Dynamical RAM for          nlocal pot:      24.59 MB

     Dynamical RAM for                qrad:       3.93 MB

     Dynamical RAM for          rho,v,vnew:      35.18 MB

     Dynamical RAM for               rhoin:      11.73 MB

     Dynamical RAM for            rho*nmix:      86.35 MB

     Dynamical RAM for           G-vectors:      20.92 MB

     Dynamical RAM for          h,s,v(r/c):       0.46 MB

     Dynamical RAM for          <psi|beta>:       0.11 MB

     Dynamical RAM for                 psi:      17.07 MB

     Dynamical RAM for                hpsi:      17.07 MB

     Dynamical RAM for                spsi:      17.07 MB

     Dynamical RAM for      wfcinit/wfcrot:      17.82 MB

     Dynamical RAM for           addusdens:     260.40 MB

     Dynamical RAM for          addusforce:     267.16 MB

     Estimated static dynamical RAM per process >     318.15 MB

     Estimated max dynamical RAM per process >     585.31 MB

     Estimated total dynamical RAM >       2.29 GB

     Initial potential from superposition of free atoms

     starting charge   75.99954, renormalised to   80.00000
     Starting wfcs are   52 randomized atomic wfcs

     total cpu time spent up to now is       13.6 secs

     Self-consistent Calculation

     iteration #  1     ecut=    60.00 Ry     beta= 0.70
     Davidson diagonalization with overlap
     ethr =  1.00E-02,  avg # of iterations =  3.7

     total cpu time spent up to now is       47.2 secs

     total energy              =    -826.55317255 Ry
     estimated scf accuracy    <       2.63028774 Ry

     iteration #  2     ecut=    60.00 Ry     beta= 0.70
     Davidson diagonalization with overlap
     ethr =  3.29E-03,  avg # of iterations =  2.0

     total cpu time spent up to now is       75.7 secs

     total energy              =    -827.33779841 Ry
     estimated scf accuracy    <       1.09048277 Ry

     iteration #  3     ecut=    60.00 Ry     beta= 0.70
     Davidson diagonalization with overlap
     ethr =  1.36E-03,  avg # of iterations =  2.0

     total cpu time spent up to now is      101.3 secs

     total energy              =    -827.60909597 Ry
     estimated scf accuracy    <       0.06103676 Ry

     iteration #  4     ecut=    60.00 Ry     beta= 0.70
     Davidson diagonalization with overlap
     ethr =  7.63E-05,  avg # of iterations =  3.5

     total cpu time spent up to now is      127.8 secs

     total energy              =    -827.62017631 Ry
     estimated scf accuracy    <       0.00300910 Ry

     iteration #  5     ecut=    60.00 Ry     beta= 0.70
     Davidson diagonalization with overlap
     ethr =  3.76E-06,  avg # of iterations =  5.1

     total cpu time spent up to now is      159.9 secs

     total energy              =    -827.62084448 Ry
     estimated scf accuracy    <       0.00081149 Ry

     iteration #  6     ecut=    60.00 Ry     beta= 0.70
     Davidson diagonalization with overlap
     ethr =  1.01E-06,  avg # of iterations =  2.1

     total cpu time spent up to now is      185.9 secs

     total energy              =    -827.62101949 Ry
     estimated scf accuracy    <       0.00004526 Ry

     iteration #  7     ecut=    60.00 Ry     beta= 0.70
     Davidson diagonalization with overlap
     ethr =  5.66E-08,  avg # of iterations =  5.0

     total cpu time spent up to now is      220.6 secs

     total energy              =    -827.62104819 Ry
     estimated scf accuracy    <       0.00000272 Ry

     iteration #  8     ecut=    60.00 Ry     beta= 0.70
     Davidson diagonalization with overlap
     ethr =  3.40E-09,  avg # of iterations =  3.6

     total cpu time spent up to now is      251.1 secs

     total energy              =    -827.62104929 Ry
     estimated scf accuracy    <       0.00000044 Ry

     iteration #  9     ecut=    60.00 Ry     beta= 0.70
     Davidson diagonalization with overlap
     ethr =  5.52E-10,  avg # of iterations =  3.0

     total cpu time spent up to now is      279.3 secs

     End of self-consistent calculation

          k = 0.0000 0.0000 0.0000 ( 11195 PWs)   bands (ev):

   -13.2682 -13.2564 -13.2532 -13.2507 -13.2505 -13.2466 -13.2436 -13.2397
   -13.2354 -13.2345 -13.2339 -13.2268 -13.2193 -13.2130 -13.1984 -13.1933
   -13.1884 -13.1846 -13.1769 -13.1676  -5.7459  -5.3957  -4.6587  -4.1587
     0.8110   1.9491   2.5400   3.0755   3.2305   4.6639   4.7022   4.7769
     5.1826   5.2390   5.8114   6.3115   6.5363   6.9891   7.4009   7.5700
     8.8494  10.9515  11.0997  11.1323  11.3571  11.4508  12.3344  12.6293
    12.7026  12.7424

     occupation numbers 
     1.0000   1.0000   1.0000   1.0000   1.0000   1.0000   1.0000   1.0000
     1.0000   1.0000   1.0000   1.0000   1.0000   1.0000   1.0000   1.0000
     1.0000   1.0000   1.0000   1.0000   1.0000   1.0000   1.0000   1.0000
     1.0000   1.0000   1.0000   1.0000   1.0000   1.0000   1.0000   1.0000
     1.0000   1.0000   1.0000   1.0000   1.0000   1.0000   1.0000   1.0000
     0.0000   0.0000   0.0000   0.0000   0.0000   0.0000   0.0000   0.0000
     0.0000   0.0000

          k = 0.0000 0.0000 0.4269 ( 11195 PWs)   bands (ev):

   -13.2667 -13.2550 -13.2534 -13.2519 -13.2497 -13.2486 -13.2442 -13.2405
   -13.2348 -13.2326 -13.2303 -13.2271 -13.2185 -13.2136 -13.1984 -13.1925
   -13.1895 -13.1854 -13.1762 -13.1682  -5.6277  -5.2874  -4.6451  -4.1906
     0.4464   1.7108   1.9314   2.6887   3.2165   4.8188   4.8447   5.3355
     5.3458   5.9064   5.9282   6.5185   6.5924   7.0992   7.4477   7.5872
     8.9714  10.0942  10.7258  10.9023  11.1416  11.4572  11.9010  12.0693
    12.5321  12.7680

     occupation numbers 
     1.0000   1.0000   1.0000   1.0000   1.0000   1.0000   1.0000   1.0000
     1.0000   1.0000   1.0000   1.0000   1.0000   1.0000   1.0000   1.0000
     1.0000   1.0000   1.0000   1.0000   1.0000   1.0000   1.0000   1.0000
     1.0000   1.0000   1.0000   1.0000   1.0000   1.0000   1.0000   1.0000
     1.0000   1.0000   1.0000   1.0000   1.0000   1.0000   1.0000   1.0000
     0.0000   0.0000   0.0000   0.0000   0.0000   0.0000   0.0000   0.0000
     0.0000   0.0000

          k = 0.0000 0.0000 0.8538 ( 11209 PWs)   bands (ev):

   -13.2626 -13.2548 -13.2542 -13.2524 -13.2522 -13.2488 -13.2452 -13.2429
   -13.2329 -13.2283 -13.2265 -13.2239 -13.2177 -13.2156 -13.1976 -13.1921
   -13.1909 -13.1871 -13.1744 -13.1698  -5.3120  -4.9961  -4.6888  -4.3310
    -0.0227   0.8107   1.3649   1.9824   3.6442   5.0244   5.3390   5.7840
     6.1139   6.1247   6.3716   6.6087   6.8451   7.4419   7.5932   8.1002
     8.9970   9.5561   9.5822   9.7387  10.4724  10.5768  11.0918  11.2233
    11.9936  12.1195

     occupation numbers 
     1.0000   1.0000   1.0000   1.0000   1.0000   1.0000   1.0000   1.0000
     1.0000   1.0000   1.0000   1.0000   1.0000   1.0000   1.0000   1.0000
     1.0000   1.0000   1.0000   1.0000   1.0000   1.0000   1.0000   1.0000
     1.0000   1.0000   1.0000   1.0000   1.0000   1.0000   1.0000   1.0000
     1.0000   1.0000   1.0000   1.0000   1.0000   1.0000   1.0000   1.0000
     0.0000   0.0000   0.0000   0.0000   0.0000   0.0000   0.0000   0.0000
     0.0000   0.0000

          k = 0.0000 0.0000-1.2807 ( 11180 PWs)   bands (ev):

   -13.2581 -13.2581 -13.2548 -13.2548 -13.2497 -13.2497 -13.2450 -13.2450
   -13.2304 -13.2304 -13.2202 -13.2202 -13.2188 -13.2188 -13.1952 -13.1952
   -13.1890 -13.1890 -13.1721 -13.1721  -4.9315  -4.9315  -4.6268  -4.6268
     0.0662   0.0662   1.4337   1.4337   4.3910   4.3910   5.9300   5.9300
     6.3071   6.3071   6.6794   6.6794   7.2610   7.2610   7.7978   7.7978
     9.3223   9.3223   9.6519   9.6519   9.7893   9.7893  10.7610  10.7610
    11.2254  11.2254

     occupation numbers 
     1.0000   1.0000   1.0000   1.0000   1.0000   1.0000   1.0000   1.0000
     1.0000   1.0000   1.0000   1.0000   1.0000   1.0000   1.0000   1.0000
     1.0000   1.0000   1.0000   1.0000   1.0000   1.0000   1.0000   1.0000
     1.0000   1.0000   1.0000   1.0000   1.0000   1.0000   1.0000   1.0000
     1.0000   1.0000   1.0000   1.0000   1.0000   1.0000   1.0000   1.0000
     0.0000   0.0000   0.0000   0.0000   0.0000   0.0000   0.0000   0.0000
     0.0000   0.0000

          k = 0.0000 0.4527 0.0000 ( 11175 PWs)   bands (ev):

   -13.2622 -13.2543 -13.2527 -13.2499 -13.2484 -13.2479 -13.2476 -13.2423
   -13.2381 -13.2318 -13.2305 -13.2289 -13.2156 -13.2140 -13.1954 -13.1949
   -13.1880 -13.1864 -13.1769 -13.1698  -5.5977  -5.2703  -4.5968  -4.1702
     0.6098   1.5564   2.3404   2.3702   3.2407   4.6344   4.9625   5.0881
     5.1741   5.3993   6.1253   6.3947   6.5252   7.4130   7.4276   7.4284
     9.0703   9.9280  10.8648  11.1287  11.2212  11.4502  11.8181  11.8711
    12.5547  13.1377

     occupation numbers 
     1.0000   1.0000   1.0000   1.0000   1.0000   1.0000   1.0000   1.0000
     1.0000   1.0000   1.0000   1.0000   1.0000   1.0000   1.0000   1.0000
     1.0000   1.0000   1.0000   1.0000   1.0000   1.0000   1.0000   1.0000
     1.0000   1.0000   1.0000   1.0000   1.0000   1.0000   1.0000   1.0000
     1.0000   1.0000   1.0000   1.0000   1.0000   1.0000   1.0000   1.0000
     0.0000   0.0000   0.0000   0.0000   0.0000   0.0000   0.0000   0.0000
     0.0000   0.0000

          k = 0.0000 0.4527 0.4269 ( 11198 PWs)   bands (ev):

   -13.2619 -13.2544 -13.2541 -13.2494 -13.2489 -13.2484 -13.2468 -13.2444
   -13.2374 -13.2306 -13.2290 -13.2264 -13.2163 -13.2133 -13.1959 -13.1939
   -13.1886 -13.1874 -13.1763 -13.1701  -5.4839  -5.1672  -4.5820  -4.1923
     0.4174   1.5348   1.8464   2.2901   3.3522   4.1007   4.3250   5.4219
     5.5921   5.9100   6.0305   6.3506   7.0708   7.2023   7.5515   7.6540
     9.1844   9.6441  10.1417  10.1807  11.1823  11.3138  11.8772  12.0786
    12.5643  12.9659

     occupation numbers 
     1.0000   1.0000   1.0000   1.0000   1.0000   1.0000   1.0000   1.0000
     1.0000   1.0000   1.0000   1.0000   1.0000   1.0000   1.0000   1.0000
     1.0000   1.0000   1.0000   1.0000   1.0000   1.0000   1.0000   1.0000
     1.0000   1.0000   1.0000   1.0000   1.0000   1.0000   1.0000   1.0000
     1.0000   1.0000   1.0000   1.0000   1.0000   1.0000   1.0000   1.0000
     0.0000   0.0000   0.0000   0.0000   0.0000   0.0000   0.0000   0.0000
     0.0000   0.0000

          k = 0.0000 0.4527 0.8538 ( 11187 PWs)   bands (ev):

   -13.2615 -13.2581 -13.2535 -13.2509 -13.2491 -13.2485 -13.2476 -13.2454
   -13.2352 -13.2314 -13.2236 -13.2209 -13.2170 -13.2134 -13.1951 -13.1924
   -13.1903 -13.1892 -13.1748 -13.1713  -5.1837  -4.8936  -4.6153  -4.3030
     0.1284   0.9282   1.4481   1.9230   3.7925   4.0947   4.2790   5.3099
     5.4678   5.8006   6.2084   6.6194   7.0335   7.3115   7.3993   7.6189
     9.1863   9.4906   9.9484  10.2729  10.7642  11.1140  11.3043  12.3508
    12.6215  12.9038

     occupation numbers 
     1.0000   1.0000   1.0000   1.0000   1.0000   1.0000   1.0000   1.0000
     1.0000   1.0000   1.0000   1.0000   1.0000   1.0000   1.0000   1.0000
     1.0000   1.0000   1.0000   1.0000   1.0000   1.0000   1.0000   1.0000
     1.0000   1.0000   1.0000   1.0000   1.0000   1.0000   1.0000   1.0000
     1.0000   1.0000   1.0000   1.0000   1.0000   1.0000   1.0000   1.0000
     0.0000   0.0000   0.0000   0.0000   0.0000   0.0000   0.0000   0.0000
     0.0000   0.0000

          k = 0.0000 0.4527-1.2807 ( 11166 PWs)   bands (ev):

   -13.2608 -13.2608 -13.2520 -13.2520 -13.2504 -13.2504 -13.2458 -13.2458
   -13.2330 -13.2330 -13.2190 -13.2190 -13.2159 -13.2159 -13.1929 -13.1929
   -13.1907 -13.1907 -13.1730 -13.1730  -4.8311  -4.8311  -4.5577  -4.5577
     0.2529   0.2529   1.5395   1.5395   4.3062   4.3062   4.7841   4.7841
     5.3259   5.3259   6.2946   6.2946   7.1474   7.1474   7.5549   7.5549
     9.2792   9.2792  10.0901  10.0901  11.2586  11.2586  11.7210  11.7210
    12.2938  12.2938

     occupation numbers 
     1.0000   1.0000   1.0000   1.0000   1.0000   1.0000   1.0000   1.0000
     1.0000   1.0000   1.0000   1.0000   1.0000   1.0000   1.0000   1.0000
     1.0000   1.0000   1.0000   1.0000   1.0000   1.0000   1.0000   1.0000
     1.0000   1.0000   1.0000   1.0000   1.0000   1.0000   1.0000   1.0000
     1.0000   1.0000   1.0000   1.0000   1.0000   1.0000   1.0000   1.0000
     0.0000   0.0000   0.0000   0.0000   0.0000   0.0000   0.0000   0.0000
     0.0000   0.0000

          k = 0.0000 0.9054 0.0000 ( 11222 PWs)   bands (ev):

   -13.2589 -13.2563 -13.2556 -13.2536 -13.2451 -13.2449 -13.2433 -13.2392
   -13.2370 -13.2346 -13.2296 -13.2204 -13.2183 -13.2102 -13.1995 -13.1977
   -13.1885 -13.1820 -13.1766 -13.1743  -5.1947  -4.9498  -4.5094  -4.3006
     0.2652   1.0181   1.1504   1.6788   3.7024   4.9709   5.3121   5.4422
     5.5130   5.7671   6.3569   6.5063   6.8484   7.1976   7.3278   7.9129
     8.6728   9.5501   9.8459   9.8695  10.1034  10.6275  10.6761  11.5175
    11.8988  12.2762

     occupation numbers 
     1.0000   1.0000   1.0000   1.0000   1.0000   1.0000   1.0000   1.0000
     1.0000   1.0000   1.0000   1.0000   1.0000   1.0000   1.0000   1.0000
     1.0000   1.0000   1.0000   1.0000   1.0000   1.0000   1.0000   1.0000
     1.0000   1.0000   1.0000   1.0000   1.0000   1.0000   1.0000   1.0000
     1.0000   1.0000   1.0000   1.0000   1.0000   1.0000   1.0000   1.0000
     0.0000   0.0000   0.0000   0.0000   0.0000   0.0000   0.0000   0.0000
     0.0000   0.0000

          k = 0.0000 0.9054 0.4269 ( 11213 PWs)   bands (ev):

   -13.2623 -13.2594 -13.2570 -13.2551 -13.2459 -13.2425 -13.2424 -13.2389
   -13.2357 -13.2342 -13.2277 -13.2189 -13.2185 -13.2102 -13.1989 -13.1973
   -13.1885 -13.1829 -13.1762 -13.1741  -5.0979  -4.8649  -4.4850  -4.2895
     0.3399   1.1588   1.2317   1.6071   3.8360   3.9314   4.2975   5.1343
     5.5223   5.8400   6.1377   6.4903   6.6522   7.1563   7.2958   7.3763
     9.1184   9.5072   9.6886  10.0185  10.8083  11.3536  11.5176  12.0199
    12.4952  12.8355

     occupation numbers 
     1.0000   1.0000   1.0000   1.0000   1.0000   1.0000   1.0000   1.0000
     1.0000   1.0000   1.0000   1.0000   1.0000   1.0000   1.0000   1.0000
     1.0000   1.0000   1.0000   1.0000   1.0000   1.0000   1.0000   1.0000
     1.0000   1.0000   1.0000   1.0000   1.0000   1.0000   1.0000   1.0000
     1.0000   1.0000   1.0000   1.0000   1.0000   1.0000   1.0000   1.0000
     0.0000   0.0000   0.0000   0.0000   0.0000   0.0000   0.0000   0.0000
     0.0000   0.0000

          k = 0.0000 0.9054 0.8538 ( 11184 PWs)   bands (ev):

   -13.2675 -13.2653 -13.2602 -13.2592 -13.2447 -13.2414 -13.2400 -13.2388
   -13.2337 -13.2334 -13.2234 -13.2184 -13.2154 -13.2107 -13.1975 -13.1964
   -13.1879 -13.1846 -13.1753 -13.1740  -4.8541  -4.6523  -4.4746  -4.3033
     0.5075   1.1416   1.4846   1.5842   3.2530   3.6313   4.0730   4.3203
     4.8126   5.2018   5.5151   5.9061   6.2219   6.4863   6.9818   7.2680
     9.0693  10.7094  11.0507  11.2263  11.7013  11.7019  12.5121  12.6809
    13.0207  13.1336

     occupation numbers 
     1.0000   1.0000   1.0000   1.0000   1.0000   1.0000   1.0000   1.0000
     1.0000   1.0000   1.0000   1.0000   1.0000   1.0000   1.0000   1.0000
     1.0000   1.0000   1.0000   1.0000   1.0000   1.0000   1.0000   1.0000
     1.0000   1.0000   1.0000   1.0000   1.0000   1.0000   1.0000   1.0000
     1.0000   1.0000   1.0000   1.0000   1.0000   1.0000   1.0000   1.0000
     0.0000   0.0000   0.0000   0.0000   0.0000   0.0000   0.0000   0.0000
     0.0000   0.0000

          k = 0.0000 0.9054-1.2807 ( 11212 PWs)   bands (ev):

   -13.2690 -13.2690 -13.2617 -13.2617 -13.2428 -13.2428 -13.2389 -13.2389
   -13.2328 -13.2328 -13.2198 -13.2198 -13.2122 -13.2122 -13.1964 -13.1964
   -13.1864 -13.1864 -13.1744 -13.1744  -4.5975  -4.5975  -4.4263  -4.4263
     0.7591   0.7591   1.6657   1.6657   3.4403   3.4403   3.8581   3.8581
     4.7521   4.7521   5.4197   5.4197   6.0375   6.0375   6.9415   6.9415
    10.0427  10.0427  11.6696  11.6696  12.7848  12.7848  12.8413  12.8413
    12.9943  12.9943

     occupation numbers 
     1.0000   1.0000   1.0000   1.0000   1.0000   1.0000   1.0000   1.0000
     1.0000   1.0000   1.0000   1.0000   1.0000   1.0000   1.0000   1.0000
     1.0000   1.0000   1.0000   1.0000   1.0000   1.0000   1.0000   1.0000
     1.0000   1.0000   1.0000   1.0000   1.0000   1.0000   1.0000   1.0000
     1.0000   1.0000   1.0000   1.0000   1.0000   1.0000   1.0000   1.0000
     0.0000   0.0000   0.0000   0.0000   0.0000   0.0000   0.0000   0.0000
     0.0000   0.0000

          k = 0.0000-1.3581 0.0000 ( 11244 PWs)   bands (ev):

   -13.2605 -13.2605 -13.2566 -13.2566 -13.2418 -13.2418 -13.2399 -13.2399
   -13.2310 -13.2310 -13.2273 -13.2273 -13.2097 -13.2097 -13.2050 -13.2050
   -13.1806 -13.1806 -13.1780 -13.1780  -4.6818  -4.6818  -4.6184  -4.6184
     0.3600   0.3600   1.0567   1.0567   4.4852   4.4852   5.8499   5.8499
     5.8650   5.8650   6.3774   6.3774   7.1085   7.1085   7.3079   7.3079
     9.1102   9.1102   9.5458   9.5458   9.8206   9.8206  10.6271  10.6271
    11.3365  11.3365

     occupation numbers 
     1.0000   1.0000   1.0000   1.0000   1.0000   1.0000   1.0000   1.0000
     1.0000   1.0000   1.0000   1.0000   1.0000   1.0000   1.0000   1.0000
     1.0000   1.0000   1.0000   1.0000   1.0000   1.0000   1.0000   1.0000
     1.0000   1.0000   1.0000   1.0000   1.0000   1.0000   1.0000   1.0000
     1.0000   1.0000   1.0000   1.0000   1.0000   1.0000   1.0000   1.0000
     0.0000   0.0000   0.0000   0.0000   0.0000   0.0000   0.0000   0.0000
     0.0000   0.0000

          k = 0.0000-1.3581 0.4269 ( 11196 PWs)   bands (ev):

   -13.2639 -13.2639 -13.2590 -13.2590 -13.2417 -13.2417 -13.2381 -13.2381
   -13.2306 -13.2306 -13.2260 -13.2260 -13.2105 -13.2105 -13.2030 -13.2030
   -13.1814 -13.1814 -13.1772 -13.1772  -4.6219  -4.6219  -4.5658  -4.5658
     0.5228   0.5228   1.1559   1.1559   4.3390   4.3390   4.6827   4.6827
     5.3958   5.3958   6.2248   6.2248   6.5244   6.5244   7.4497   7.4497
     8.9830   8.9830  10.1634  10.1634  11.0842  11.0842  11.6278  11.6278
    12.2882  12.2882

     occupation numbers 
     1.0000   1.0000   1.0000   1.0000   1.0000   1.0000   1.0000   1.0000
     1.0000   1.0000   1.0000   1.0000   1.0000   1.0000   1.0000   1.0000
     1.0000   1.0000   1.0000   1.0000   1.0000   1.0000   1.0000   1.0000
     1.0000   1.0000   1.0000   1.0000   1.0000   1.0000   1.0000   1.0000
     1.0000   1.0000   1.0000   1.0000   1.0000   1.0000   1.0000   1.0000
     0.0000   0.0000   0.0000   0.0000   0.0000   0.0000   0.0000   0.0000
     0.0000   0.0000

          k = 0.0000-1.3581 0.8538 ( 11172 PWs)   bands (ev):

   -13.2703 -13.2703 -13.2637 -13.2637 -13.2412 -13.2412 -13.2354 -13.2354
   -13.2297 -13.2297 -13.2239 -13.2239 -13.2106 -13.2106 -13.2003 -13.2003
   -13.1822 -13.1822 -13.1762 -13.1762  -4.4927  -4.4927  -4.4583  -4.4583
     0.9506   0.9506   1.3628   1.3628   3.4449   3.4449   3.9824   3.9824
     4.6939   4.6939   5.5266   5.5266   5.7398   5.7398   6.9353   6.9353
    10.0275  10.0275  11.5334  11.5334  12.5151  12.5151  12.6267  12.6267
    12.8942  12.8942

     occupation numbers 
     1.0000   1.0000   1.0000   1.0000   1.0000   1.0000   1.0000   1.0000
     1.0000   1.0000   1.0000   1.0000   1.0000   1.0000   1.0000   1.0000
     1.0000   1.0000   1.0000   1.0000   1.0000   1.0000   1.0000   1.0000
     1.0000   1.0000   1.0000   1.0000   1.0000   1.0000   1.0000   1.0000
     1.0000   1.0000   1.0000   1.0000   1.0000   1.0000   1.0000   1.0000
     0.0000   0.0000   0.0000   0.0000   0.0000   0.0000   0.0000   0.0000
     0.0000   0.0000

          k = 0.0000-1.3581-1.2807 ( 11168 PWs)   bands (ev):

   -13.2733 -13.2733 -13.2661 -13.2661 -13.2411 -13.2411 -13.2344 -13.2344
   -13.2291 -13.2291 -13.2231 -13.2231 -13.2101 -13.2101 -13.1992 -13.1992
   -13.1823 -13.1823 -13.1759 -13.1759  -4.4180  -4.4180  -4.4081  -4.4081
     1.2910   1.2910   1.4410   1.4410   3.0377   3.0377   3.5537   3.5537
     4.4686   4.4686   4.9500   4.9500   5.8019   5.8019   6.6438   6.6438
    10.8677  10.8677  11.1756  11.1756  12.8453  12.8453  12.9780  12.9780
    13.7129  13.7129

     occupation numbers 
     1.0000   1.0000   1.0000   1.0000   1.0000   1.0000   1.0000   1.0000
     1.0000   1.0000   1.0000   1.0000   1.0000   1.0000   1.0000   1.0000
     1.0000   1.0000   1.0000   1.0000   1.0000   1.0000   1.0000   1.0000
     1.0000   1.0000   1.0000   1.0000   1.0000   1.0000   1.0000   1.0000
     1.0000   1.0000   1.0000   1.0000   1.0000   1.0000   1.0000   1.0000
     0.0000   0.0000   0.0000   0.0000   0.0000   0.0000   0.0000   0.0000
     0.0000   0.0000

          k =-0.5000 0.0000 0.0000 ( 11180 PWs)   bands (ev):

   -13.2626 -13.2626 -13.2526 -13.2526 -13.2492 -13.2492 -13.2409 -13.2409
   -13.2334 -13.2334 -13.2316 -13.2316 -13.2162 -13.2162 -13.1957 -13.1957
   -13.1864 -13.1864 -13.1719 -13.1719  -5.6062  -5.6062  -4.3736  -4.3736
     1.1513   1.1513   3.0236   3.0236   4.0129   4.0129   4.8555   4.8555
     5.2132   5.2132   6.0082   6.0082   6.2394   6.2394   7.5331   7.5331
    10.6759  10.6759  10.8764  10.8764  11.7683  11.7683  11.9994  11.9994
    13.0949  13.0949

     occupation numbers 
     1.0000   1.0000   1.0000   1.0000   1.0000   1.0000   1.0000   1.0000
     1.0000   1.0000   1.0000   1.0000   1.0000   1.0000   1.0000   1.0000
     1.0000   1.0000   1.0000   1.0000   1.0000   1.0000   1.0000   1.0000
     1.0000   1.0000   1.0000   1.0000   1.0000   1.0000   1.0000   1.0000
     1.0000   1.0000   1.0000   1.0000   1.0000   1.0000   1.0000   1.0000
     0.0000   0.0000   0.0000   0.0000   0.0000   0.0000   0.0000   0.0000
     0.0000   0.0000

          k =-0.5000 0.0000 0.4269 ( 11194 PWs)   bands (ev):

   -13.2616 -13.2616 -13.2515 -13.2515 -13.2505 -13.2505 -13.2422 -13.2422
   -13.2311 -13.2311 -13.2307 -13.2307 -13.2163 -13.2163 -13.1956 -13.1956
   -13.1871 -13.1871 -13.1719 -13.1719  -5.4930  -5.4930  -4.3824  -4.3824
     0.8266   0.8266   2.4655   2.4655   4.2524   4.2524   5.0299   5.0299
     5.4495   5.4495   6.3246   6.3246   6.5533   6.5533   7.4484   7.4484
    10.3857  10.3857  11.0377  11.0377  11.0718  11.0718  11.5708  11.5708
    12.9463  12.9463

     occupation numbers 
     1.0000   1.0000   1.0000   1.0000   1.0000   1.0000   1.0000   1.0000
     1.0000   1.0000   1.0000   1.0000   1.0000   1.0000   1.0000   1.0000
     1.0000   1.0000   1.0000   1.0000   1.0000   1.0000   1.0000   1.0000
     1.0000   1.0000   1.0000   1.0000   1.0000   1.0000   1.0000   1.0000
     1.0000   1.0000   1.0000   1.0000   1.0000   1.0000   1.0000   1.0000
     0.0000   0.0000   0.0000   0.0000   0.0000   0.0000   0.0000   0.0000
     0.0000   0.0000

          k =-0.5000 0.0000 0.8538 ( 11188 PWs)   bands (ev):

   -13.2593 -13.2593 -13.2529 -13.2529 -13.2502 -13.2502 -13.2449 -13.2449
   -13.2302 -13.2302 -13.2248 -13.2248 -13.2170 -13.2170 -13.1951 -13.1951
   -13.1886 -13.1886 -13.1721 -13.1721  -5.1952  -5.1952  -4.4692  -4.4692
     0.3277   0.3277   1.6294   1.6294   4.6959   4.6959   5.4995   5.4995
     5.8611   5.8611   6.4272   6.4272   6.9832   6.9832   7.7562   7.7562
     9.5836   9.5836  10.0724  10.0724  10.4133  10.4133  11.5179  11.5179
    11.7116  11.7116

     occupation numbers 
     1.0000   1.0000   1.0000   1.0000   1.0000   1.0000   1.0000   1.0000
     1.0000   1.0000   1.0000   1.0000   1.0000   1.0000   1.0000   1.0000
     1.0000   1.0000   1.0000   1.0000   1.0000   1.0000   1.0000   1.0000
     1.0000   1.0000   1.0000   1.0000   1.0000   1.0000   1.0000   1.0000
     1.0000   1.0000   1.0000   1.0000   1.0000   1.0000   1.0000   1.0000
     0.0000   0.0000   0.0000   0.0000   0.0000   0.0000   0.0000   0.0000
     0.0000   0.0000

          k =-0.5000 0.0000-1.2807 ( 11188 PWs)   bands (ev):

   -13.2579 -13.2579 -13.2541 -13.2541 -13.2500 -13.2500 -13.2462 -13.2462
   -13.2299 -13.2299 -13.2198 -13.2198 -13.2192 -13.2192 -13.1948 -13.1948
   -13.1893 -13.1893 -13.1721 -13.1721  -4.9284  -4.9284  -4.6313  -4.6313
     0.1460   0.1460   1.2470   1.2470   5.2432   5.2432   5.4908   5.4908
     5.9433   5.9433   6.2874   6.2874   7.5415   7.5415   7.8131   7.8131
     9.3021   9.3021   9.7151   9.7151   9.7707   9.7707  11.1183  11.1183
    11.4685  11.4685

     occupation numbers 
     1.0000   1.0000   1.0000   1.0000   1.0000   1.0000   1.0000   1.0000
     1.0000   1.0000   1.0000   1.0000   1.0000   1.0000   1.0000   1.0000
     1.0000   1.0000   1.0000   1.0000   1.0000   1.0000   1.0000   1.0000
     1.0000   1.0000   1.0000   1.0000   1.0000   1.0000   1.0000   1.0000
     1.0000   1.0000   1.0000   1.0000   1.0000   1.0000   1.0000   1.0000
     0.0000   0.0000   0.0000   0.0000   0.0000   0.0000   0.0000   0.0000
     0.0000   0.0000

          k =-0.5000 0.4527 0.0000 ( 11196 PWs)   bands (ev):

   -13.2582 -13.2582 -13.2515 -13.2515 -13.2496 -13.2496 -13.2440 -13.2440
   -13.2345 -13.2345 -13.2297 -13.2297 -13.2151 -13.2151 -13.1945 -13.1945
   -13.1877 -13.1877 -13.1731 -13.1731  -5.4663  -5.4663  -4.3504  -4.3504
     0.9297   0.9297   2.4353   2.4353   4.1472   4.1472   4.8574   4.8574
     5.5297   5.5297   6.1244   6.1244   6.3949   6.3949   7.5914   7.5914
    10.3743  10.3743  10.8681  10.8681  11.3497  11.3497  11.5976  11.5976
    12.8759  12.8759

     occupation numbers 
     1.0000   1.0000   1.0000   1.0000   1.0000   1.0000   1.0000   1.0000
     1.0000   1.0000   1.0000   1.0000   1.0000   1.0000   1.0000   1.0000
     1.0000   1.0000   1.0000   1.0000   1.0000   1.0000   1.0000   1.0000
     1.0000   1.0000   1.0000   1.0000   1.0000   1.0000   1.0000   1.0000
     1.0000   1.0000   1.0000   1.0000   1.0000   1.0000   1.0000   1.0000
     0.0000   0.0000   0.0000   0.0000   0.0000   0.0000   0.0000   0.0000
     0.0000   0.0000

          k =-0.5000 0.4527 0.4269 ( 11184 PWs)   bands (ev):

   -13.2582 -13.2582 -13.2526 -13.2526 -13.2487 -13.2487 -13.2450 -13.2450
   -13.2339 -13.2339 -13.2274 -13.2274 -13.2151 -13.2151 -13.1943 -13.1943
   -13.1885 -13.1885 -13.1730 -13.1730  -5.3577  -5.3577  -4.3543  -4.3543
     0.7833   0.7833   2.1683   2.1683   4.1296   4.1296   4.6531   4.6531
     5.4439   5.4439   6.2616   6.2616   7.0750   7.0750   7.5530   7.5530
     9.6831   9.6831  10.7544  10.7544  11.2322  11.2322  11.6448  11.6448
    12.4770  12.4770

     occupation numbers 
     1.0000   1.0000   1.0000   1.0000   1.0000   1.0000   1.0000   1.0000
     1.0000   1.0000   1.0000   1.0000   1.0000   1.0000   1.0000   1.0000
     1.0000   1.0000   1.0000   1.0000   1.0000   1.0000   1.0000   1.0000
     1.0000   1.0000   1.0000   1.0000   1.0000   1.0000   1.0000   1.0000
     1.0000   1.0000   1.0000   1.0000   1.0000   1.0000   1.0000   1.0000
     0.0000   0.0000   0.0000   0.0000   0.0000   0.0000   0.0000   0.0000
     0.0000   0.0000

          k =-0.5000 0.4527 0.8538 ( 11176 PWs)   bands (ev):

   -13.2589 -13.2589 -13.2550 -13.2550 -13.2478 -13.2478 -13.2457 -13.2457
   -13.2329 -13.2329 -13.2225 -13.2225 -13.2153 -13.2153 -13.1935 -13.1935
   -13.1903 -13.1903 -13.1727 -13.1727  -5.0757  -5.0757  -4.4224  -4.4224
     0.4682   0.4682   1.6533   1.6533   4.1806   4.1806   4.9874   4.9874
     5.2397   5.2397   6.4366   6.4366   6.8970   6.8970   7.5442   7.5442
     9.7397   9.7397  10.3757  10.3757  10.9205  10.9205  11.5651  11.5651
    12.5062  12.5062

     occupation numbers 
     1.0000   1.0000   1.0000   1.0000   1.0000   1.0000   1.0000   1.0000
     1.0000   1.0000   1.0000   1.0000   1.0000   1.0000   1.0000   1.0000
     1.0000   1.0000   1.0000   1.0000   1.0000   1.0000   1.0000   1.0000
     1.0000   1.0000   1.0000   1.0000   1.0000   1.0000   1.0000   1.0000
     1.0000   1.0000   1.0000   1.0000   1.0000   1.0000   1.0000   1.0000
     0.0000   0.0000   0.0000   0.0000   0.0000   0.0000   0.0000   0.0000
     0.0000   0.0000

          k =-0.5000 0.4527-1.2807 ( 11172 PWs)   bands (ev):

   -13.2597 -13.2597 -13.2560 -13.2560 -13.2477 -13.2477 -13.2455 -13.2455
   -13.2326 -13.2326 -13.2196 -13.2196 -13.2157 -13.2157 -13.1923 -13.1923
   -13.1919 -13.1919 -13.1725 -13.1725  -4.8283  -4.8283  -4.5615  -4.5615
     0.3228   0.3228   1.3809   1.3809   4.5926   4.5926   4.7884   4.7884
     5.5557   5.5557   5.9750   5.9750   6.8249   6.8249   7.3416   7.3416
    10.2019  10.2019  10.2591  10.2591  10.7880  10.7880  11.5275  11.5275
    12.4449  12.4449

     occupation numbers 
     1.0000   1.0000   1.0000   1.0000   1.0000   1.0000   1.0000   1.0000
     1.0000   1.0000   1.0000   1.0000   1.0000   1.0000   1.0000   1.0000
     1.0000   1.0000   1.0000   1.0000   1.0000   1.0000   1.0000   1.0000
     1.0000   1.0000   1.0000   1.0000   1.0000   1.0000   1.0000   1.0000
     1.0000   1.0000   1.0000   1.0000   1.0000   1.0000   1.0000   1.0000
     0.0000   0.0000   0.0000   0.0000   0.0000   0.0000   0.0000   0.0000
     0.0000   0.0000

          k =-0.5000 0.9054 0.0000 ( 11178 PWs)   bands (ev):

   -13.2584 -13.2584 -13.2538 -13.2538 -13.2442 -13.2442 -13.2428 -13.2428
   -13.2351 -13.2351 -13.2263 -13.2263 -13.2128 -13.2128 -13.1990 -13.1990
   -13.1850 -13.1850 -13.1754 -13.1754  -5.0938  -5.0938  -4.3824  -4.3824
     0.5647   0.5647   1.4044   1.4044   4.6051   4.6051   5.2262   5.2262
     5.9042   5.9042   6.2321   6.2321   6.5490   6.5490   7.6368   7.6368
     9.2244   9.2244  10.1309  10.1309  10.8906  10.8906  11.2856  11.2856
    11.6735  11.6735

     occupation numbers 
     1.0000   1.0000   1.0000   1.0000   1.0000   1.0000   1.0000   1.0000
     1.0000   1.0000   1.0000   1.0000   1.0000   1.0000   1.0000   1.0000
     1.0000   1.0000   1.0000   1.0000   1.0000   1.0000   1.0000   1.0000
     1.0000   1.0000   1.0000   1.0000   1.0000   1.0000   1.0000   1.0000
     1.0000   1.0000   1.0000   1.0000   1.0000   1.0000   1.0000   1.0000
     0.0000   0.0000   0.0000   0.0000   0.0000   0.0000   0.0000   0.0000
     0.0000   0.0000

          k =-0.5000 0.9054 0.4269 ( 11190 PWs)   bands (ev):

   -13.2608 -13.2608 -13.2563 -13.2563 -13.2434 -13.2434 -13.2418 -13.2418
   -13.2343 -13.2343 -13.2250 -13.2250 -13.2124 -13.2124 -13.1989 -13.1989
   -13.1852 -13.1852 -13.1752 -13.1752  -5.0026  -5.0026  -4.3655  -4.3655
     0.6610   0.6610   1.4305   1.4305   4.0805   4.0805   4.9038   4.9038
     5.3409   5.3409   6.3180   6.3180   6.6194   6.6194   7.3887   7.3887
     9.7134   9.7134  10.0895  10.0895  11.1652  11.1652  11.5646  11.5646
    12.0994  12.0994

     occupation numbers 
     1.0000   1.0000   1.0000   1.0000   1.0000   1.0000   1.0000   1.0000
     1.0000   1.0000   1.0000   1.0000   1.0000   1.0000   1.0000   1.0000
     1.0000   1.0000   1.0000   1.0000   1.0000   1.0000   1.0000   1.0000
     1.0000   1.0000   1.0000   1.0000   1.0000   1.0000   1.0000   1.0000
     1.0000   1.0000   1.0000   1.0000   1.0000   1.0000   1.0000   1.0000
     0.0000   0.0000   0.0000   0.0000   0.0000   0.0000   0.0000   0.0000
     0.0000   0.0000

          k =-0.5000 0.9054 0.8538 ( 11172 PWs)   bands (ev):

   -13.2654 -13.2654 -13.2611 -13.2611 -13.2424 -13.2424 -13.2402 -13.2402
   -13.2327 -13.2327 -13.2226 -13.2226 -13.2109 -13.2109 -13.1985 -13.1985
   -13.1854 -13.1854 -13.1746 -13.1746  -4.7767  -4.7767  -4.3656  -4.3656
     0.7960   0.7960   1.5061   1.5061   3.4927   3.4927   4.3747   4.3747
     4.9025   4.9025   5.5644   5.5644   6.3441   6.3441   7.0948   7.0948
    10.4144  10.4144  11.0015  11.0015  11.1980  11.1980  12.4976  12.4976
    12.6822  12.6822

     occupation numbers 
     1.0000   1.0000   1.0000   1.0000   1.0000   1.0000   1.0000   1.0000
     1.0000   1.0000   1.0000   1.0000   1.0000   1.0000   1.0000   1.0000
     1.0000   1.0000   1.0000   1.0000   1.0000   1.0000   1.0000   1.0000
     1.0000   1.0000   1.0000   1.0000   1.0000   1.0000   1.0000   1.0000
     1.0000   1.0000   1.0000   1.0000   1.0000   1.0000   1.0000   1.0000
     0.0000   0.0000   0.0000   0.0000   0.0000   0.0000   0.0000   0.0000
     0.0000   0.0000

          k =-0.5000 0.9054-1.2807 ( 11176 PWs)   bands (ev):

   -13.2676 -13.2676 -13.2634 -13.2634 -13.2420 -13.2420 -13.2396 -13.2396
   -13.2320 -13.2320 -13.2216 -13.2216 -13.2099 -13.2099 -13.1983 -13.1983
   -13.1855 -13.1855 -13.1743 -13.1743  -4.5957  -4.5957  -4.4285  -4.4285
     0.7945   0.7945   1.5957   1.5957   3.6150   3.6150   3.7072   3.7072
     4.9713   4.9713   5.0530   5.0530   6.3813   6.3813   6.7349   6.7349
    10.4913  10.4913  11.2696  11.2696  12.1369  12.1369  12.2364  12.2364
    13.5858  13.5862

     occupation numbers 
     1.0000   1.0000   1.0000   1.0000   1.0000   1.0000   1.0000   1.0000
     1.0000   1.0000   1.0000   1.0000   1.0000   1.0000   1.0000   1.0000
     1.0000   1.0000   1.0000   1.0000   1.0000   1.0000   1.0000   1.0000
     1.0000   1.0000   1.0000   1.0000   1.0000   1.0000   1.0000   1.0000
     1.0000   1.0000   1.0000   1.0000   1.0000   1.0000   1.0000   1.0000
     0.0000   0.0000   0.0000   0.0000   0.0000   0.0000   0.0000   0.0000
     0.0000   0.0000

          k =-0.5000-1.3581 0.0000 ( 11168 PWs)   bands (ev):

   -13.2587 -13.2587 -13.2587 -13.2587 -13.2410 -13.2410 -13.2410 -13.2410
   -13.2288 -13.2288 -13.2288 -13.2288 -13.2073 -13.2073 -13.2073 -13.2073
   -13.1793 -13.1793 -13.1793 -13.1793  -4.6507  -4.6507  -4.6507  -4.6507
     0.6676   0.6676   0.6676   0.6676   5.3021   5.3021   5.3021   5.3021
     5.9774   5.9774   5.9774   5.9774   7.0679   7.0679   7.0679   7.0679
     9.5794   9.5794   9.5794   9.5794  10.2422  10.2422  10.2422  10.2422
    12.0011  12.0011

     occupation numbers 
     1.0000   1.0000   1.0000   1.0000   1.0000   1.0000   1.0000   1.0000
     1.0000   1.0000   1.0000   1.0000   1.0000   1.0000   1.0000   1.0000
     1.0000   1.0000   1.0000   1.0000   1.0000   1.0000   1.0000   1.0000
     1.0000   1.0000   1.0000   1.0000   1.0000   1.0000   1.0000   1.0000
     1.0000   1.0000   1.0000   1.0000   1.0000   1.0000   1.0000   1.0000
     0.0000   0.0000   0.0000   0.0000   0.0000   0.0000   0.0000   0.0000
     0.0000   0.0000

          k =-0.5000-1.3581 0.4269 ( 11204 PWs)   bands (ev):

   -13.2616 -13.2616 -13.2616 -13.2616 -13.2401 -13.2401 -13.2401 -13.2401
   -13.2282 -13.2282 -13.2282 -13.2282 -13.2066 -13.2066 -13.2066 -13.2066
   -13.1792 -13.1792 -13.1792 -13.1792  -4.5943  -4.5943  -4.5943  -4.5943
     0.8047   0.8047   0.8047   0.8047   4.6672   4.6672   4.6672   4.6672
     5.6439   5.6439   5.6439   5.6439   6.8403   6.8403   6.8403   6.8403
     9.9099   9.9099   9.9099   9.9099  11.3277  11.3277  11.3277  11.3277
    12.2337  12.2337

     occupation numbers 
     1.0000   1.0000   1.0000   1.0000   1.0000   1.0000   1.0000   1.0000
     1.0000   1.0000   1.0000   1.0000   1.0000   1.0000   1.0000   1.0000
     1.0000   1.0000   1.0000   1.0000   1.0000   1.0000   1.0000   1.0000
     1.0000   1.0000   1.0000   1.0000   1.0000   1.0000   1.0000   1.0000
     1.0000   1.0000   1.0000   1.0000   1.0000   1.0000   1.0000   1.0000
     0.0000   0.0000   0.0000   0.0000   0.0000   0.0000   0.0000   0.0000
     0.0000   0.0000

          k =-0.5000-1.3581 0.8538 ( 11180 PWs)   bands (ev):

   -13.2670 -13.2670 -13.2670 -13.2670 -13.2390 -13.2390 -13.2390 -13.2390
   -13.2268 -13.2268 -13.2268 -13.2268 -13.2050 -13.2050 -13.2050 -13.2050
   -13.1789 -13.1789 -13.1789 -13.1789  -4.4757  -4.4757  -4.4757  -4.4757
     1.1367   1.1367   1.1367   1.1367   3.7645   3.7645   3.7645   3.7645
     4.8585   4.8585   4.8585   4.8585   6.5650   6.5650   6.5650   6.5650
    10.7493  10.7493  10.7493  10.7493  11.9952  11.9952  11.9952  11.9952
    13.7595  13.7595

     occupation numbers 
     1.0000   1.0000   1.0000   1.0000   1.0000   1.0000   1.0000   1.0000
     1.0000   1.0000   1.0000   1.0000   1.0000   1.0000   1.0000   1.0000
     1.0000   1.0000   1.0000   1.0000   1.0000   1.0000   1.0000   1.0000
     1.0000   1.0000   1.0000   1.0000   1.0000   1.0000   1.0000   1.0000
     1.0000   1.0000   1.0000   1.0000   1.0000   1.0000   1.0000   1.0000
     0.0000   0.0000   0.0000   0.0000   0.0000   0.0000   0.0000   0.0000
     0.0000   0.0000

          k =-0.5000-1.3581-1.2807 ( 11200 PWs)   bands (ev):

   -13.2697 -13.2697 -13.2697 -13.2697 -13.2387 -13.2387 -13.2387 -13.2387
   -13.2260 -13.2260 -13.2260 -13.2260 -13.2041 -13.2041 -13.2041 -13.2041
   -13.1788 -13.1788 -13.1788 -13.1788  -4.4130  -4.4130  -4.4130  -4.4130
     1.3470   1.3470   1.3470   1.3470   3.4563   3.4563   3.4563   3.4563
     4.3160   4.3160   4.3160   4.3160   6.5959   6.5959   6.5959   6.5959
    10.6248  10.6248  10.6248  10.6248  12.8397  12.8397  12.8397  12.8397
    14.6048  14.6048

     occupation numbers 
     1.0000   1.0000   1.0000   1.0000   1.0000   1.0000   1.0000   1.0000
     1.0000   1.0000   1.0000   1.0000   1.0000   1.0000   1.0000   1.0000
     1.0000   1.0000   1.0000   1.0000   1.0000   1.0000   1.0000   1.0000
     1.0000   1.0000   1.0000   1.0000   1.0000   1.0000   1.0000   1.0000
     1.0000   1.0000   1.0000   1.0000   1.0000   1.0000   1.0000   1.0000
     0.0000   0.0000   0.0000   0.0000   0.0000   0.0000   0.0000   0.0000
     0.0000   0.0000

     highest occupied, lowest unoccupied level (ev):     8.1002    8.6728

!    total energy              =    -827.62104945 Ry
     estimated scf accuracy    <          1.0E-09 Ry

     The total energy is the sum of the following terms:
     one-electron contribution =    -257.00486711 Ry
     hartree contribution      =     179.11053178 Ry
     xc contribution           =    -309.12189792 Ry
     ewald contribution        =    -440.60481620 Ry

     convergence has been achieved in   9 iterations

     Forces acting on atoms (cartesian axes, Ry/au):

     atom    1 type  2   force =     0.00805010    0.00000000   -0.00036272
     atom    2 type  1   force =    -0.00735947    0.00000000   -0.00106256
     atom    3 type  2   force =    -0.00805010    0.00000000   -0.00036272
     atom    4 type  1   force =     0.00735947    0.00000000   -0.00106256
     atom    5 type  2   force =     0.00805010    0.00000000    0.00036272
     atom    6 type  1   force =    -0.00735947    0.00000000    0.00106256
     atom    7 type  2   force =    -0.00805010    0.00000000    0.00036272
     atom    8 type  1   force =     0.00735947   -0.00000000    0.00106256
     The non-local contrib.  to forces
     atom    1 type  2   force =    -0.11831564    0.00000000    0.09593480
     atom    2 type  1   force =     0.37322350    0.00000000    0.26601593
     atom    3 type  2   force =     0.11831564    0.00000000    0.09593480
     atom    4 type  1   force =    -0.37322350    0.00000000    0.26601593
     atom    5 type  2   force =    -0.11831564    0.00000000   -0.09593480
     atom    6 type  1   force =     0.37322350    0.00000000   -0.26601593
     atom    7 type  2   force =     0.11831564    0.00000000   -0.09593480
     atom    8 type  1   force =    -0.37322350    0.00000000   -0.26601593
     The ionic contribution  to forces
     atom    1 type  2   force =     1.53473235    0.00000000   -1.05154455
     atom    2 type  1   force =    -1.03769718    0.00000000   -0.57506129
     atom    3 type  2   force =    -1.53473235    0.00000000   -1.05154455
     atom    4 type  1   force =     1.03769718   -0.00000000   -0.57506129
     atom    5 type  2   force =     1.53473235    0.00000000    1.05154455
     atom    6 type  1   force =    -1.03769718   -0.00000000    0.57506129
     atom    7 type  2   force =    -1.53473235   -0.00000000    1.05154455
     atom    8 type  1   force =     1.03769718    0.00000000    0.57506129
     The local contribution  to forces
     atom    1 type  2   force =    -1.42138408   -0.00000000    0.96583254
     atom    2 type  1   force =     0.66292439    0.00000000    0.31230716
     atom    3 type  2   force =     1.42138408   -0.00000000    0.96583254
     atom    4 type  1   force =    -0.66292439    0.00000000    0.31230716
     atom    5 type  2   force =    -1.42138408    0.00000000   -0.96583254
     atom    6 type  1   force =     0.66292439    0.00000000   -0.31230716
     atom    7 type  2   force =     1.42138408    0.00000000   -0.96583254
     atom    8 type  1   force =    -0.66292439    0.00000000   -0.31230716
     The core correction contribution to forces
     atom    1 type  2   force =     0.01298807   -0.00000000   -0.01058607
     atom    2 type  1   force =    -0.00575031   -0.00000000   -0.00435365
     atom    3 type  2   force =    -0.01298807    0.00000000   -0.01058607
     atom    4 type  1   force =     0.00575031    0.00000000   -0.00435365
     atom    5 type  2   force =     0.01298807   -0.00000000    0.01058607
     atom    6 type  1   force =    -0.00575031   -0.00000000    0.00435365
     atom    7 type  2   force =    -0.01298807   -0.00000000    0.01058607
     atom    8 type  1   force =     0.00575031    0.00000000    0.00435365
     The Hubbard contrib.    to forces
     atom    1 type  2   force =     0.00000000    0.00000000    0.00000000
     atom    2 type  1   force =     0.00000000    0.00000000    0.00000000
     atom    3 type  2   force =     0.00000000    0.00000000    0.00000000
     atom    4 type  1   force =     0.00000000    0.00000000    0.00000000
     atom    5 type  2   force =     0.00000000    0.00000000    0.00000000
     atom    6 type  1   force =     0.00000000    0.00000000    0.00000000
     atom    7 type  2   force =     0.00000000    0.00000000    0.00000000
     atom    8 type  1   force =     0.00000000    0.00000000    0.00000000
     The SCF correction term to forces
     atom    1 type  2   force =     0.00002939   -0.00000000    0.00000056
     atom    2 type  1   force =    -0.00005987   -0.00000000    0.00002929
     atom    3 type  2   force =    -0.00002939    0.00000000    0.00000056
     atom    4 type  1   force =     0.00005987    0.00000000    0.00002929
     atom    5 type  2   force =     0.00002939   -0.00000000   -0.00000056
     atom    6 type  1   force =    -0.00005987    0.00000000   -0.00002929
     atom    7 type  2   force =    -0.00002939   -0.00000000   -0.00000056
     atom    8 type  1   force =     0.00005987   -0.00000000   -0.00002929

     Total force =     0.021930     Total SCF correction =     0.000146

     Writing output data file ./tmp/SnSe_pnma.save/

     init_run     :     14.17s CPU     13.39s WALL (       1 calls)
     electrons    :    306.84s CPU    265.78s WALL (       1 calls)
     forces       :      7.74s CPU      6.86s WALL (       1 calls)

     Called by init_run:
     wfcinit      :      9.17s CPU      7.93s WALL (       1 calls)
     wfcinit:atom :      0.12s CPU      0.08s WALL (       8 calls)
     wfcinit:wfcr :      8.20s CPU      7.38s WALL (       8 calls)
     potinit      :      1.46s CPU      1.62s WALL (       1 calls)
     hinit0       :      2.47s CPU      2.51s WALL (       1 calls)

     Called by electrons:
     c_bands      :    242.52s CPU    202.83s WALL (       9 calls)
     sum_band     :     47.13s CPU     42.27s WALL (       9 calls)
     v_of_rho     :      4.84s CPU      5.61s WALL (      10 calls)
     v_h          :      0.31s CPU      0.31s WALL (      10 calls)
     v_xc         :      4.98s CPU      5.79s WALL (      11 calls)
     newd         :     12.45s CPU     15.52s WALL (      10 calls)
     mix_rho      :      0.73s CPU      0.71s WALL (       9 calls)

     Called by c_bands:
     init_us_2    :      2.67s CPU      1.96s WALL (     160 calls)
     cegterg      :    193.51s CPU    159.06s WALL (      72 calls)

     Called by sum_band:
     sum_band:wei :      0.00s CPU      0.00s WALL (       9 calls)
     sum_band:loo :     33.21s CPU     29.00s WALL (       9 calls)
     sum_band:buf :      0.24s CPU      0.16s WALL (      72 calls)
     sum_band:ini :      1.28s CPU      0.86s WALL (      72 calls)
     sum_band:cal :      5.73s CPU      5.80s WALL (      72 calls)
     sum_band:bec :      0.02s CPU      0.01s WALL (      72 calls)
     addusdens    :     10.64s CPU     10.48s WALL (       9 calls)
     addusd:skk   :      0.04s CPU      0.05s WALL (      18 calls)
     addusd:dgemm :      4.10s CPU      3.82s WALL (      18 calls)
     addusd:qvan2 :      5.89s CPU      5.32s WALL (      18 calls)

     Called by *egterg:
     cdiaghg      :      6.68s CPU      8.34s WALL (     314 calls)
     cegterg:over :     19.28s CPU     17.87s WALL (     242 calls)
     cegterg:upda :      6.60s CPU      2.17s WALL (     242 calls)
     cegterg:last :     11.75s CPU      2.88s WALL (     151 calls)
     h_psi        :    132.13s CPU    115.72s WALL (     322 calls)
     s_psi        :     11.67s CPU      2.84s WALL (     322 calls)
     g_psi        :      1.09s CPU      0.79s WALL (     242 calls)

     Called by h_psi:
     h_psi:calbec :     17.35s CPU     18.92s WALL (     322 calls)
     vloc_psi     :    102.38s CPU     93.28s WALL (     322 calls)
     add_vuspsi   :     11.70s CPU      2.83s WALL (     322 calls)

     General routines
     calbec       :     24.89s CPU     25.59s WALL (     426 calls)
     fft          :      2.39s CPU      2.39s WALL (     139 calls)
     ffts         :      0.12s CPU      0.11s WALL (      19 calls)
     fftw         :    106.08s CPU     95.07s WALL (   23124 calls)
     interpolate  :      0.31s CPU      0.31s WALL (      10 calls)

     Parallel routines

     PWSCF        :   5m29.03s CPU   4m46.46s WALL


   This run was terminated on:  19: 8:35   5May2026            

=------------------------------------------------------------------------------=
   JOB DONE.
=------------------------------------------------------------------------------=
