
     Program PWSCF v.6.7MaX starts on  5May2026 at 19:18:34 

     This program is part of the open-source Quantum ESPRESSO suite
     for quantum simulation of materials; please cite
         "P. Giannozzi et al., J. Phys.:Condens. Matter 21 395502 (2009);
         "P. Giannozzi et al., J. Phys.:Condens. Matter 29 465901 (2017);
          URL http://www.quantum-espresso.org", 
     in publications or presentations arising from this work. More details at
     http://www.quantum-espresso.org/quote

     Parallel version (MPI), running on     4 processors

     MPI processes distributed on     1 nodes
     K-points division:     npool     =       4
     Waiting for input...
     Reading input from standard input

     Current dimensions of program PWSCF are:
     Max number of different atomic species (ntypx) = 10
     Max number of k-points (npk) =  40000
     Max angular momentum in pseudopotentials (lmaxx) =  3

     Subspace diagonalization in iterative solution of the eigenvalue problem:
     a serial algorithm will be used


     G-vector sticks info
     --------------------
     sticks:   dense  smooth     PW     G-vecs:    dense   smooth      PW
     Sum        1357     533    185                24123     6069    1253



     bravais-lattice index     =            8
     lattice parameter (alat)  =      21.4862  a.u.
     unit-cell volume          =    1425.7436 (a.u.)^3
     number of atoms/cell      =            8
     number of atomic types    =            2
     number of electrons       =        80.00
     number of Kohn-Sham states=           50
     kinetic-energy cutoff     =      10.0000  Ry
     charge density cutoff     =     100.0000  Ry
     scf convergence threshold =      1.0E-08
     mixing beta               =       0.7000
     number of iterations used =            8  plain     mixing
     Exchange-correlation= SLA  PW   PBE  PBE
                           (   1   4   3   4   0   0   0)

     celldm(1)=  21.486186  celldm(2)=   0.368162  celldm(3)=   0.390413
     celldm(4)=   0.000000  celldm(5)=   0.000000  celldm(6)=   0.000000

     crystal axes: (cart. coord. in units of alat)
               a(1) = (   1.000000   0.000000   0.000000 )  
               a(2) = (   0.000000   0.368162   0.000000 )  
               a(3) = (   0.000000   0.000000   0.390413 )  

     reciprocal axes: (cart. coord. in units 2 pi/alat)
               b(1) = (  1.000000  0.000000  0.000000 )  
               b(2) = (  0.000000  2.716197  0.000000 )  
               b(3) = (  0.000000  0.000000  2.561388 )  


     PseudoPot. # 1 for Sn read from file:
     ../pseudo/Sn_pbe_v1.uspp.F.UPF
     MD5 check sum: 4cf58ce39ec5d5d420df3dd08604eb00
     Pseudo is Ultrasoft + core correction, Zval = 14.0
     Generated by new atomic code, or converted to UPF format
     Using radial grid of  891 points,  6 beta functions with: 
                l(1) =   0
                l(2) =   0
                l(3) =   1
                l(4) =   1
                l(5) =   2
                l(6) =   2
     Q(r) pseudized with  6 coefficients,  rinner =    1.200   1.200   1.200
                                                       1.200   1.200

     PseudoPot. # 2 for Se read from file:
     ../pseudo/Se_pbe_v1.uspp.F.UPF
     MD5 check sum: 1b3568f3a8ae88f9a2a0ad0698632c85
     Pseudo is Ultrasoft + core correction, Zval =  6.0
     Generated by new atomic code, or converted to UPF format
     Using radial grid of  877 points,  6 beta functions with: 
                l(1) =   0
                l(2) =   0
                l(3) =   1
                l(4) =   1
                l(5) =   2
                l(6) =   2
     Q(r) pseudized with  8 coefficients,  rinner =    1.300   1.300   1.300
                                                       1.300   1.300

     atomic species   valence    mass     pseudopotential
        Sn            14.00   118.71000     Sn( 1.00)
        Se             6.00    78.97100     Se( 1.00)

      8 Sym. Ops., with inversion, found ( 6 have fractional translation)


                                    s                        frac. trans.

      isym =  1     identity                                     

 cryst.   s( 1) = (     1          0          0      )
                  (     0          1          0      )
                  (     0          0          1      )

 cart.    s( 1) = (  1.0000000  0.0000000  0.0000000 )
                  (  0.0000000  1.0000000  0.0000000 )
                  (  0.0000000  0.0000000  1.0000000 )


      isym =  2     180 deg rotation - cart. axis [0,0,1]        

 cryst.   s( 2) = (    -1          0          0      )    f =(  0.5000000 )
                  (     0         -1          0      )       (  0.0000000 )
                  (     0          0          1      )       (  0.5000000 )

 cart.    s( 2) = ( -1.0000000  0.0000000  0.0000000 )    f =(  0.5000000 )
                  (  0.0000000 -1.0000000  0.0000000 )       (  0.0000000 )
                  (  0.0000000  0.0000000  1.0000000 )       (  0.1952067 )


      isym =  3     180 deg rotation - cart. axis [0,1,0]        

 cryst.   s( 3) = (    -1          0          0      )    f =(  0.0000000 )
                  (     0          1          0      )       ( -0.5000000 )
                  (     0          0         -1      )       (  0.0000000 )

 cart.    s( 3) = ( -1.0000000  0.0000000  0.0000000 )    f =(  0.0000000 )
                  (  0.0000000  1.0000000  0.0000000 )       ( -0.1840809 )
                  (  0.0000000  0.0000000 -1.0000000 )       (  0.0000000 )


      isym =  4     180 deg rotation - cart. axis [1,0,0]        

 cryst.   s( 4) = (     1          0          0      )    f =(  0.5000000 )
                  (     0         -1          0      )       (  0.5000000 )
                  (     0          0         -1      )       (  0.5000000 )

 cart.    s( 4) = (  1.0000000  0.0000000  0.0000000 )    f =(  0.5000000 )
                  (  0.0000000 -1.0000000  0.0000000 )       (  0.1840809 )
                  (  0.0000000  0.0000000 -1.0000000 )       (  0.1952067 )


      isym =  5     inversion                                    

 cryst.   s( 5) = (    -1          0          0      )
                  (     0         -1          0      )
                  (     0          0         -1      )

 cart.    s( 5) = ( -1.0000000  0.0000000  0.0000000 )
                  (  0.0000000 -1.0000000  0.0000000 )
                  (  0.0000000  0.0000000 -1.0000000 )


      isym =  6     inv. 180 deg rotation - cart. axis [0,0,1]   

 cryst.   s( 6) = (     1          0          0      )    f =(  0.5000000 )
                  (     0          1          0      )       (  0.0000000 )
                  (     0          0         -1      )       (  0.5000000 )

 cart.    s( 6) = (  1.0000000  0.0000000  0.0000000 )    f =(  0.5000000 )
                  (  0.0000000  1.0000000  0.0000000 )       (  0.0000000 )
                  (  0.0000000  0.0000000 -1.0000000 )       (  0.1952067 )


      isym =  7     inv. 180 deg rotation - cart. axis [0,1,0]   

 cryst.   s( 7) = (     1          0          0      )    f =(  0.0000000 )
                  (     0         -1          0      )       (  0.5000000 )
                  (     0          0          1      )       (  0.0000000 )

 cart.    s( 7) = (  1.0000000  0.0000000  0.0000000 )    f =(  0.0000000 )
                  (  0.0000000 -1.0000000  0.0000000 )       (  0.1840809 )
                  (  0.0000000  0.0000000  1.0000000 )       (  0.0000000 )


      isym =  8     inv. 180 deg rotation - cart. axis [1,0,0]   

 cryst.   s( 8) = (    -1          0          0      )    f =(  0.5000000 )
                  (     0          1          0      )       ( -0.5000000 )
                  (     0          0          1      )       (  0.5000000 )

 cart.    s( 8) = ( -1.0000000  0.0000000  0.0000000 )    f =(  0.5000000 )
                  (  0.0000000  1.0000000  0.0000000 )       ( -0.1840809 )
                  (  0.0000000  0.0000000  1.0000000 )       (  0.1952067 )


     point group D_2h (mmm) 
     there are  8 classes
     the character table:

       E     C2    C2'   C2''  i     s_v   s_v'  s_v''
A_g    1.00  1.00  1.00  1.00  1.00  1.00  1.00  1.00
B_1g   1.00  1.00 -1.00 -1.00  1.00  1.00 -1.00 -1.00
B_2g   1.00 -1.00  1.00 -1.00  1.00 -1.00  1.00 -1.00
B_3g   1.00 -1.00 -1.00  1.00  1.00 -1.00 -1.00  1.00
A_u    1.00  1.00  1.00  1.00 -1.00 -1.00 -1.00 -1.00
B_1u   1.00  1.00 -1.00 -1.00 -1.00 -1.00  1.00  1.00
B_2u   1.00 -1.00  1.00 -1.00 -1.00  1.00 -1.00  1.00
B_3u   1.00 -1.00 -1.00  1.00 -1.00  1.00  1.00 -1.00

     the symmetry operations in each class and the name of the first element:

     E        1
          identity                                               
     C2       2
          180 deg rotation - cart. axis [0,0,1]                  
     C2'      4
          180 deg rotation - cart. axis [1,0,0]                  
     C2''     3
          180 deg rotation - cart. axis [0,1,0]                  
     i        5
          inversion                                              
     s_v      6
          inv. 180 deg rotation - cart. axis [0,0,1]             
     s_v'     8
          inv. 180 deg rotation - cart. axis [1,0,0]             
     s_v''    7
          inv. 180 deg rotation - cart. axis [0,1,0]             

   Cartesian axes

     site n.     atom                  positions (alat units)
         1           Se  tau(   1) = (   0.8555000   0.0920405   0.1884916  )
         2           Sn  tau(   2) = (   0.1187000   0.0920405   0.0385728  )
         3           Se  tau(   3) = (   0.6445000   0.2761214   0.3836983  )
         4           Sn  tau(   4) = (   0.3813000   0.2761214   0.2337795  )
         5           Se  tau(   5) = (   0.3555000   0.0920405   0.0067151  )
         6           Sn  tau(   6) = (   0.6187000   0.0920405   0.1566338  )
         7           Se  tau(   7) = (   0.1445000   0.2761214   0.2019218  )
         8           Sn  tau(   8) = (   0.8813000   0.2761214   0.3518405  )

   Crystallographic axes

     site n.     atom                  positions (cryst. coord.)
         1           Se  tau(   1) = (  0.8555000  0.2500000  0.4828000  )
         2           Sn  tau(   2) = (  0.1187000  0.2500000  0.0988000  )
         3           Se  tau(   3) = (  0.6445000  0.7500000  0.9828000  )
         4           Sn  tau(   4) = (  0.3813000  0.7500000  0.5988000  )
         5           Se  tau(   5) = (  0.3555000  0.2500000  0.0172000  )
         6           Sn  tau(   6) = (  0.6187000  0.2500000  0.4012000  )
         7           Se  tau(   7) = (  0.1445000  0.7500000  0.5172000  )
         8           Sn  tau(   8) = (  0.8813000  0.7500000  0.9012000  )

     number of k points=    32
                       cart. coord. in units 2pi/alat
        k(    1) = (   0.0000000   0.0000000   0.0000000), wk =   0.0277778
        k(    2) = (   0.0000000   0.0000000   0.4268979), wk =   0.0555556
        k(    3) = (   0.0000000   0.0000000   0.8537959), wk =   0.0555556
        k(    4) = (   0.0000000   0.0000000  -1.2806938), wk =   0.0277778
        k(    5) = (   0.0000000   0.4526995   0.0000000), wk =   0.0555556
        k(    6) = (   0.0000000   0.4526995   0.4268979), wk =   0.1111111
        k(    7) = (   0.0000000   0.4526995   0.8537959), wk =   0.1111111
        k(    8) = (   0.0000000   0.4526995  -1.2806938), wk =   0.0555556
        k(    9) = (   0.0000000   0.9053989   0.0000000), wk =   0.0555556
        k(   10) = (   0.0000000   0.9053989   0.4268979), wk =   0.1111111
        k(   11) = (   0.0000000   0.9053989   0.8537959), wk =   0.1111111
        k(   12) = (   0.0000000   0.9053989  -1.2806938), wk =   0.0555556
        k(   13) = (   0.0000000  -1.3580984   0.0000000), wk =   0.0277778
        k(   14) = (   0.0000000  -1.3580984   0.4268979), wk =   0.0555556
        k(   15) = (   0.0000000  -1.3580984   0.8537959), wk =   0.0555556
        k(   16) = (   0.0000000  -1.3580984  -1.2806938), wk =   0.0277778
        k(   17) = (  -0.5000000   0.0000000   0.0000000), wk =   0.0277778
        k(   18) = (  -0.5000000   0.0000000   0.4268979), wk =   0.0555556
        k(   19) = (  -0.5000000   0.0000000   0.8537959), wk =   0.0555556
        k(   20) = (  -0.5000000   0.0000000  -1.2806938), wk =   0.0277778
        k(   21) = (  -0.5000000   0.4526995   0.0000000), wk =   0.0555556
        k(   22) = (  -0.5000000   0.4526995   0.4268979), wk =   0.1111111
        k(   23) = (  -0.5000000   0.4526995   0.8537959), wk =   0.1111111
        k(   24) = (  -0.5000000   0.4526995  -1.2806938), wk =   0.0555556
        k(   25) = (  -0.5000000   0.9053989   0.0000000), wk =   0.0555556
        k(   26) = (  -0.5000000   0.9053989   0.4268979), wk =   0.1111111
        k(   27) = (  -0.5000000   0.9053989   0.8537959), wk =   0.1111111
        k(   28) = (  -0.5000000   0.9053989  -1.2806938), wk =   0.0555556
        k(   29) = (  -0.5000000  -1.3580984   0.0000000), wk =   0.0277778
        k(   30) = (  -0.5000000  -1.3580984   0.4268979), wk =   0.0555556
        k(   31) = (  -0.5000000  -1.3580984   0.8537959), wk =   0.0555556
        k(   32) = (  -0.5000000  -1.3580984  -1.2806938), wk =   0.0277778

                       cryst. coord.
        k(    1) = (   0.0000000   0.0000000   0.0000000), wk =   0.0277778
        k(    2) = (   0.0000000   0.0000000   0.1666667), wk =   0.0555556
        k(    3) = (   0.0000000   0.0000000   0.3333333), wk =   0.0555556
        k(    4) = (   0.0000000   0.0000000  -0.5000000), wk =   0.0277778
        k(    5) = (   0.0000000   0.1666667   0.0000000), wk =   0.0555556
        k(    6) = (   0.0000000   0.1666667   0.1666667), wk =   0.1111111
        k(    7) = (   0.0000000   0.1666667   0.3333333), wk =   0.1111111
        k(    8) = (   0.0000000   0.1666667  -0.5000000), wk =   0.0555556
        k(    9) = (   0.0000000   0.3333333   0.0000000), wk =   0.0555556
        k(   10) = (   0.0000000   0.3333333   0.1666667), wk =   0.1111111
        k(   11) = (   0.0000000   0.3333333   0.3333333), wk =   0.1111111
        k(   12) = (   0.0000000   0.3333333  -0.5000000), wk =   0.0555556
        k(   13) = (   0.0000000  -0.5000000   0.0000000), wk =   0.0277778
        k(   14) = (   0.0000000  -0.5000000   0.1666667), wk =   0.0555556
        k(   15) = (   0.0000000  -0.5000000   0.3333333), wk =   0.0555556
        k(   16) = (   0.0000000  -0.5000000  -0.5000000), wk =   0.0277778
        k(   17) = (  -0.5000000   0.0000000   0.0000000), wk =   0.0277778
        k(   18) = (  -0.5000000   0.0000000   0.1666667), wk =   0.0555556
        k(   19) = (  -0.5000000   0.0000000   0.3333333), wk =   0.0555556
        k(   20) = (  -0.5000000   0.0000000  -0.5000000), wk =   0.0277778
        k(   21) = (  -0.5000000   0.1666667   0.0000000), wk =   0.0555556
        k(   22) = (  -0.5000000   0.1666667   0.1666667), wk =   0.1111111
        k(   23) = (  -0.5000000   0.1666667   0.3333333), wk =   0.1111111
        k(   24) = (  -0.5000000   0.1666667  -0.5000000), wk =   0.0555556
        k(   25) = (  -0.5000000   0.3333333   0.0000000), wk =   0.0555556
        k(   26) = (  -0.5000000   0.3333333   0.1666667), wk =   0.1111111
        k(   27) = (  -0.5000000   0.3333333   0.3333333), wk =   0.1111111
        k(   28) = (  -0.5000000   0.3333333  -0.5000000), wk =   0.0555556
        k(   29) = (  -0.5000000  -0.5000000   0.0000000), wk =   0.0277778
        k(   30) = (  -0.5000000  -0.5000000   0.1666667), wk =   0.0555556
        k(   31) = (  -0.5000000  -0.5000000   0.3333333), wk =   0.0555556
        k(   32) = (  -0.5000000  -0.5000000  -0.5000000), wk =   0.0277778

     Dense  grid:    24123 G-vectors     FFT dimensions: (  72,  30,  30)

     Smooth grid:     6069 G-vectors     FFT dimensions: (  48,  16,  18)

     Dynamical RAM for                 wfc:       0.58 MB

     Dynamical RAM for     wfc (w. buffer):       5.23 MB

     Dynamical RAM for           str. fact:       0.74 MB

     Dynamical RAM for           local pot:       0.00 MB

     Dynamical RAM for          nlocal pot:       1.67 MB

     Dynamical RAM for                qrad:       1.61 MB

     Dynamical RAM for          rho,v,vnew:       2.59 MB

     Dynamical RAM for               rhoin:       0.86 MB

     Dynamical RAM for            rho*nmix:       5.89 MB

     Dynamical RAM for           G-vectors:       1.43 MB

     Dynamical RAM for          h,s,v(r/c):       0.46 MB

     Dynamical RAM for          <psi|beta>:       0.11 MB

     Dynamical RAM for                 psi:       1.16 MB

     Dynamical RAM for                hpsi:       1.16 MB

     Dynamical RAM for                spsi:       1.16 MB

     Dynamical RAM for      wfcinit/wfcrot:       1.27 MB

     Dynamical RAM for           addusdens:      17.76 MB

     Dynamical RAM for          addusforce:      18.23 MB

     Estimated static dynamical RAM per process >      23.58 MB

     Estimated max dynamical RAM per process >      41.82 MB

     Estimated total dynamical RAM >     167.27 MB

     Check: negative core charge=   -0.000005

     Initial potential from superposition of free atoms

     starting charge   75.99954, renormalised to   80.00000
     Starting wfcs are   52 randomized atomic wfcs

     total cpu time spent up to now is        1.3 secs

     Self-consistent Calculation

     iteration #  1     ecut=    10.00 Ry     beta= 0.70
     Davidson diagonalization with overlap
     ethr =  1.00E-02,  avg # of iterations =  3.9

     total cpu time spent up to now is        6.2 secs

     total energy              =    -786.69936680 Ry
     estimated scf accuracy    <      23.80243708 Ry

     iteration #  2     ecut=    10.00 Ry     beta= 0.70
     Davidson diagonalization with overlap
     ethr =  1.00E-02,  avg # of iterations =  5.0

     total cpu time spent up to now is       10.5 secs

     total energy              =    -787.77483410 Ry
     estimated scf accuracy    <      18.32316254 Ry

     iteration #  3     ecut=    10.00 Ry     beta= 0.70
     Davidson diagonalization with overlap
     ethr =  1.00E-02,  avg # of iterations =  3.1

     total cpu time spent up to now is       13.0 secs

     total energy              =    -794.73517421 Ry
     estimated scf accuracy    <       3.12941453 Ry

     iteration #  4     ecut=    10.00 Ry     beta= 0.70
     Davidson diagonalization with overlap
     ethr =  3.91E-03,  avg # of iterations =  2.0

     total cpu time spent up to now is       15.0 secs

     total energy              =    -794.84165059 Ry
     estimated scf accuracy    <       0.51330148 Ry

     iteration #  5     ecut=    10.00 Ry     beta= 0.70
     Davidson diagonalization with overlap
     ethr =  6.42E-04,  avg # of iterations =  2.1

     total cpu time spent up to now is       17.7 secs

     total energy              =    -794.86248180 Ry
     estimated scf accuracy    <       0.09802653 Ry

     iteration #  6     ecut=    10.00 Ry     beta= 0.70
     Davidson diagonalization with overlap
     ethr =  1.23E-04,  avg # of iterations =  3.7

     total cpu time spent up to now is       21.4 secs

     total energy              =    -794.88222067 Ry
     estimated scf accuracy    <       0.00374429 Ry

     iteration #  7     ecut=    10.00 Ry     beta= 0.70
     Davidson diagonalization with overlap
     ethr =  4.68E-06,  avg # of iterations =  5.2

     total cpu time spent up to now is       26.7 secs

     total energy              =    -794.88356874 Ry
     estimated scf accuracy    <       0.00020804 Ry

     iteration #  8     ecut=    10.00 Ry     beta= 0.70
     Davidson diagonalization with overlap
     ethr =  2.60E-07,  avg # of iterations =  2.0

     total cpu time spent up to now is       29.6 secs

     total energy              =    -794.88361225 Ry
     estimated scf accuracy    <       0.00001593 Ry

     iteration #  9     ecut=    10.00 Ry     beta= 0.70
     Davidson diagonalization with overlap
     ethr =  1.99E-08,  avg # of iterations =  3.4

     total cpu time spent up to now is       31.9 secs

     total energy              =    -794.88361704 Ry
     estimated scf accuracy    <       0.00000028 Ry

     iteration # 10     ecut=    10.00 Ry     beta= 0.70
     Davidson diagonalization with overlap
     ethr =  3.47E-10,  avg # of iterations =  4.2

     total cpu time spent up to now is       36.2 secs

     total energy              =    -794.88361723 Ry
     estimated scf accuracy    <       0.00000047 Ry

     iteration # 11     ecut=    10.00 Ry     beta= 0.70
     Davidson diagonalization with overlap
     ethr =  3.47E-10,  avg # of iterations =  2.9

     total cpu time spent up to now is       38.1 secs

     total energy              =    -794.88361729 Ry
     estimated scf accuracy    <       0.00000003 Ry

     iteration # 12     ecut=    10.00 Ry     beta= 0.70
     Davidson diagonalization with overlap
     ethr =  4.36E-11,  avg # of iterations =  3.4

     total cpu time spent up to now is       41.3 secs

     End of self-consistent calculation

          k = 0.0000 0.0000 0.0000 (   755 PWs)   bands (ev):

   -17.3554 -16.2537 -15.8157 -15.4985 -15.4509 -14.8224 -14.5796 -13.9766
   -13.8174 -13.6092 -13.6078 -13.1008 -12.8425 -12.3371 -12.1363 -12.0112
   -11.8010 -11.7706 -11.3931 -11.0122  -5.5943  -5.1981  -4.4075  -3.8368
    -0.5437   0.1355   1.0758   1.4215   3.2696   4.8191   4.8595   4.9694
     5.3010   5.3795   5.9862   6.4772   6.5655   6.7208   7.1531   7.2672
     8.4654  10.5192  11.0187  11.1541  11.1829  11.3255  12.1030  12.1567
    12.2692  12.5056

     occupation numbers 
     1.0000   1.0000   1.0000   1.0000   1.0000   1.0000   1.0000   1.0000
     1.0000   1.0000   1.0000   1.0000   1.0000   1.0000   1.0000   1.0000
     1.0000   1.0000   1.0000   1.0000   1.0000   1.0000   1.0000   1.0000
     1.0000   1.0000   1.0000   1.0000   1.0000   1.0000   1.0000   1.0000
     1.0000   1.0000   1.0000   1.0000   1.0000   1.0000   1.0000   1.0000
     0.0000   0.0000   0.0000   0.0000   0.0000   0.0000   0.0000   0.0000
     0.0000   0.0000

          k = 0.0000 0.0000 0.4269 (   749 PWs)   bands (ev):

   -17.4147 -15.8621 -15.2491 -14.8466 -14.7211 -14.4851 -14.3390 -14.2548
   -14.1218 -13.3813 -13.2325 -13.2042 -12.4132 -12.2945 -11.9136 -11.8020
   -11.7183 -11.5291 -10.9780 -10.5737  -5.4564  -5.0852  -4.3678  -3.8485
    -0.8295   0.0313   0.5723   1.2087   3.3689   5.0057   5.0358   5.2773
     5.5421   5.6543   6.1138   6.6371   6.7914   6.7951   6.8448   7.3465
     8.4863   9.8964  10.4615  10.4869  10.8726  11.4603  11.5973  11.6273
    12.2353  12.3377

     occupation numbers 
     1.0000   1.0000   1.0000   1.0000   1.0000   1.0000   1.0000   1.0000
     1.0000   1.0000   1.0000   1.0000   1.0000   1.0000   1.0000   1.0000
     1.0000   1.0000   1.0000   1.0000   1.0000   1.0000   1.0000   1.0000
     1.0000   1.0000   1.0000   1.0000   1.0000   1.0000   1.0000   1.0000
     1.0000   1.0000   1.0000   1.0000   1.0000   1.0000   1.0000   1.0000
     0.0000   0.0000   0.0000   0.0000   0.0000   0.0000   0.0000   0.0000
     0.0000   0.0000

          k = 0.0000 0.0000 0.8538 (   748 PWs)   bands (ev):

   -16.5758 -15.8107 -14.9259 -14.8768 -14.7806 -14.1643 -13.9840 -13.9358
   -13.9255 -13.6700 -13.0597 -13.0316 -12.9610 -12.6212 -12.4718 -12.0340
   -11.6993 -11.4593 -10.7448 -10.5490  -5.0988  -4.7650  -4.3526  -3.9807
    -1.2196  -0.3459  -0.1030   0.6280   3.8043   5.2145   5.5395   5.8793
     6.0042   6.2157   6.3392   6.4797   6.8296   7.0109   7.1742   7.4385
     8.8294   8.8299   9.2453   9.5213   9.9439  10.3630  10.8106  10.8299
    11.3014  11.7144

     occupation numbers 
     1.0000   1.0000   1.0000   1.0000   1.0000   1.0000   1.0000   1.0000
     1.0000   1.0000   1.0000   1.0000   1.0000   1.0000   1.0000   1.0000
     1.0000   1.0000   1.0000   1.0000   1.0000   1.0000   1.0000   1.0000
     1.0000   1.0000   1.0000   1.0000   1.0000   1.0000   1.0000   1.0000
     1.0000   1.0000   1.0000   1.0000   1.0000   1.0000   1.0000   1.0000
     0.0000   0.0000   0.0000   0.0000   0.0000   0.0000   0.0000   0.0000
     0.0000   0.0000

          k = 0.0000 0.0000-1.2807 (   756 PWs)   bands (ev):

   -16.4333 -16.4333 -15.4631 -15.4631 -14.8462 -14.8462 -14.6236 -14.6236
   -13.9460 -13.9460 -13.5517 -13.5517 -13.3136 -13.3136 -12.0198 -12.0198
   -11.6404 -11.6404 -11.2359 -11.2359  -4.6446  -4.6446  -4.3410  -4.3410
    -1.0783  -1.0783   0.0879   0.0879   4.5509   4.5509   6.1555   6.1555
     6.5233   6.5233   6.5321   6.5321   6.9058   6.9058   7.1316   7.1316
     8.7434   8.7434   9.2328   9.2328   9.4160   9.4160  10.3871  10.3871
    10.8344  10.8344

     occupation numbers 
     1.0000   1.0000   1.0000   1.0000   1.0000   1.0000   1.0000   1.0000
     1.0000   1.0000   1.0000   1.0000   1.0000   1.0000   1.0000   1.0000
     1.0000   1.0000   1.0000   1.0000   1.0000   1.0000   1.0000   1.0000
     1.0000   1.0000   1.0000   1.0000   1.0000   1.0000   1.0000   1.0000
     1.0000   1.0000   1.0000   1.0000   1.0000   1.0000   1.0000   1.0000
     0.0000   0.0000   0.0000   0.0000   0.0000   0.0000   0.0000   0.0000
     0.0000   0.0000

          k = 0.0000 0.4527 0.0000 (   764 PWs)   bands (ev):

   -16.7575 -15.6517 -15.6161 -15.5626 -14.9948 -14.9857 -14.9667 -14.8608
   -14.8305 -14.5004 -14.4061 -14.0609 -14.0163 -13.5823 -12.6715 -12.2956
   -12.2675 -11.8747 -11.4395 -11.1503  -5.4287  -5.0599  -4.3150  -3.8301
    -0.7307  -0.1333   0.8600   0.9249   3.4036   4.8167   5.1259   5.1396
     5.3278   5.4278   6.2729   6.5595   6.6264   6.7251   7.0138   7.1594
     8.6404   9.8589  10.1852  10.8689  11.0102  11.0641  11.4014  11.7003
    12.4077  12.4931

     occupation numbers 
     1.0000   1.0000   1.0000   1.0000   1.0000   1.0000   1.0000   1.0000
     1.0000   1.0000   1.0000   1.0000   1.0000   1.0000   1.0000   1.0000
     1.0000   1.0000   1.0000   1.0000   1.0000   1.0000   1.0000   1.0000
     1.0000   1.0000   1.0000   1.0000   1.0000   1.0000   1.0000   1.0000
     1.0000   1.0000   1.0000   1.0000   1.0000   1.0000   1.0000   1.0000
     0.0000   0.0000   0.0000   0.0000   0.0000   0.0000   0.0000   0.0000
     0.0000   0.0000

          k = 0.0000 0.4527 0.4269 (   760 PWs)   bands (ev):

   -16.1885 -15.8089 -15.7281 -15.1487 -15.1135 -14.7993 -14.6783 -14.3511
   -14.3424 -13.8428 -13.7540 -13.6139 -13.3322 -13.2678 -13.0173 -12.6035
   -12.5675 -12.1128 -11.9925 -11.5323  -5.3095  -4.9531  -4.2751  -3.8358
    -0.8996  -0.1297   0.4543   0.8735   3.5301   4.3000   4.5203   5.4132
     5.7514   6.0576   6.1334   6.4270   6.8219   6.9574   7.0441   7.1545
     8.6255   9.2832   9.8182   9.9524  10.8674  10.9879  11.5774  11.9507
    12.4212  12.5099

     occupation numbers 
     1.0000   1.0000   1.0000   1.0000   1.0000   1.0000   1.0000   1.0000
     1.0000   1.0000   1.0000   1.0000   1.0000   1.0000   1.0000   1.0000
     1.0000   1.0000   1.0000   1.0000   1.0000   1.0000   1.0000   1.0000
     1.0000   1.0000   1.0000   1.0000   1.0000   1.0000   1.0000   1.0000
     1.0000   1.0000   1.0000   1.0000   1.0000   1.0000   1.0000   1.0000
     0.0000   0.0000   0.0000   0.0000   0.0000   0.0000   0.0000   0.0000
     0.0000   0.0000

          k = 0.0000 0.4527 0.8538 (   758 PWs)   bands (ev):

   -16.2707 -15.5980 -15.5662 -15.2447 -15.1996 -14.7969 -14.6496 -14.3591
   -14.1459 -13.7621 -13.5706 -13.4955 -13.1518 -12.9866 -12.8637 -12.7646
   -12.3574 -12.0149 -11.7923 -11.7018  -4.9670  -4.6552  -4.2756  -3.9555
    -1.1391  -0.2907  -0.1000   0.5280   3.9611   4.2280   4.4539   5.3732
     5.4989   5.8512   6.3976   6.5318   6.7787   6.8961   6.9892   7.1474
     8.5021   9.2737   9.6795   9.8752  10.3825  10.8394  10.9471  11.9125
    12.0449  12.7004

     occupation numbers 
     1.0000   1.0000   1.0000   1.0000   1.0000   1.0000   1.0000   1.0000
     1.0000   1.0000   1.0000   1.0000   1.0000   1.0000   1.0000   1.0000
     1.0000   1.0000   1.0000   1.0000   1.0000   1.0000   1.0000   1.0000
     1.0000   1.0000   1.0000   1.0000   1.0000   1.0000   1.0000   1.0000
     1.0000   1.0000   1.0000   1.0000   1.0000   1.0000   1.0000   1.0000
     0.0000   0.0000   0.0000   0.0000   0.0000   0.0000   0.0000   0.0000
     0.0000   0.0000

          k = 0.0000 0.4527-1.2807 (   770 PWs)   bands (ev):

   -16.0874 -16.0874 -15.8317 -15.8317 -15.3185 -15.3185 -14.9857 -14.9857
   -14.6048 -14.6048 -14.4657 -14.4657 -13.7606 -13.7606 -13.1042 -13.1042
   -12.9041 -12.9041 -12.2170 -12.2170  -4.5509  -4.5509  -4.2597  -4.2597
    -0.9568  -0.9568   0.1144   0.1144   4.4825   4.4825   4.7766   4.7766
     5.3634   5.3634   6.3808   6.3808   6.6922   6.6922   7.1322   7.1322
     8.9686   8.9686   9.8605   9.8605  10.5859  10.5859  11.3006  11.3006
    11.8375  11.8375

     occupation numbers 
     1.0000   1.0000   1.0000   1.0000   1.0000   1.0000   1.0000   1.0000
     1.0000   1.0000   1.0000   1.0000   1.0000   1.0000   1.0000   1.0000
     1.0000   1.0000   1.0000   1.0000   1.0000   1.0000   1.0000   1.0000
     1.0000   1.0000   1.0000   1.0000   1.0000   1.0000   1.0000   1.0000
     1.0000   1.0000   1.0000   1.0000   1.0000   1.0000   1.0000   1.0000
     0.0000   0.0000   0.0000   0.0000   0.0000   0.0000   0.0000   0.0000
     0.0000   0.0000

          k = 0.0000 0.9054 0.0000 (   770 PWs)   bands (ev):

   -16.0535 -15.8483 -15.8376 -15.2723 -15.1765 -14.9980 -14.8636 -14.8539
   -14.8065 -14.4982 -14.3670 -13.7373 -13.7269 -13.6545 -13.6331 -13.2682
   -12.8685 -12.8417 -12.6856 -12.5504  -4.9910  -4.6676  -4.1501  -3.9296
    -1.0370  -0.4838  -0.0944   0.2757   3.8718   5.0996   5.4788   5.4970
     5.7051   5.8148   6.5127   6.5208   6.6736   6.6905   6.9799   7.0714
     8.5039   8.9049   9.2216   9.7930   9.8363  10.1378  10.3607  11.0842
    11.5087  11.8019

     occupation numbers 
     1.0000   1.0000   1.0000   1.0000   1.0000   1.0000   1.0000   1.0000
     1.0000   1.0000   1.0000   1.0000   1.0000   1.0000   1.0000   1.0000
     1.0000   1.0000   1.0000   1.0000   1.0000   1.0000   1.0000   1.0000
     1.0000   1.0000   1.0000   1.0000   1.0000   1.0000   1.0000   1.0000
     1.0000   1.0000   1.0000   1.0000   1.0000   1.0000   1.0000   1.0000
     0.0000   0.0000   0.0000   0.0000   0.0000   0.0000   0.0000   0.0000
     0.0000   0.0000

          k = 0.0000 0.9054 0.4269 (   764 PWs)   bands (ev):

   -16.2577 -15.7640 -15.4526 -15.3715 -15.3049 -15.0865 -14.5674 -14.5136
   -14.3945 -14.0034 -13.9278 -13.7564 -13.6552 -13.3833 -13.3642 -12.9038
   -12.7036 -12.6686 -12.2173 -11.8625  -4.8847  -4.5909  -4.1154  -3.9108
    -1.0026  -0.3758  -0.0726   0.2138   4.0041   4.1131   4.4204   5.1947
     5.6904   5.9670   6.1728   6.3599   6.5504   6.6298   6.7653   7.0081
     8.4927   9.3280   9.5192   9.7584  10.4705  10.7541  11.1925  11.6479
    11.9834  12.4430

     occupation numbers 
     1.0000   1.0000   1.0000   1.0000   1.0000   1.0000   1.0000   1.0000
     1.0000   1.0000   1.0000   1.0000   1.0000   1.0000   1.0000   1.0000
     1.0000   1.0000   1.0000   1.0000   1.0000   1.0000   1.0000   1.0000
     1.0000   1.0000   1.0000   1.0000   1.0000   1.0000   1.0000   1.0000
     1.0000   1.0000   1.0000   1.0000   1.0000   1.0000   1.0000   1.0000
     0.0000   0.0000   0.0000   0.0000   0.0000   0.0000   0.0000   0.0000
     0.0000   0.0000

          k = 0.0000 0.9054 0.8538 (   760 PWs)   bands (ev):

   -15.5791 -15.3716 -15.2107 -15.2096 -15.0726 -14.8825 -14.4903 -14.4583
   -14.3684 -14.2023 -14.0420 -13.8378 -13.5158 -13.4223 -13.1118 -12.9840
   -12.7822 -12.4068 -11.9289 -11.7236  -4.5951  -4.3573  -4.1250  -3.9690
    -0.8904  -0.2431  -0.1299   0.1550   3.4668   3.7811   4.2554   4.3075
     4.8797   5.2436   5.5754   5.6605   6.0667   6.4718   6.6579   6.8158
     8.8752  10.3430  10.7549  10.9909  11.1610  11.2801  11.9983  12.3581
    12.6483  12.7354

     occupation numbers 
     1.0000   1.0000   1.0000   1.0000   1.0000   1.0000   1.0000   1.0000
     1.0000   1.0000   1.0000   1.0000   1.0000   1.0000   1.0000   1.0000
     1.0000   1.0000   1.0000   1.0000   1.0000   1.0000   1.0000   1.0000
     1.0000   1.0000   1.0000   1.0000   1.0000   1.0000   1.0000   1.0000
     1.0000   1.0000   1.0000   1.0000   1.0000   1.0000   1.0000   1.0000
     0.0000   0.0000   0.0000   0.0000   0.0000   0.0000   0.0000   0.0000
     0.0000   0.0000

          k = 0.0000 0.9054-1.2807 (   756 PWs)   bands (ev):

   -15.4888 -15.4888 -15.1448 -15.1448 -14.7697 -14.7697 -14.6070 -14.6070
   -13.7122 -13.7122 -13.6819 -13.6819 -13.4649 -13.4649 -13.0714 -13.0714
   -12.7888 -12.7888 -11.0256 -11.0256  -4.2934  -4.2934  -4.1137  -4.1137
    -0.6134  -0.6134   0.0819   0.0819   3.5584   3.5584   3.9188   3.9188
     4.8613   4.8613   5.5457   5.5457   5.7314   5.7314   6.6913   6.6913
     9.8644   9.8644  11.2732  11.2732  12.1702  12.1702  12.5059  12.5059
    12.6129  12.6129

     occupation numbers 
     1.0000   1.0000   1.0000   1.0000   1.0000   1.0000   1.0000   1.0000
     1.0000   1.0000   1.0000   1.0000   1.0000   1.0000   1.0000   1.0000
     1.0000   1.0000   1.0000   1.0000   1.0000   1.0000   1.0000   1.0000
     1.0000   1.0000   1.0000   1.0000   1.0000   1.0000   1.0000   1.0000
     1.0000   1.0000   1.0000   1.0000   1.0000   1.0000   1.0000   1.0000
     0.0000   0.0000   0.0000   0.0000   0.0000   0.0000   0.0000   0.0000
     0.0000   0.0000

          k = 0.0000-1.3581 0.0000 (   772 PWs)   bands (ev):

   -16.3799 -16.3799 -15.9706 -15.9706 -15.5580 -15.5580 -14.5974 -14.5974
   -14.5107 -14.5107 -14.0868 -14.0868 -13.7961 -13.7961 -13.5512 -13.5512
   -12.8783 -12.8783 -12.1482 -12.1482  -4.3872  -4.3872  -4.2484  -4.2484
    -0.8953  -0.8953  -0.3189  -0.3189   4.6323   4.6323   6.0412   6.0412
     6.0526   6.0526   6.3394   6.3394   6.6414   6.6414   6.8378   6.8378
     8.6088   8.6088   9.0322   9.0322   9.5765   9.5765  10.1775  10.1775
    11.0386  11.0386

     occupation numbers 
     1.0000   1.0000   1.0000   1.0000   1.0000   1.0000   1.0000   1.0000
     1.0000   1.0000   1.0000   1.0000   1.0000   1.0000   1.0000   1.0000
     1.0000   1.0000   1.0000   1.0000   1.0000   1.0000   1.0000   1.0000
     1.0000   1.0000   1.0000   1.0000   1.0000   1.0000   1.0000   1.0000
     1.0000   1.0000   1.0000   1.0000   1.0000   1.0000   1.0000   1.0000
     0.0000   0.0000   0.0000   0.0000   0.0000   0.0000   0.0000   0.0000
     0.0000   0.0000

          k = 0.0000-1.3581 0.4269 (   772 PWs)   bands (ev):

   -16.5172 -16.5172 -16.3562 -16.3562 -15.3458 -15.3458 -14.9621 -14.9621
   -14.4118 -14.4118 -13.9961 -13.9961 -13.7529 -13.7529 -13.4968 -13.4968
   -12.8170 -12.8170 -11.7239 -11.7239  -4.3283  -4.3283  -4.2243  -4.2243
    -0.7766  -0.7766  -0.2608  -0.2608   4.4795   4.4795   4.7839   4.7839
     5.5051   5.5051   5.8226   5.8226   6.6098   6.6098   6.8708   6.8708
     8.7622   8.7622   9.9716   9.9716  10.6768  10.6768  11.0416  11.0416
    11.7623  11.7623

     occupation numbers 
     1.0000   1.0000   1.0000   1.0000   1.0000   1.0000   1.0000   1.0000
     1.0000   1.0000   1.0000   1.0000   1.0000   1.0000   1.0000   1.0000
     1.0000   1.0000   1.0000   1.0000   1.0000   1.0000   1.0000   1.0000
     1.0000   1.0000   1.0000   1.0000   1.0000   1.0000   1.0000   1.0000
     1.0000   1.0000   1.0000   1.0000   1.0000   1.0000   1.0000   1.0000
     0.0000   0.0000   0.0000   0.0000   0.0000   0.0000   0.0000   0.0000
     0.0000   0.0000

          k = 0.0000-1.3581 0.8538 (   764 PWs)   bands (ev):

   -15.9116 -15.9116 -15.4701 -15.4701 -15.0286 -15.0286 -14.7557 -14.7557
   -14.4376 -14.4376 -13.9665 -13.9665 -13.5752 -13.5752 -13.3048 -13.3048
   -12.6871 -12.6871 -12.0169 -12.0169  -4.1883  -4.1883  -4.1060  -4.1060
    -0.4978  -0.4978  -0.1504  -0.1504   3.5859   3.5859   3.9843   3.9843
     4.8326   4.8326   5.3642   5.3642   5.7140   5.7140   6.6554   6.6554
     9.8824   9.8824  11.1572  11.1572  12.1971  12.1971  12.2773  12.2773
    12.3542  12.3542

     occupation numbers 
     1.0000   1.0000   1.0000   1.0000   1.0000   1.0000   1.0000   1.0000
     1.0000   1.0000   1.0000   1.0000   1.0000   1.0000   1.0000   1.0000
     1.0000   1.0000   1.0000   1.0000   1.0000   1.0000   1.0000   1.0000
     1.0000   1.0000   1.0000   1.0000   1.0000   1.0000   1.0000   1.0000
     1.0000   1.0000   1.0000   1.0000   1.0000   1.0000   1.0000   1.0000
     0.0000   0.0000   0.0000   0.0000   0.0000   0.0000   0.0000   0.0000
     0.0000   0.0000

          k = 0.0000-1.3581-1.2807 (   764 PWs)   bands (ev):

   -15.6534 -15.6534 -15.4126 -15.4126 -15.0884 -15.0884 -14.8680 -14.8680
   -14.6354 -14.6354 -14.0353 -14.0353 -13.8141 -13.8141 -13.6658 -13.6658
   -12.8758 -12.8758 -11.2878 -11.2878  -4.1235  -4.1235  -4.0773  -4.0773
    -0.3093  -0.3093  -0.1256  -0.1256   3.1913   3.1913   3.6081   3.6081
     4.5436   4.5436   5.0383   5.0383   5.7033   5.7033   6.4649   6.4649
    10.6096  10.6096  10.9121  10.9121  12.5687  12.5687  12.8346  12.8346
    13.1090  13.1090

     occupation numbers 
     1.0000   1.0000   1.0000   1.0000   1.0000   1.0000   1.0000   1.0000
     1.0000   1.0000   1.0000   1.0000   1.0000   1.0000   1.0000   1.0000
     1.0000   1.0000   1.0000   1.0000   1.0000   1.0000   1.0000   1.0000
     1.0000   1.0000   1.0000   1.0000   1.0000   1.0000   1.0000   1.0000
     1.0000   1.0000   1.0000   1.0000   1.0000   1.0000   1.0000   1.0000
     0.0000   0.0000   0.0000   0.0000   0.0000   0.0000   0.0000   0.0000
     0.0000   0.0000

          k =-0.5000 0.0000 0.0000 (   750 PWs)   bands (ev):

   -16.1039 -16.1039 -15.7107 -15.7107 -14.7616 -14.7616 -14.6801 -14.6801
   -13.6557 -13.6557 -12.5885 -12.5885 -12.4249 -12.4249 -12.2982 -12.2982
   -11.7068 -11.7068 -10.2417 -10.2417  -5.4369  -5.4369  -4.0667  -4.0667
    -0.2952  -0.2952   1.3256   1.3256   4.0584   4.0584   5.0420   5.0420
     5.1360   5.1360   6.1488   6.1488   6.4217   6.4217   7.3198   7.3198
    10.1750  10.1750  10.8025  10.8025  11.4363  11.4363  11.6066  11.6066
    12.9264  12.9269

     occupation numbers 
     1.0000   1.0000   1.0000   1.0000   1.0000   1.0000   1.0000   1.0000
     1.0000   1.0000   1.0000   1.0000   1.0000   1.0000   1.0000   1.0000
     1.0000   1.0000   1.0000   1.0000   1.0000   1.0000   1.0000   1.0000
     1.0000   1.0000   1.0000   1.0000   1.0000   1.0000   1.0000   1.0000
     1.0000   1.0000   1.0000   1.0000   1.0000   1.0000   1.0000   1.0000
     0.0000   0.0000   0.0000   0.0000   0.0000   0.0000   0.0000   0.0000
     0.0000   0.0000

          k =-0.5000 0.0000 0.4269 (   746 PWs)   bands (ev):

   -15.4513 -15.4513 -15.2537 -15.2537 -14.2301 -14.2301 -14.0373 -14.0373
   -13.8812 -13.8812 -13.3795 -13.3795 -12.6745 -12.6745 -11.8205 -11.8205
   -11.6421 -11.6421 -10.7004 -10.7004  -5.3108  -5.3108  -4.0403  -4.0403
    -0.5246  -0.5246   0.9902   0.9902   4.2255   4.2255   5.2220   5.2220
     5.4103   5.4103   6.3399   6.3399   6.5209   6.5209   7.2287   7.2287
     9.8955   9.8955  10.8035  10.8035  10.8440  10.8440  11.1045  11.1045
    12.4782  12.6793

     occupation numbers 
     1.0000   1.0000   1.0000   1.0000   1.0000   1.0000   1.0000   1.0000
     1.0000   1.0000   1.0000   1.0000   1.0000   1.0000   1.0000   1.0000
     1.0000   1.0000   1.0000   1.0000   1.0000   1.0000   1.0000   1.0000
     1.0000   1.0000   1.0000   1.0000   1.0000   1.0000   1.0000   1.0000
     1.0000   1.0000   1.0000   1.0000   1.0000   1.0000   1.0000   1.0000
     0.0000   0.0000   0.0000   0.0000   0.0000   0.0000   0.0000   0.0000
     0.0000   0.0000

          k =-0.5000 0.0000 0.8538 (   750 PWs)   bands (ev):

   -15.8416 -15.8416 -15.2584 -15.2584 -14.5876 -14.5876 -14.4082 -14.4082
   -13.4962 -13.4962 -13.3904 -13.3904 -12.9297 -12.9297 -11.6867 -11.6867
   -11.6269 -11.6269 -11.3872 -11.3872  -4.9741  -4.9741  -4.1246  -4.1246
    -0.8946  -0.8946   0.3301   0.3301   4.6851   4.6851   5.6981   5.6981
     5.9788   5.9788   6.2894   6.2894   6.6500   6.6500   7.3188   7.3188
     9.1290   9.1290   9.8304   9.8304  10.2085  10.2085  10.8008  10.8008
    11.3493  11.3493

     occupation numbers 
     1.0000   1.0000   1.0000   1.0000   1.0000   1.0000   1.0000   1.0000
     1.0000   1.0000   1.0000   1.0000   1.0000   1.0000   1.0000   1.0000
     1.0000   1.0000   1.0000   1.0000   1.0000   1.0000   1.0000   1.0000
     1.0000   1.0000   1.0000   1.0000   1.0000   1.0000   1.0000   1.0000
     1.0000   1.0000   1.0000   1.0000   1.0000   1.0000   1.0000   1.0000
     0.0000   0.0000   0.0000   0.0000   0.0000   0.0000   0.0000   0.0000
     0.0000   0.0000

          k =-0.5000 0.0000-1.2807 (   760 PWs)   bands (ev):

   -15.9956 -15.9956 -15.7936 -15.7936 -14.9722 -14.9722 -14.3731 -14.3731
   -14.2978 -14.2978 -14.2449 -14.2449 -13.7429 -13.7429 -12.6156 -12.6156
   -11.7607 -11.7607 -10.8964 -10.8964  -4.6461  -4.6461  -4.3379  -4.3379
    -0.9970  -0.9970  -0.0339  -0.0339   5.2159   5.2159   5.5938   5.5938
     6.1703   6.1703   6.4935   6.4935   6.8167   6.8167   7.1303   7.1303
     8.9389   8.9389   9.4671   9.4671   9.6267   9.6267  10.6703  10.6703
    10.7451  10.7451

     occupation numbers 
     1.0000   1.0000   1.0000   1.0000   1.0000   1.0000   1.0000   1.0000
     1.0000   1.0000   1.0000   1.0000   1.0000   1.0000   1.0000   1.0000
     1.0000   1.0000   1.0000   1.0000   1.0000   1.0000   1.0000   1.0000
     1.0000   1.0000   1.0000   1.0000   1.0000   1.0000   1.0000   1.0000
     1.0000   1.0000   1.0000   1.0000   1.0000   1.0000   1.0000   1.0000
     0.0000   0.0000   0.0000   0.0000   0.0000   0.0000   0.0000   0.0000
     0.0000   0.0000

          k =-0.5000 0.4527 0.0000 (   758 PWs)   bands (ev):

   -16.4654 -16.4654 -15.9028 -15.9028 -14.8337 -14.8337 -14.6743 -14.6743
   -14.5717 -14.5717 -13.1636 -13.1636 -12.6699 -12.6699 -12.3011 -12.3011
   -11.8198 -11.8198 -11.1792 -11.1792  -5.2832  -5.2832  -4.0159  -4.0159
    -0.5006  -0.5006   0.9400   0.9400   4.2124   4.2124   5.0401   5.0401
     5.4058   5.4058   6.2646   6.2646   6.3698   6.3698   7.3026   7.3026
     9.9063   9.9063  10.4651  10.4651  11.0740  11.0740  11.3046  11.3046
    12.3302  12.3302

     occupation numbers 
     1.0000   1.0000   1.0000   1.0000   1.0000   1.0000   1.0000   1.0000
     1.0000   1.0000   1.0000   1.0000   1.0000   1.0000   1.0000   1.0000
     1.0000   1.0000   1.0000   1.0000   1.0000   1.0000   1.0000   1.0000
     1.0000   1.0000   1.0000   1.0000   1.0000   1.0000   1.0000   1.0000
     1.0000   1.0000   1.0000   1.0000   1.0000   1.0000   1.0000   1.0000
     0.0000   0.0000   0.0000   0.0000   0.0000   0.0000   0.0000   0.0000
     0.0000   0.0000

          k =-0.5000 0.4527 0.4269 (   756 PWs)   bands (ev):

   -16.0821 -16.0821 -14.8984 -14.8984 -14.7061 -14.7061 -14.2494 -14.2494
   -13.9791 -13.9791 -13.5808 -13.5808 -13.1121 -13.1121 -12.5109 -12.5109
   -12.2060 -12.2060 -11.6992 -11.6992  -5.1680  -5.1680  -4.0063  -4.0063
    -0.6114  -0.6114   0.7329   0.7329   4.2369   4.2369   4.6958   4.6958
     5.5950   5.5950   6.2777   6.2777   6.8884   6.8884   7.1902   7.1902
     9.2859   9.2859  10.4896  10.4896  10.6501  10.6501  11.3854  11.3854
    12.1610  12.1610

     occupation numbers 
     1.0000   1.0000   1.0000   1.0000   1.0000   1.0000   1.0000   1.0000
     1.0000   1.0000   1.0000   1.0000   1.0000   1.0000   1.0000   1.0000
     1.0000   1.0000   1.0000   1.0000   1.0000   1.0000   1.0000   1.0000
     1.0000   1.0000   1.0000   1.0000   1.0000   1.0000   1.0000   1.0000
     1.0000   1.0000   1.0000   1.0000   1.0000   1.0000   1.0000   1.0000
     0.0000   0.0000   0.0000   0.0000   0.0000   0.0000   0.0000   0.0000
     0.0000   0.0000

          k =-0.5000 0.4527 0.8538 (   760 PWs)   bands (ev):

   -16.0613 -16.0613 -15.0703 -15.0703 -14.8429 -14.8429 -14.5821 -14.5821
   -13.9248 -13.9248 -13.7251 -13.7251 -13.2584 -13.2584 -12.9065 -12.9065
   -12.6556 -12.6556 -11.9844 -11.9844  -4.8508  -4.8508  -4.0826  -4.0826
    -0.8182  -0.8182   0.2837   0.2837   4.3252   4.3252   4.9339   4.9339
     5.3854   5.3854   6.3063   6.3063   6.7720   6.7720   7.0787   7.0787
     9.2942   9.2942  10.0772  10.0772  10.5061  10.5061  11.2503  11.2503
    12.0207  12.0207

     occupation numbers 
     1.0000   1.0000   1.0000   1.0000   1.0000   1.0000   1.0000   1.0000
     1.0000   1.0000   1.0000   1.0000   1.0000   1.0000   1.0000   1.0000
     1.0000   1.0000   1.0000   1.0000   1.0000   1.0000   1.0000   1.0000
     1.0000   1.0000   1.0000   1.0000   1.0000   1.0000   1.0000   1.0000
     1.0000   1.0000   1.0000   1.0000   1.0000   1.0000   1.0000   1.0000
     0.0000   0.0000   0.0000   0.0000   0.0000   0.0000   0.0000   0.0000
     0.0000   0.0000

          k =-0.5000 0.4527-1.2807 (   756 PWs)   bands (ev):

   -15.4316 -15.4316 -15.1104 -15.1104 -14.6719 -14.6719 -14.4027 -14.4027
   -13.9329 -13.9329 -13.7262 -13.7262 -13.3536 -13.3536 -12.9865 -12.9865
   -12.0769 -12.0769 -11.6587 -11.6587  -4.5309  -4.5309  -4.2594  -4.2594
    -0.8707  -0.8707   0.0143   0.0143   4.7367   4.7367   4.8696   4.8696
     5.5650   5.5650   5.6741   5.6741   6.7009   6.7009   6.9810   6.9810
     9.7420   9.7420   9.8288   9.8288  10.5472  10.5472  11.2380  11.2380
    11.8708  11.8708

     occupation numbers 
     1.0000   1.0000   1.0000   1.0000   1.0000   1.0000   1.0000   1.0000
     1.0000   1.0000   1.0000   1.0000   1.0000   1.0000   1.0000   1.0000
     1.0000   1.0000   1.0000   1.0000   1.0000   1.0000   1.0000   1.0000
     1.0000   1.0000   1.0000   1.0000   1.0000   1.0000   1.0000   1.0000
     1.0000   1.0000   1.0000   1.0000   1.0000   1.0000   1.0000   1.0000
     0.0000   0.0000   0.0000   0.0000   0.0000   0.0000   0.0000   0.0000
     0.0000   0.0000

          k =-0.5000 0.9054 0.0000 (   754 PWs)   bands (ev):

   -15.3669 -15.3669 -15.1894 -15.1894 -14.4800 -14.4800 -13.9977 -13.9977
   -13.8792 -13.8792 -13.6161 -13.6161 -13.2634 -13.2634 -12.7368 -12.7368
   -12.0598 -12.0598 -11.1974 -11.1974  -4.8590  -4.8590  -3.9872  -3.9872
    -0.7951  -0.7951   0.1084   0.1084   4.6950   4.6950   5.3803   5.3803
     5.8972   5.8972   6.2294   6.2294   6.4508   6.4508   7.0335   7.0335
     9.0009   9.0009   9.6004   9.6004  10.4974  10.4974  10.9130  10.9130
    11.2851  11.2851

     occupation numbers 
     1.0000   1.0000   1.0000   1.0000   1.0000   1.0000   1.0000   1.0000
     1.0000   1.0000   1.0000   1.0000   1.0000   1.0000   1.0000   1.0000
     1.0000   1.0000   1.0000   1.0000   1.0000   1.0000   1.0000   1.0000
     1.0000   1.0000   1.0000   1.0000   1.0000   1.0000   1.0000   1.0000
     1.0000   1.0000   1.0000   1.0000   1.0000   1.0000   1.0000   1.0000
     0.0000   0.0000   0.0000   0.0000   0.0000   0.0000   0.0000   0.0000
     0.0000   0.0000

          k =-0.5000 0.9054 0.4269 (   766 PWs)   bands (ev):

   -15.8027 -15.8027 -15.4642 -15.4642 -15.2022 -15.2022 -14.9757 -14.9757
   -14.4600 -14.4600 -14.0686 -14.0686 -13.5029 -13.5029 -13.1279 -13.1279
   -12.7526 -12.7526 -12.0640 -12.0640  -4.7636  -4.7636  -3.9973  -3.9973
    -0.7379  -0.7379   0.0912   0.0912   4.2469   4.2469   4.9330   4.9330
     5.4413   5.4413   6.0808   6.0808   6.6140   6.6140   6.8999   6.8999
     9.2758   9.2758   9.9049   9.9049  10.7464  10.7464  11.0764  11.0764
    11.8215  11.8215

     occupation numbers 
     1.0000   1.0000   1.0000   1.0000   1.0000   1.0000   1.0000   1.0000
     1.0000   1.0000   1.0000   1.0000   1.0000   1.0000   1.0000   1.0000
     1.0000   1.0000   1.0000   1.0000   1.0000   1.0000   1.0000   1.0000
     1.0000   1.0000   1.0000   1.0000   1.0000   1.0000   1.0000   1.0000
     1.0000   1.0000   1.0000   1.0000   1.0000   1.0000   1.0000   1.0000
     0.0000   0.0000   0.0000   0.0000   0.0000   0.0000   0.0000   0.0000
     0.0000   0.0000

          k =-0.5000 0.9054 0.8538 (   768 PWs)   bands (ev):

   -15.8532 -15.8532 -15.6329 -15.6329 -15.1362 -15.1362 -14.9594 -14.9594
   -14.5557 -14.5557 -14.0796 -14.0796 -13.9403 -13.9403 -13.2465 -13.2465
   -12.8601 -12.8601 -12.4417 -12.4417  -4.5106  -4.5106  -4.0233  -4.0233
    -0.6299  -0.6299   0.0486   0.0486   3.6688   3.6688   4.4721   4.4721
     4.9486   4.9486   5.3136   5.3136   6.3680   6.3680   6.7376   6.7376
    10.0082  10.0082  10.7361  10.7361  10.9550  10.9550  11.9522  11.9522
    12.3672  12.3672

     occupation numbers 
     1.0000   1.0000   1.0000   1.0000   1.0000   1.0000   1.0000   1.0000
     1.0000   1.0000   1.0000   1.0000   1.0000   1.0000   1.0000   1.0000
     1.0000   1.0000   1.0000   1.0000   1.0000   1.0000   1.0000   1.0000
     1.0000   1.0000   1.0000   1.0000   1.0000   1.0000   1.0000   1.0000
     1.0000   1.0000   1.0000   1.0000   1.0000   1.0000   1.0000   1.0000
     0.0000   0.0000   0.0000   0.0000   0.0000   0.0000   0.0000   0.0000
     0.0000   0.0000

          k =-0.5000 0.9054-1.2807 (   772 PWs)   bands (ev):

   -16.2684 -16.2684 -15.7861 -15.7861 -15.2321 -15.2321 -14.9746 -14.9746
   -14.6073 -14.6073 -14.6063 -14.6063 -13.8422 -13.8422 -13.5862 -13.5862
   -13.0509 -13.0509 -12.7352 -12.7352  -4.2941  -4.2941  -4.1290  -4.1290
    -0.5812  -0.5812   0.0139   0.0139   3.7770   3.7770   3.7948   3.7948
     4.8120   4.8120   5.1362   5.1362   6.3095   6.3095   6.4624   6.4624
    10.2009  10.2009  11.0157  11.0157  11.7274  11.7274  11.8497  11.8497
    13.1898  13.1898

     occupation numbers 
     1.0000   1.0000   1.0000   1.0000   1.0000   1.0000   1.0000   1.0000
     1.0000   1.0000   1.0000   1.0000   1.0000   1.0000   1.0000   1.0000
     1.0000   1.0000   1.0000   1.0000   1.0000   1.0000   1.0000   1.0000
     1.0000   1.0000   1.0000   1.0000   1.0000   1.0000   1.0000   1.0000
     1.0000   1.0000   1.0000   1.0000   1.0000   1.0000   1.0000   1.0000
     0.0000   0.0000   0.0000   0.0000   0.0000   0.0000   0.0000   0.0000
     0.0000   0.0000

          k =-0.5000-1.3581 0.0000 (   752 PWs)   bands (ev):

   -15.2237 -15.2237 -15.2237 -15.2237 -14.5097 -14.5097 -14.5097 -14.5097
   -13.4172 -13.4172 -13.4172 -13.4172 -12.7642 -12.7642 -12.7642 -12.7642
   -11.2941 -11.2941 -11.2941 -11.2941  -4.3141  -4.3141  -4.3141  -4.3141
    -0.6124  -0.6124  -0.6124  -0.6124   5.4039   5.4039   5.4039   5.4039
     6.1591   6.1591   6.1591   6.1591   6.5347   6.5347   6.5347   6.5347
     9.1187   9.1187   9.1187   9.1187   9.9666   9.9666   9.9666   9.9666
    11.5737  11.5737

     occupation numbers 
     1.0000   1.0000   1.0000   1.0000   1.0000   1.0000   1.0000   1.0000
     1.0000   1.0000   1.0000   1.0000   1.0000   1.0000   1.0000   1.0000
     1.0000   1.0000   1.0000   1.0000   1.0000   1.0000   1.0000   1.0000
     1.0000   1.0000   1.0000   1.0000   1.0000   1.0000   1.0000   1.0000
     1.0000   1.0000   1.0000   1.0000   1.0000   1.0000   1.0000   1.0000
     0.0000   0.0000   0.0000   0.0000   0.0000   0.0000   0.0000   0.0000
     0.0000   0.0000

          k =-0.5000-1.3581 0.4269 (   768 PWs)   bands (ev):

   -15.7372 -15.7372 -15.7372 -15.7372 -14.7965 -14.7965 -14.7965 -14.7965
   -14.2461 -14.2461 -14.2461 -14.2461 -13.6794 -13.6794 -13.6794 -13.6794
   -12.5311 -12.5311 -12.5311 -12.5311  -4.2735  -4.2735  -4.2735  -4.2735
    -0.5317  -0.5317  -0.5317  -0.5317   4.8057   4.8057   4.8057   4.8057
     5.5318   5.5318   5.5318   5.5318   6.5449   6.5449   6.5449   6.5449
     9.6352   9.6352   9.6352   9.6352  10.9767  10.9767  10.9767  10.9767
    11.7114  11.7114

     occupation numbers 
     1.0000   1.0000   1.0000   1.0000   1.0000   1.0000   1.0000   1.0000
     1.0000   1.0000   1.0000   1.0000   1.0000   1.0000   1.0000   1.0000
     1.0000   1.0000   1.0000   1.0000   1.0000   1.0000   1.0000   1.0000
     1.0000   1.0000   1.0000   1.0000   1.0000   1.0000   1.0000   1.0000
     1.0000   1.0000   1.0000   1.0000   1.0000   1.0000   1.0000   1.0000
     0.0000   0.0000   0.0000   0.0000   0.0000   0.0000   0.0000   0.0000
     0.0000   0.0000

          k =-0.5000-1.3581 0.8538 (   760 PWs)   bands (ev):

   -15.8481 -15.8481 -15.8481 -15.8481 -14.7066 -14.7066 -14.7066 -14.7066
   -13.8247 -13.8247 -13.8247 -13.8247 -13.4525 -13.4525 -13.4525 -13.4525
   -11.8822 -11.8822 -11.8822 -11.8822  -4.1566  -4.1566  -4.1566  -4.1566
    -0.3301  -0.3301  -0.3301  -0.3301   3.8555   3.8555   3.8555   3.8555
     4.8523   4.8523   4.8523   4.8523   6.3825   6.3825   6.3825   6.3825
    10.5134  10.5134  10.5134  10.5134  11.7139  11.7139  11.7139  11.7139
    13.2009  13.2009

     occupation numbers 
     1.0000   1.0000   1.0000   1.0000   1.0000   1.0000   1.0000   1.0000
     1.0000   1.0000   1.0000   1.0000   1.0000   1.0000   1.0000   1.0000
     1.0000   1.0000   1.0000   1.0000   1.0000   1.0000   1.0000   1.0000
     1.0000   1.0000   1.0000   1.0000   1.0000   1.0000   1.0000   1.0000
     1.0000   1.0000   1.0000   1.0000   1.0000   1.0000   1.0000   1.0000
     0.0000   0.0000   0.0000   0.0000   0.0000   0.0000   0.0000   0.0000
     0.0000   0.0000

          k =-0.5000-1.3581-1.2807 (   760 PWs)   bands (ev):

   -16.0500 -16.0500 -16.0500 -16.0500 -14.7169 -14.7169 -14.7169 -14.7169
   -14.1567 -14.1567 -14.1567 -14.1567 -13.0212 -13.0212 -13.0212 -13.0212
   -11.7391 -11.7391 -11.7391 -11.7391  -4.0890  -4.0890  -4.0890  -4.0890
    -0.2181  -0.2181  -0.2181  -0.2181   3.4995   3.4995   3.4995   3.4995
     4.4648   4.4648   4.4648   4.4648   6.4182   6.4182   6.4182   6.4182
    10.4565  10.4565  10.4565  10.4565  12.4913  12.4913  12.4913  12.4913
    14.1048  14.1048

     occupation numbers 
     1.0000   1.0000   1.0000   1.0000   1.0000   1.0000   1.0000   1.0000
     1.0000   1.0000   1.0000   1.0000   1.0000   1.0000   1.0000   1.0000
     1.0000   1.0000   1.0000   1.0000   1.0000   1.0000   1.0000   1.0000
     1.0000   1.0000   1.0000   1.0000   1.0000   1.0000   1.0000   1.0000
     1.0000   1.0000   1.0000   1.0000   1.0000   1.0000   1.0000   1.0000
     0.0000   0.0000   0.0000   0.0000   0.0000   0.0000   0.0000   0.0000
     0.0000   0.0000

     highest occupied, lowest unoccupied level (ev):     7.4385    8.4654

!    total energy              =    -794.88361731 Ry
     estimated scf accuracy    <          5.9E-10 Ry

     The total energy is the sum of the following terms:
     one-electron contribution =    -198.94623000 Ry
     hartree contribution      =     143.79321318 Ry
     xc contribution           =    -299.12578429 Ry
     ewald contribution        =    -440.60481620 Ry

     convergence has been achieved in  12 iterations

     Forces acting on atoms (cartesian axes, Ry/au):

     atom    1 type  2   force =     0.00334976    0.00000000    0.00620555
     atom    2 type  1   force =    -0.08482875   -0.00000000   -0.01311905
     atom    3 type  2   force =    -0.00334976    0.00000000    0.00620555
     atom    4 type  1   force =     0.08482875    0.00000000   -0.01311905
     atom    5 type  2   force =     0.00334976   -0.00000000   -0.00620555
     atom    6 type  1   force =    -0.08482875    0.00000000    0.01311905
     atom    7 type  2   force =    -0.00334976    0.00000000   -0.00620555
     atom    8 type  1   force =     0.08482875    0.00000000    0.01311905
     The non-local contrib.  to forces
     atom    1 type  2   force =    -0.10248750    0.00000000    0.08607683
     atom    2 type  1   force =     0.30804287    0.00000000    0.25325119
     atom    3 type  2   force =     0.10248750    0.00000000    0.08607683
     atom    4 type  1   force =    -0.30804287    0.00000000    0.25325119
     atom    5 type  2   force =    -0.10248750    0.00000000   -0.08607683
     atom    6 type  1   force =     0.30804287    0.00000000   -0.25325119
     atom    7 type  2   force =     0.10248750    0.00000000   -0.08607683
     atom    8 type  1   force =    -0.30804287    0.00000000   -0.25325119
     The ionic contribution  to forces
     atom    1 type  2   force =     1.53473235    0.00000000   -1.05154455
     atom    2 type  1   force =    -1.03769718    0.00000000   -0.57506129
     atom    3 type  2   force =    -1.53473235    0.00000000   -1.05154455
     atom    4 type  1   force =     1.03769718   -0.00000000   -0.57506129
     atom    5 type  2   force =     1.53473235    0.00000000    1.05154455
     atom    6 type  1   force =    -1.03769718   -0.00000000    0.57506129
     atom    7 type  2   force =    -1.53473235   -0.00000000    1.05154455
     atom    8 type  1   force =     1.03769718    0.00000000    0.57506129
     The local contribution  to forces
     atom    1 type  2   force =    -1.43985826   -0.00000000    0.98069616
     atom    2 type  1   force =     0.67495580   -0.00000000    0.33048080
     atom    3 type  2   force =     1.43985826   -0.00000000    0.98069616
     atom    4 type  1   force =    -0.67495580    0.00000000    0.33048080
     atom    5 type  2   force =    -1.43985826    0.00000000   -0.98069616
     atom    6 type  1   force =     0.67495580    0.00000000   -0.33048080
     atom    7 type  2   force =     1.43985826    0.00000000   -0.98069616
     atom    8 type  1   force =    -0.67495580    0.00000000   -0.33048080
     The core correction contribution to forces
     atom    1 type  2   force =     0.01096487   -0.00000000   -0.00902158
     atom    2 type  1   force =    -0.03014408   -0.00000000   -0.02179002
     atom    3 type  2   force =    -0.01096487    0.00000000   -0.00902158
     atom    4 type  1   force =     0.03014408    0.00000000   -0.02179002
     atom    5 type  2   force =     0.01096487   -0.00000000    0.00902158
     atom    6 type  1   force =    -0.03014408   -0.00000000    0.02179002
     atom    7 type  2   force =    -0.01096487   -0.00000000    0.00902158
     atom    8 type  1   force =     0.03014408    0.00000000    0.02179002
     The Hubbard contrib.    to forces
     atom    1 type  2   force =     0.00000000    0.00000000    0.00000000
     atom    2 type  1   force =     0.00000000    0.00000000    0.00000000
     atom    3 type  2   force =     0.00000000    0.00000000    0.00000000
     atom    4 type  1   force =     0.00000000    0.00000000    0.00000000
     atom    5 type  2   force =     0.00000000    0.00000000    0.00000000
     atom    6 type  1   force =     0.00000000    0.00000000    0.00000000
     atom    7 type  2   force =     0.00000000    0.00000000    0.00000000
     atom    8 type  1   force =     0.00000000    0.00000000    0.00000000
     The SCF correction term to forces
     atom    1 type  2   force =    -0.00000171   -0.00000000   -0.00000130
     atom    2 type  1   force =     0.00001384    0.00000000    0.00000027
     atom    3 type  2   force =     0.00000171    0.00000000   -0.00000130
     atom    4 type  1   force =    -0.00001384   -0.00000000    0.00000027
     atom    5 type  2   force =    -0.00000171   -0.00000000    0.00000130
     atom    6 type  1   force =     0.00001384    0.00000000   -0.00000027
     atom    7 type  2   force =     0.00000171   -0.00000000    0.00000130
     atom    8 type  1   force =    -0.00001384    0.00000000   -0.00000027

     Total force =     0.172253     Total SCF correction =     0.000028

     Writing output data file ./tmp/SnSe_pnma.save/

     init_run     :      0.88s CPU      0.91s WALL (       1 calls)
     electrons    :     44.88s CPU     40.04s WALL (       1 calls)
     forces       :      1.08s CPU      1.00s WALL (       1 calls)

     Called by init_run:
     wfcinit      :      0.41s CPU      0.33s WALL (       1 calls)
     wfcinit:atom :      0.00s CPU      0.00s WALL (       8 calls)
     wfcinit:wfcr :      0.38s CPU      0.31s WALL (       8 calls)
     potinit      :      0.09s CPU      0.09s WALL (       1 calls)
     hinit0       :      0.29s CPU      0.29s WALL (       1 calls)

     Called by electrons:
     c_bands      :     38.23s CPU     34.15s WALL (      12 calls)
     sum_band     :      3.78s CPU      3.00s WALL (      12 calls)
     v_of_rho     :      0.73s CPU      0.59s WALL (      13 calls)
     v_h          :      0.04s CPU      0.03s WALL (      13 calls)
     v_xc         :      0.76s CPU      0.60s WALL (      14 calls)
     newd         :      2.08s CPU      2.36s WALL (      13 calls)
     mix_rho      :      0.10s CPU      0.08s WALL (      12 calls)

     Called by c_bands:
     init_us_2    :      0.18s CPU      0.14s WALL (     208 calls)
     cegterg      :     19.51s CPU     18.15s WALL (      96 calls)

     Called by sum_band:
     sum_band:wei :      0.00s CPU      0.00s WALL (      12 calls)
     sum_band:loo :      1.87s CPU      1.70s WALL (      12 calls)
     sum_band:buf :      0.02s CPU      0.01s WALL (      96 calls)
     sum_band:ini :      0.09s CPU      0.07s WALL (      96 calls)
     sum_band:cal :      0.47s CPU      0.59s WALL (      96 calls)
     sum_band:bec :      0.01s CPU      0.01s WALL (      96 calls)
     addusdens    :      1.06s CPU      0.64s WALL (      12 calls)
     addusd:skk   :      0.01s CPU      0.01s WALL (      24 calls)
     addusd:dgemm :      0.58s CPU      0.24s WALL (      24 calls)
     addusd:qvan2 :      0.34s CPU      0.28s WALL (      24 calls)

     Called by *egterg:
     cdiaghg      :      6.44s CPU      7.58s WALL (     444 calls)
     cegterg:over :      1.60s CPU      1.63s WALL (     348 calls)
     cegterg:upda :      0.90s CPU      0.88s WALL (     348 calls)
     cegterg:last :      1.08s CPU      0.69s WALL (     212 calls)
     h_psi        :      8.20s CPU      6.59s WALL (     452 calls)
     s_psi        :      1.07s CPU      0.64s WALL (     452 calls)
     g_psi        :      0.08s CPU      0.05s WALL (     348 calls)

     Called by h_psi:
     h_psi:calbec :      1.43s CPU      1.48s WALL (     452 calls)
     vloc_psi     :      5.63s CPU      4.41s WALL (     452 calls)
     add_vuspsi   :      1.10s CPU      0.68s WALL (     452 calls)

     General routines
     calbec       :      2.00s CPU      2.11s WALL (     580 calls)
     fft          :      0.50s CPU      0.39s WALL (     178 calls)
     ffts         :      0.01s CPU      0.01s WALL (      25 calls)
     fftw         :      5.88s CPU      4.63s WALL (   30470 calls)
     interpolate  :      0.04s CPU      0.04s WALL (      13 calls)

     Parallel routines

     PWSCF        :     47.28s CPU     42.33s WALL


   This run was terminated on:  19:19:16   5May2026            

=------------------------------------------------------------------------------=
   JOB DONE.
=------------------------------------------------------------------------------=
