
     Program PWSCF v.6.7MaX starts on 19May2026 at 13:46: 2 

     This program is part of the open-source Quantum ESPRESSO suite
     for quantum simulation of materials; please cite
         "P. Giannozzi et al., J. Phys.:Condens. Matter 21 395502 (2009);
         "P. Giannozzi et al., J. Phys.:Condens. Matter 29 465901 (2017);
          URL http://www.quantum-espresso.org", 
     in publications or presentations arising from this work. More details at
     http://www.quantum-espresso.org/quote

     Parallel version (MPI), running on     6 processors

     MPI processes distributed on     1 nodes
     K-points division:     npool     =       3
     R & G space division:  proc/nbgrp/npool/nimage =       2
     Waiting for input...
     Reading input from standard input

     Current dimensions of program PWSCF are:
     Max number of different atomic species (ntypx) = 10
     Max number of k-points (npk) =  40000
     Max angular momentum in pseudopotentials (lmaxx) =  3

     Subspace diagonalization in iterative solution of the eigenvalue problem:
     a serial algorithm will be used


     Parallelization info
     --------------------
     sticks:   dense  smooth     PW     G-vecs:    dense   smooth      PW
     Min        6085    2429    682               324967    82190   12263
     Max        6086    2430    683               324968    82191   12264
     Sum       12171    4859   1365               649935   164381   24527



     bravais-lattice index     =            8
     lattice parameter (alat)  =      21.4862  a.u.
     unit-cell volume          =    1425.7436 (a.u.)^3
     number of atoms/cell      =            8
     number of atomic types    =            2
     number of electrons       =        80.00
     number of Kohn-Sham states=           50
     kinetic-energy cutoff     =      90.0000  Ry
     charge density cutoff     =     900.0000  Ry
     scf convergence threshold =      1.0E-08
     mixing beta               =       0.7000
     number of iterations used =            8  plain     mixing
     Exchange-correlation= SLA  PW   PBE  PBE
                           (   1   4   3   4   0   0   0)

     celldm(1)=  21.486186  celldm(2)=   0.368162  celldm(3)=   0.390413
     celldm(4)=   0.000000  celldm(5)=   0.000000  celldm(6)=   0.000000

     crystal axes: (cart. coord. in units of alat)
               a(1) = (   1.000000   0.000000   0.000000 )  
               a(2) = (   0.000000   0.368162   0.000000 )  
               a(3) = (   0.000000   0.000000   0.390413 )  

     reciprocal axes: (cart. coord. in units 2 pi/alat)
               b(1) = (  1.000000  0.000000  0.000000 )  
               b(2) = (  0.000000  2.716197  0.000000 )  
               b(3) = (  0.000000  0.000000  2.561388 )  


     PseudoPot. # 1 for Sn read from file:
     ../pseudo/Sn_pbe_v1.uspp.F.UPF
     MD5 check sum: 4cf58ce39ec5d5d420df3dd08604eb00
     Pseudo is Ultrasoft + core correction, Zval = 14.0
     Generated by new atomic code, or converted to UPF format
     Using radial grid of  891 points,  6 beta functions with: 
                l(1) =   0
                l(2) =   0
                l(3) =   1
                l(4) =   1
                l(5) =   2
                l(6) =   2
     Q(r) pseudized with  6 coefficients,  rinner =    1.200   1.200   1.200
                                                       1.200   1.200

     PseudoPot. # 2 for Se read from file:
     ../pseudo/Se_pbe_v1.uspp.F.UPF
     MD5 check sum: 1b3568f3a8ae88f9a2a0ad0698632c85
     Pseudo is Ultrasoft + core correction, Zval =  6.0
     Generated by new atomic code, or converted to UPF format
     Using radial grid of  877 points,  6 beta functions with: 
                l(1) =   0
                l(2) =   0
                l(3) =   1
                l(4) =   1
                l(5) =   2
                l(6) =   2
     Q(r) pseudized with  8 coefficients,  rinner =    1.300   1.300   1.300
                                                       1.300   1.300

     atomic species   valence    mass     pseudopotential
        Sn            14.00   118.71000     Sn( 1.00)
        Se             6.00    78.97100     Se( 1.00)

      8 Sym. Ops., with inversion, found ( 6 have fractional translation)


                                    s                        frac. trans.

      isym =  1     identity                                     

 cryst.   s( 1) = (     1          0          0      )
                  (     0          1          0      )
                  (     0          0          1      )

 cart.    s( 1) = (  1.0000000  0.0000000  0.0000000 )
                  (  0.0000000  1.0000000  0.0000000 )
                  (  0.0000000  0.0000000  1.0000000 )


      isym =  2     180 deg rotation - cart. axis [0,0,1]        

 cryst.   s( 2) = (    -1          0          0      )    f =(  0.5000000 )
                  (     0         -1          0      )       (  0.0000000 )
                  (     0          0          1      )       (  0.5000000 )

 cart.    s( 2) = ( -1.0000000  0.0000000  0.0000000 )    f =(  0.5000000 )
                  (  0.0000000 -1.0000000  0.0000000 )       (  0.0000000 )
                  (  0.0000000  0.0000000  1.0000000 )       (  0.1952067 )


      isym =  3     180 deg rotation - cart. axis [0,1,0]        

 cryst.   s( 3) = (    -1          0          0      )    f =(  0.0000000 )
                  (     0          1          0      )       ( -0.5000000 )
                  (     0          0         -1      )       (  0.0000000 )

 cart.    s( 3) = ( -1.0000000  0.0000000  0.0000000 )    f =(  0.0000000 )
                  (  0.0000000  1.0000000  0.0000000 )       ( -0.1840809 )
                  (  0.0000000  0.0000000 -1.0000000 )       (  0.0000000 )


      isym =  4     180 deg rotation - cart. axis [1,0,0]        

 cryst.   s( 4) = (     1          0          0      )    f =(  0.5000000 )
                  (     0         -1          0      )       (  0.5000000 )
                  (     0          0         -1      )       (  0.5000000 )

 cart.    s( 4) = (  1.0000000  0.0000000  0.0000000 )    f =(  0.5000000 )
                  (  0.0000000 -1.0000000  0.0000000 )       (  0.1840809 )
                  (  0.0000000  0.0000000 -1.0000000 )       (  0.1952067 )


      isym =  5     inversion                                    

 cryst.   s( 5) = (    -1          0          0      )
                  (     0         -1          0      )
                  (     0          0         -1      )

 cart.    s( 5) = ( -1.0000000  0.0000000  0.0000000 )
                  (  0.0000000 -1.0000000  0.0000000 )
                  (  0.0000000  0.0000000 -1.0000000 )


      isym =  6     inv. 180 deg rotation - cart. axis [0,0,1]   

 cryst.   s( 6) = (     1          0          0      )    f =(  0.5000000 )
                  (     0          1          0      )       (  0.0000000 )
                  (     0          0         -1      )       (  0.5000000 )

 cart.    s( 6) = (  1.0000000  0.0000000  0.0000000 )    f =(  0.5000000 )
                  (  0.0000000  1.0000000  0.0000000 )       (  0.0000000 )
                  (  0.0000000  0.0000000 -1.0000000 )       (  0.1952067 )


      isym =  7     inv. 180 deg rotation - cart. axis [0,1,0]   

 cryst.   s( 7) = (     1          0          0      )    f =(  0.0000000 )
                  (     0         -1          0      )       (  0.5000000 )
                  (     0          0          1      )       (  0.0000000 )

 cart.    s( 7) = (  1.0000000  0.0000000  0.0000000 )    f =(  0.0000000 )
                  (  0.0000000 -1.0000000  0.0000000 )       (  0.1840809 )
                  (  0.0000000  0.0000000  1.0000000 )       (  0.0000000 )


      isym =  8     inv. 180 deg rotation - cart. axis [1,0,0]   

 cryst.   s( 8) = (    -1          0          0      )    f =(  0.5000000 )
                  (     0          1          0      )       ( -0.5000000 )
                  (     0          0          1      )       (  0.5000000 )

 cart.    s( 8) = ( -1.0000000  0.0000000  0.0000000 )    f =(  0.5000000 )
                  (  0.0000000  1.0000000  0.0000000 )       ( -0.1840809 )
                  (  0.0000000  0.0000000  1.0000000 )       (  0.1952067 )


     point group D_2h (mmm) 
     there are  8 classes
     the character table:

       E     C2    C2'   C2''  i     s_v   s_v'  s_v''
A_g    1.00  1.00  1.00  1.00  1.00  1.00  1.00  1.00
B_1g   1.00  1.00 -1.00 -1.00  1.00  1.00 -1.00 -1.00
B_2g   1.00 -1.00  1.00 -1.00  1.00 -1.00  1.00 -1.00
B_3g   1.00 -1.00 -1.00  1.00  1.00 -1.00 -1.00  1.00
A_u    1.00  1.00  1.00  1.00 -1.00 -1.00 -1.00 -1.00
B_1u   1.00  1.00 -1.00 -1.00 -1.00 -1.00  1.00  1.00
B_2u   1.00 -1.00  1.00 -1.00 -1.00  1.00 -1.00  1.00
B_3u   1.00 -1.00 -1.00  1.00 -1.00  1.00  1.00 -1.00

     the symmetry operations in each class and the name of the first element:

     E        1
          identity                                               
     C2       2
          180 deg rotation - cart. axis [0,0,1]                  
     C2'      4
          180 deg rotation - cart. axis [1,0,0]                  
     C2''     3
          180 deg rotation - cart. axis [0,1,0]                  
     i        5
          inversion                                              
     s_v      6
          inv. 180 deg rotation - cart. axis [0,0,1]             
     s_v'     8
          inv. 180 deg rotation - cart. axis [1,0,0]             
     s_v''    7
          inv. 180 deg rotation - cart. axis [0,1,0]             

   Cartesian axes

     site n.     atom                  positions (alat units)
         1           Se  tau(   1) = (   0.8555000   0.0920405   0.1884916  )
         2           Sn  tau(   2) = (   0.1187000   0.0920405   0.0385728  )
         3           Se  tau(   3) = (   0.6445000   0.2761214   0.3836983  )
         4           Sn  tau(   4) = (   0.3813000   0.2761214   0.2337795  )
         5           Se  tau(   5) = (   0.3555000   0.0920405   0.0067151  )
         6           Sn  tau(   6) = (   0.6187000   0.0920405   0.1566338  )
         7           Se  tau(   7) = (   0.1445000   0.2761214   0.2019218  )
         8           Sn  tau(   8) = (   0.8813000   0.2761214   0.3518405  )

   Crystallographic axes

     site n.     atom                  positions (cryst. coord.)
         1           Se  tau(   1) = (  0.8555000  0.2500000  0.4828000  )
         2           Sn  tau(   2) = (  0.1187000  0.2500000  0.0988000  )
         3           Se  tau(   3) = (  0.6445000  0.7500000  0.9828000  )
         4           Sn  tau(   4) = (  0.3813000  0.7500000  0.5988000  )
         5           Se  tau(   5) = (  0.3555000  0.2500000  0.0172000  )
         6           Sn  tau(   6) = (  0.6187000  0.2500000  0.4012000  )
         7           Se  tau(   7) = (  0.1445000  0.7500000  0.5172000  )
         8           Sn  tau(   8) = (  0.8813000  0.7500000  0.9012000  )

     number of k points=    32
                       cart. coord. in units 2pi/alat
        k(    1) = (   0.0000000   0.0000000   0.0000000), wk =   0.0277778
        k(    2) = (   0.0000000   0.0000000   0.4268979), wk =   0.0555556
        k(    3) = (   0.0000000   0.0000000   0.8537959), wk =   0.0555556
        k(    4) = (   0.0000000   0.0000000  -1.2806938), wk =   0.0277778
        k(    5) = (   0.0000000   0.4526995   0.0000000), wk =   0.0555556
        k(    6) = (   0.0000000   0.4526995   0.4268979), wk =   0.1111111
        k(    7) = (   0.0000000   0.4526995   0.8537959), wk =   0.1111111
        k(    8) = (   0.0000000   0.4526995  -1.2806938), wk =   0.0555556
        k(    9) = (   0.0000000   0.9053989   0.0000000), wk =   0.0555556
        k(   10) = (   0.0000000   0.9053989   0.4268979), wk =   0.1111111
        k(   11) = (   0.0000000   0.9053989   0.8537959), wk =   0.1111111
        k(   12) = (   0.0000000   0.9053989  -1.2806938), wk =   0.0555556
        k(   13) = (   0.0000000  -1.3580984   0.0000000), wk =   0.0277778
        k(   14) = (   0.0000000  -1.3580984   0.4268979), wk =   0.0555556
        k(   15) = (   0.0000000  -1.3580984   0.8537959), wk =   0.0555556
        k(   16) = (   0.0000000  -1.3580984  -1.2806938), wk =   0.0277778
        k(   17) = (  -0.5000000   0.0000000   0.0000000), wk =   0.0277778
        k(   18) = (  -0.5000000   0.0000000   0.4268979), wk =   0.0555556
        k(   19) = (  -0.5000000   0.0000000   0.8537959), wk =   0.0555556
        k(   20) = (  -0.5000000   0.0000000  -1.2806938), wk =   0.0277778
        k(   21) = (  -0.5000000   0.4526995   0.0000000), wk =   0.0555556
        k(   22) = (  -0.5000000   0.4526995   0.4268979), wk =   0.1111111
        k(   23) = (  -0.5000000   0.4526995   0.8537959), wk =   0.1111111
        k(   24) = (  -0.5000000   0.4526995  -1.2806938), wk =   0.0555556
        k(   25) = (  -0.5000000   0.9053989   0.0000000), wk =   0.0555556
        k(   26) = (  -0.5000000   0.9053989   0.4268979), wk =   0.1111111
        k(   27) = (  -0.5000000   0.9053989   0.8537959), wk =   0.1111111
        k(   28) = (  -0.5000000   0.9053989  -1.2806938), wk =   0.0555556
        k(   29) = (  -0.5000000  -1.3580984   0.0000000), wk =   0.0277778
        k(   30) = (  -0.5000000  -1.3580984   0.4268979), wk =   0.0555556
        k(   31) = (  -0.5000000  -1.3580984   0.8537959), wk =   0.0555556
        k(   32) = (  -0.5000000  -1.3580984  -1.2806938), wk =   0.0277778

                       cryst. coord.
        k(    1) = (   0.0000000   0.0000000   0.0000000), wk =   0.0277778
        k(    2) = (   0.0000000   0.0000000   0.1666667), wk =   0.0555556
        k(    3) = (   0.0000000   0.0000000   0.3333333), wk =   0.0555556
        k(    4) = (   0.0000000   0.0000000  -0.5000000), wk =   0.0277778
        k(    5) = (   0.0000000   0.1666667   0.0000000), wk =   0.0555556
        k(    6) = (   0.0000000   0.1666667   0.1666667), wk =   0.1111111
        k(    7) = (   0.0000000   0.1666667   0.3333333), wk =   0.1111111
        k(    8) = (   0.0000000   0.1666667  -0.5000000), wk =   0.0555556
        k(    9) = (   0.0000000   0.3333333   0.0000000), wk =   0.0555556
        k(   10) = (   0.0000000   0.3333333   0.1666667), wk =   0.1111111
        k(   11) = (   0.0000000   0.3333333   0.3333333), wk =   0.1111111
        k(   12) = (   0.0000000   0.3333333  -0.5000000), wk =   0.0555556
        k(   13) = (   0.0000000  -0.5000000   0.0000000), wk =   0.0277778
        k(   14) = (   0.0000000  -0.5000000   0.1666667), wk =   0.0555556
        k(   15) = (   0.0000000  -0.5000000   0.3333333), wk =   0.0555556
        k(   16) = (   0.0000000  -0.5000000  -0.5000000), wk =   0.0277778
        k(   17) = (  -0.5000000   0.0000000   0.0000000), wk =   0.0277778
        k(   18) = (  -0.5000000   0.0000000   0.1666667), wk =   0.0555556
        k(   19) = (  -0.5000000   0.0000000   0.3333333), wk =   0.0555556
        k(   20) = (  -0.5000000   0.0000000  -0.5000000), wk =   0.0277778
        k(   21) = (  -0.5000000   0.1666667   0.0000000), wk =   0.0555556
        k(   22) = (  -0.5000000   0.1666667   0.1666667), wk =   0.1111111
        k(   23) = (  -0.5000000   0.1666667   0.3333333), wk =   0.1111111
        k(   24) = (  -0.5000000   0.1666667  -0.5000000), wk =   0.0555556
        k(   25) = (  -0.5000000   0.3333333   0.0000000), wk =   0.0555556
        k(   26) = (  -0.5000000   0.3333333   0.1666667), wk =   0.1111111
        k(   27) = (  -0.5000000   0.3333333   0.3333333), wk =   0.1111111
        k(   28) = (  -0.5000000   0.3333333  -0.5000000), wk =   0.0555556
        k(   29) = (  -0.5000000  -0.5000000   0.0000000), wk =   0.0277778
        k(   30) = (  -0.5000000  -0.5000000   0.1666667), wk =   0.0555556
        k(   31) = (  -0.5000000  -0.5000000   0.3333333), wk =   0.0555556
        k(   32) = (  -0.5000000  -0.5000000  -0.5000000), wk =   0.0277778

     Dense  grid:   649935 G-vectors     FFT dimensions: ( 216,  80,  90)

     Smooth grid:   164381 G-vectors     FFT dimensions: ( 144,  48,  54)

     Dynamical RAM for                 wfc:       7.84 MB

     Dynamical RAM for     wfc (w. buffer):      94.10 MB

     Dynamical RAM for           str. fact:       9.92 MB

     Dynamical RAM for           local pot:       0.00 MB

     Dynamical RAM for          nlocal pot:      22.58 MB

     Dynamical RAM for                qrad:       4.81 MB

     Dynamical RAM for          rho,v,vnew:      32.67 MB

     Dynamical RAM for               rhoin:      10.89 MB

     Dynamical RAM for            rho*nmix:      79.34 MB

     Dynamical RAM for           G-vectors:      19.22 MB

     Dynamical RAM for          h,s,v(r/c):       0.46 MB

     Dynamical RAM for          <psi|beta>:       0.11 MB

     Dynamical RAM for                 psi:      15.68 MB

     Dynamical RAM for                hpsi:      15.68 MB

     Dynamical RAM for                spsi:      15.68 MB

     Dynamical RAM for      wfcinit/wfcrot:      16.37 MB

     Dynamical RAM for           addusdens:     317.35 MB

     Dynamical RAM for          addusforce:     326.46 MB

     Estimated static dynamical RAM per process >     318.08 MB

     Estimated max dynamical RAM per process >     644.53 MB

     Estimated total dynamical RAM >       3.78 GB

     Initial potential from superposition of free atoms

     starting charge   75.99954, renormalised to   80.00000
     Starting wfcs are   52 randomized atomic wfcs

     total cpu time spent up to now is       25.2 secs

     Self-consistent Calculation

     iteration #  1     ecut=    90.00 Ry     beta= 0.70
     Davidson diagonalization with overlap
     ethr =  1.00E-02,  avg # of iterations =  3.6

     total cpu time spent up to now is       96.0 secs

     total energy              =    -826.55287983 Ry
     estimated scf accuracy    <       2.62444517 Ry

     iteration #  2     ecut=    90.00 Ry     beta= 0.70
     Davidson diagonalization with overlap
     ethr =  3.28E-03,  avg # of iterations =  2.0

     total cpu time spent up to now is      157.5 secs

     total energy              =    -827.33327184 Ry
     estimated scf accuracy    <       1.11938702 Ry

     iteration #  3     ecut=    90.00 Ry     beta= 0.70
     Davidson diagonalization with overlap
     ethr =  1.40E-03,  avg # of iterations =  2.0

     total cpu time spent up to now is      213.1 secs

     total energy              =    -827.61170976 Ry
     estimated scf accuracy    <       0.06103843 Ry

     iteration #  4     ecut=    90.00 Ry     beta= 0.70
     Davidson diagonalization with overlap
     ethr =  7.63E-05,  avg # of iterations =  3.4

     total cpu time spent up to now is      274.1 secs

     total energy              =    -827.62287770 Ry
     estimated scf accuracy    <       0.00319463 Ry

     iteration #  5     ecut=    90.00 Ry     beta= 0.70
     Davidson diagonalization with overlap
     ethr =  3.99E-06,  avg # of iterations =  5.0

     total cpu time spent up to now is      349.4 secs

     total energy              =    -827.62358331 Ry
     estimated scf accuracy    <       0.00080836 Ry

     iteration #  6     ecut=    90.00 Ry     beta= 0.70
     Davidson diagonalization with overlap
     ethr =  1.01E-06,  avg # of iterations =  2.3

     total cpu time spent up to now is      408.4 secs

     total energy              =    -827.62375650 Ry
     estimated scf accuracy    <       0.00004346 Ry

     iteration #  7     ecut=    90.00 Ry     beta= 0.70
     Davidson diagonalization with overlap
     ethr =  5.43E-08,  avg # of iterations =  5.0

     total cpu time spent up to now is      493.7 secs

     total energy              =    -827.62378508 Ry
     estimated scf accuracy    <       0.00000272 Ry

     iteration #  8     ecut=    90.00 Ry     beta= 0.70
     Davidson diagonalization with overlap
     ethr =  3.40E-09,  avg # of iterations =  3.3

     total cpu time spent up to now is      564.6 secs

     total energy              =    -827.62378614 Ry
     estimated scf accuracy    <       0.00000039 Ry

     iteration #  9     ecut=    90.00 Ry     beta= 0.70
     Davidson diagonalization with overlap
     ethr =  4.82E-10,  avg # of iterations =  3.4

     total cpu time spent up to now is      644.8 secs

     End of self-consistent calculation

          k = 0.0000 0.0000 0.0000 ( 20507 PWs)   bands (ev):

   -13.2673 -13.2554 -13.2523 -13.2497 -13.2496 -13.2456 -13.2426 -13.2387
   -13.2345 -13.2335 -13.2329 -13.2258 -13.2184 -13.2120 -13.1974 -13.1923
   -13.1875 -13.1837 -13.1759 -13.1666  -5.7459  -5.3958  -4.6587  -4.1588
     0.8109   1.9490   2.5399   3.0754   3.2303   4.6636   4.7020   4.7767
     5.1823   5.2388   5.8112   6.3113   6.5361   6.9889   7.4007   7.5697
     8.8492  10.9513  11.0995  11.1322  11.3568  11.4505  12.3342  12.6290
    12.7022  12.7422

     occupation numbers 
     1.0000   1.0000   1.0000   1.0000   1.0000   1.0000   1.0000   1.0000
     1.0000   1.0000   1.0000   1.0000   1.0000   1.0000   1.0000   1.0000
     1.0000   1.0000   1.0000   1.0000   1.0000   1.0000   1.0000   1.0000
     1.0000   1.0000   1.0000   1.0000   1.0000   1.0000   1.0000   1.0000
     1.0000   1.0000   1.0000   1.0000   1.0000   1.0000   1.0000   1.0000
     0.0000   0.0000   0.0000   0.0000   0.0000   0.0000   0.0000   0.0000
     0.0000   0.0000

          k = 0.0000 0.0000 0.4269 ( 20547 PWs)   bands (ev):

   -13.2657 -13.2541 -13.2525 -13.2510 -13.2488 -13.2476 -13.2432 -13.2396
   -13.2338 -13.2317 -13.2293 -13.2262 -13.2176 -13.2127 -13.1975 -13.1916
   -13.1886 -13.1844 -13.1752 -13.1672  -5.6277  -5.2875  -4.6452  -4.1907
     0.4463   1.7107   1.9313   2.6886   3.2163   4.8186   4.8445   5.3353
     5.3456   5.9061   5.9280   6.5182   6.5922   7.0990   7.4474   7.5869
     8.9712  10.0939  10.7255  10.9020  11.1414  11.4571  11.9008  12.0690
    12.5319  12.7678

     occupation numbers 
     1.0000   1.0000   1.0000   1.0000   1.0000   1.0000   1.0000   1.0000
     1.0000   1.0000   1.0000   1.0000   1.0000   1.0000   1.0000   1.0000
     1.0000   1.0000   1.0000   1.0000   1.0000   1.0000   1.0000   1.0000
     1.0000   1.0000   1.0000   1.0000   1.0000   1.0000   1.0000   1.0000
     1.0000   1.0000   1.0000   1.0000   1.0000   1.0000   1.0000   1.0000
     0.0000   0.0000   0.0000   0.0000   0.0000   0.0000   0.0000   0.0000
     0.0000   0.0000

          k = 0.0000 0.0000 0.8538 ( 20533 PWs)   bands (ev):

   -13.2617 -13.2538 -13.2533 -13.2515 -13.2512 -13.2478 -13.2442 -13.2420
   -13.2319 -13.2274 -13.2256 -13.2229 -13.2167 -13.2146 -13.1967 -13.1911
   -13.1899 -13.1862 -13.1734 -13.1689  -5.3120  -4.9962  -4.6889  -4.3311
    -0.0228   0.8106   1.3648   1.9823   3.6440   5.0242   5.3387   5.7838
     6.1137   6.1245   6.3714   6.6084   6.8449   7.4417   7.5929   8.1000
     8.9968   9.5558   9.5820   9.7385  10.4721  10.5766  11.0916  11.2230
    11.9934  12.1192

     occupation numbers 
     1.0000   1.0000   1.0000   1.0000   1.0000   1.0000   1.0000   1.0000
     1.0000   1.0000   1.0000   1.0000   1.0000   1.0000   1.0000   1.0000
     1.0000   1.0000   1.0000   1.0000   1.0000   1.0000   1.0000   1.0000
     1.0000   1.0000   1.0000   1.0000   1.0000   1.0000   1.0000   1.0000
     1.0000   1.0000   1.0000   1.0000   1.0000   1.0000   1.0000   1.0000
     0.0000   0.0000   0.0000   0.0000   0.0000   0.0000   0.0000   0.0000
     0.0000   0.0000

          k = 0.0000 0.0000-1.2807 ( 20530 PWs)   bands (ev):

   -13.2571 -13.2571 -13.2538 -13.2538 -13.2487 -13.2487 -13.2440 -13.2440
   -13.2295 -13.2295 -13.2193 -13.2193 -13.2179 -13.2179 -13.1942 -13.1942
   -13.1880 -13.1880 -13.1711 -13.1711  -4.9315  -4.9315  -4.6269  -4.6269
     0.0661   0.0661   1.4336   1.4336   4.3908   4.3908   5.9298   5.9298
     6.3069   6.3069   6.6792   6.6792   7.2608   7.2608   7.7976   7.7976
     9.3221   9.3221   9.6517   9.6517   9.7891   9.7891  10.7608  10.7608
    11.2251  11.2251

     occupation numbers 
     1.0000   1.0000   1.0000   1.0000   1.0000   1.0000   1.0000   1.0000
     1.0000   1.0000   1.0000   1.0000   1.0000   1.0000   1.0000   1.0000
     1.0000   1.0000   1.0000   1.0000   1.0000   1.0000   1.0000   1.0000
     1.0000   1.0000   1.0000   1.0000   1.0000   1.0000   1.0000   1.0000
     1.0000   1.0000   1.0000   1.0000   1.0000   1.0000   1.0000   1.0000
     0.0000   0.0000   0.0000   0.0000   0.0000   0.0000   0.0000   0.0000
     0.0000   0.0000

          k = 0.0000 0.4527 0.0000 ( 20564 PWs)   bands (ev):

   -13.2613 -13.2534 -13.2518 -13.2490 -13.2474 -13.2470 -13.2466 -13.2414
   -13.2372 -13.2309 -13.2296 -13.2280 -13.2146 -13.2131 -13.1945 -13.1939
   -13.1871 -13.1855 -13.1760 -13.1688  -5.5978  -5.2704  -4.5969  -4.1702
     0.6097   1.5563   2.3403   2.3701   3.2406   4.6342   4.9622   5.0879
     5.1739   5.3991   6.1250   6.3945   6.5250   7.4128   7.4274   7.4282
     9.0701   9.9278  10.8646  11.1284  11.2209  11.4500  11.8178  11.8709
    12.5545  13.1370

     occupation numbers 
     1.0000   1.0000   1.0000   1.0000   1.0000   1.0000   1.0000   1.0000
     1.0000   1.0000   1.0000   1.0000   1.0000   1.0000   1.0000   1.0000
     1.0000   1.0000   1.0000   1.0000   1.0000   1.0000   1.0000   1.0000
     1.0000   1.0000   1.0000   1.0000   1.0000   1.0000   1.0000   1.0000
     1.0000   1.0000   1.0000   1.0000   1.0000   1.0000   1.0000   1.0000
     0.0000   0.0000   0.0000   0.0000   0.0000   0.0000   0.0000   0.0000
     0.0000   0.0000

          k = 0.0000 0.4527 0.4269 ( 20584 PWs)   bands (ev):

   -13.2609 -13.2535 -13.2532 -13.2485 -13.2480 -13.2474 -13.2458 -13.2435
   -13.2365 -13.2297 -13.2281 -13.2255 -13.2153 -13.2124 -13.1949 -13.1929
   -13.1876 -13.1865 -13.1754 -13.1692  -5.4840  -5.1672  -4.5820  -4.1924
     0.4173   1.5347   1.8463   2.2900   3.3520   4.1005   4.3248   5.4217
     5.5919   5.9098   6.0302   6.3504   7.0705   7.2021   7.5512   7.6538
     9.1842   9.6439  10.1415  10.1805  11.1820  11.3136  11.8770  12.0784
    12.5642  12.9655

     occupation numbers 
     1.0000   1.0000   1.0000   1.0000   1.0000   1.0000   1.0000   1.0000
     1.0000   1.0000   1.0000   1.0000   1.0000   1.0000   1.0000   1.0000
     1.0000   1.0000   1.0000   1.0000   1.0000   1.0000   1.0000   1.0000
     1.0000   1.0000   1.0000   1.0000   1.0000   1.0000   1.0000   1.0000
     1.0000   1.0000   1.0000   1.0000   1.0000   1.0000   1.0000   1.0000
     0.0000   0.0000   0.0000   0.0000   0.0000   0.0000   0.0000   0.0000
     0.0000   0.0000

          k = 0.0000 0.4527 0.8538 ( 20542 PWs)   bands (ev):

   -13.2606 -13.2571 -13.2526 -13.2500 -13.2482 -13.2475 -13.2466 -13.2445
   -13.2342 -13.2305 -13.2226 -13.2199 -13.2160 -13.2125 -13.1942 -13.1914
   -13.1894 -13.1882 -13.1739 -13.1703  -5.1838  -4.8937  -4.6154  -4.3031
     0.1283   0.9281   1.4480   1.9229   3.7923   4.0945   4.2788   5.3097
     5.4676   5.8004   6.2082   6.6192   7.0332   7.3113   7.3991   7.6186
     9.1861   9.4903   9.9481  10.2727  10.7640  11.1138  11.3040  12.3505
    12.6212  12.9035

     occupation numbers 
     1.0000   1.0000   1.0000   1.0000   1.0000   1.0000   1.0000   1.0000
     1.0000   1.0000   1.0000   1.0000   1.0000   1.0000   1.0000   1.0000
     1.0000   1.0000   1.0000   1.0000   1.0000   1.0000   1.0000   1.0000
     1.0000   1.0000   1.0000   1.0000   1.0000   1.0000   1.0000   1.0000
     1.0000   1.0000   1.0000   1.0000   1.0000   1.0000   1.0000   1.0000
     0.0000   0.0000   0.0000   0.0000   0.0000   0.0000   0.0000   0.0000
     0.0000   0.0000

          k = 0.0000 0.4527-1.2807 ( 20540 PWs)   bands (ev):

   -13.2598 -13.2598 -13.2511 -13.2511 -13.2495 -13.2495 -13.2449 -13.2449
   -13.2320 -13.2320 -13.2181 -13.2181 -13.2149 -13.2149 -13.1920 -13.1920
   -13.1898 -13.1898 -13.1720 -13.1720  -4.8312  -4.8312  -4.5578  -4.5578
     0.2528   0.2528   1.5394   1.5394   4.3060   4.3060   4.7839   4.7839
     5.3257   5.3257   6.2944   6.2944   7.1471   7.1471   7.5546   7.5546
     9.2791   9.2791  10.0899  10.0899  11.2583  11.2583  11.7207  11.7207
    12.2934  12.2934

     occupation numbers 
     1.0000   1.0000   1.0000   1.0000   1.0000   1.0000   1.0000   1.0000
     1.0000   1.0000   1.0000   1.0000   1.0000   1.0000   1.0000   1.0000
     1.0000   1.0000   1.0000   1.0000   1.0000   1.0000   1.0000   1.0000
     1.0000   1.0000   1.0000   1.0000   1.0000   1.0000   1.0000   1.0000
     1.0000   1.0000   1.0000   1.0000   1.0000   1.0000   1.0000   1.0000
     0.0000   0.0000   0.0000   0.0000   0.0000   0.0000   0.0000   0.0000
     0.0000   0.0000

          k = 0.0000 0.9054 0.0000 ( 20576 PWs)   bands (ev):

   -13.2580 -13.2553 -13.2547 -13.2526 -13.2442 -13.2440 -13.2423 -13.2383
   -13.2360 -13.2336 -13.2287 -13.2195 -13.2174 -13.2092 -13.1986 -13.1968
   -13.1875 -13.1811 -13.1756 -13.1733  -5.1948  -4.9498  -4.5094  -4.3006
     0.2651   1.0180   1.1503   1.6787   3.7022   4.9706   5.3119   5.4419
     5.5128   5.7668   6.3567   6.5061   6.8481   7.1974   7.3276   7.9127
     8.6727   9.5499   9.8457   9.8693  10.1032  10.6273  10.6758  11.5173
    11.8985  12.2760

     occupation numbers 
     1.0000   1.0000   1.0000   1.0000   1.0000   1.0000   1.0000   1.0000
     1.0000   1.0000   1.0000   1.0000   1.0000   1.0000   1.0000   1.0000
     1.0000   1.0000   1.0000   1.0000   1.0000   1.0000   1.0000   1.0000
     1.0000   1.0000   1.0000   1.0000   1.0000   1.0000   1.0000   1.0000
     1.0000   1.0000   1.0000   1.0000   1.0000   1.0000   1.0000   1.0000
     0.0000   0.0000   0.0000   0.0000   0.0000   0.0000   0.0000   0.0000
     0.0000   0.0000

          k = 0.0000 0.9054 0.4269 ( 20561 PWs)   bands (ev):

   -13.2614 -13.2584 -13.2560 -13.2541 -13.2449 -13.2416 -13.2414 -13.2380
   -13.2347 -13.2333 -13.2267 -13.2180 -13.2175 -13.2092 -13.1980 -13.1963
   -13.1875 -13.1820 -13.1752 -13.1731  -5.0980  -4.8649  -4.4851  -4.2896
     0.3398   1.1586   1.2316   1.6069   3.8359   3.9312   4.2974   5.1341
     5.5221   5.8398   6.1375   6.4901   6.6520   7.1561   7.2956   7.3761
     9.1182   9.5069   9.6884  10.0183  10.8081  11.3533  11.5173  12.0196
    12.4949  12.8353

     occupation numbers 
     1.0000   1.0000   1.0000   1.0000   1.0000   1.0000   1.0000   1.0000
     1.0000   1.0000   1.0000   1.0000   1.0000   1.0000   1.0000   1.0000
     1.0000   1.0000   1.0000   1.0000   1.0000   1.0000   1.0000   1.0000
     1.0000   1.0000   1.0000   1.0000   1.0000   1.0000   1.0000   1.0000
     1.0000   1.0000   1.0000   1.0000   1.0000   1.0000   1.0000   1.0000
     0.0000   0.0000   0.0000   0.0000   0.0000   0.0000   0.0000   0.0000
     0.0000   0.0000

          k = 0.0000 0.9054 0.8538 ( 20556 PWs)   bands (ev):

   -13.2665 -13.2644 -13.2593 -13.2583 -13.2437 -13.2405 -13.2391 -13.2378
   -13.2328 -13.2324 -13.2224 -13.2175 -13.2144 -13.2098 -13.1965 -13.1955
   -13.1870 -13.1836 -13.1743 -13.1730  -4.8542  -4.6523  -4.4746  -4.3034
     0.5074   1.1415   1.4845   1.5840   3.2528   3.6311   4.0729   4.3201
     4.8124   5.2016   5.5149   5.9059   6.2217   6.4861   6.9816   7.2678
     9.0691  10.7091  11.0504  11.2261  11.7010  11.7016  12.5117  12.6807
    13.0205  13.1333

     occupation numbers 
     1.0000   1.0000   1.0000   1.0000   1.0000   1.0000   1.0000   1.0000
     1.0000   1.0000   1.0000   1.0000   1.0000   1.0000   1.0000   1.0000
     1.0000   1.0000   1.0000   1.0000   1.0000   1.0000   1.0000   1.0000
     1.0000   1.0000   1.0000   1.0000   1.0000   1.0000   1.0000   1.0000
     1.0000   1.0000   1.0000   1.0000   1.0000   1.0000   1.0000   1.0000
     0.0000   0.0000   0.0000   0.0000   0.0000   0.0000   0.0000   0.0000
     0.0000   0.0000

          k = 0.0000 0.9054-1.2807 ( 20552 PWs)   bands (ev):

   -13.2680 -13.2680 -13.2607 -13.2607 -13.2418 -13.2418 -13.2379 -13.2379
   -13.2319 -13.2319 -13.2188 -13.2188 -13.2113 -13.2113 -13.1954 -13.1954
   -13.1854 -13.1854 -13.1734 -13.1734  -4.5976  -4.5976  -4.4264  -4.4264
     0.7590   0.7590   1.6656   1.6656   3.4401   3.4401   3.8579   3.8579
     4.7519   4.7519   5.4195   5.4195   6.0373   6.0373   6.9412   6.9412
    10.0425  10.0425  11.6693  11.6693  12.7846  12.7846  12.8409  12.8409
    12.9940  12.9940

     occupation numbers 
     1.0000   1.0000   1.0000   1.0000   1.0000   1.0000   1.0000   1.0000
     1.0000   1.0000   1.0000   1.0000   1.0000   1.0000   1.0000   1.0000
     1.0000   1.0000   1.0000   1.0000   1.0000   1.0000   1.0000   1.0000
     1.0000   1.0000   1.0000   1.0000   1.0000   1.0000   1.0000   1.0000
     1.0000   1.0000   1.0000   1.0000   1.0000   1.0000   1.0000   1.0000
     0.0000   0.0000   0.0000   0.0000   0.0000   0.0000   0.0000   0.0000
     0.0000   0.0000

          k = 0.0000-1.3581 0.0000 ( 20604 PWs)   bands (ev):

   -13.2596 -13.2596 -13.2556 -13.2556 -13.2409 -13.2409 -13.2389 -13.2389
   -13.2300 -13.2300 -13.2264 -13.2264 -13.2087 -13.2087 -13.2040 -13.2040
   -13.1796 -13.1796 -13.1770 -13.1770  -4.6819  -4.6819  -4.6185  -4.6185
     0.3599   0.3599   1.0566   1.0566   4.4850   4.4850   5.8497   5.8497
     5.8648   5.8648   6.3772   6.3772   7.1083   7.1083   7.3077   7.3077
     9.1101   9.1101   9.5456   9.5456   9.8204   9.8204  10.6268  10.6268
    11.3363  11.3363

     occupation numbers 
     1.0000   1.0000   1.0000   1.0000   1.0000   1.0000   1.0000   1.0000
     1.0000   1.0000   1.0000   1.0000   1.0000   1.0000   1.0000   1.0000
     1.0000   1.0000   1.0000   1.0000   1.0000   1.0000   1.0000   1.0000
     1.0000   1.0000   1.0000   1.0000   1.0000   1.0000   1.0000   1.0000
     1.0000   1.0000   1.0000   1.0000   1.0000   1.0000   1.0000   1.0000
     0.0000   0.0000   0.0000   0.0000   0.0000   0.0000   0.0000   0.0000
     0.0000   0.0000

          k = 0.0000-1.3581 0.4269 ( 20580 PWs)   bands (ev):

   -13.2630 -13.2630 -13.2580 -13.2580 -13.2408 -13.2408 -13.2371 -13.2371
   -13.2297 -13.2297 -13.2250 -13.2250 -13.2096 -13.2096 -13.2021 -13.2021
   -13.1804 -13.1804 -13.1762 -13.1762  -4.6219  -4.6219  -4.5659  -4.5659
     0.5227   0.5227   1.1558   1.1558   4.3388   4.3388   4.6826   4.6826
     5.3956   5.3956   6.2246   6.2246   6.5241   6.5241   7.4494   7.4494
     8.9828   8.9828  10.1632  10.1632  11.0840  11.0840  11.6276  11.6276
    12.2879  12.2879

     occupation numbers 
     1.0000   1.0000   1.0000   1.0000   1.0000   1.0000   1.0000   1.0000
     1.0000   1.0000   1.0000   1.0000   1.0000   1.0000   1.0000   1.0000
     1.0000   1.0000   1.0000   1.0000   1.0000   1.0000   1.0000   1.0000
     1.0000   1.0000   1.0000   1.0000   1.0000   1.0000   1.0000   1.0000
     1.0000   1.0000   1.0000   1.0000   1.0000   1.0000   1.0000   1.0000
     0.0000   0.0000   0.0000   0.0000   0.0000   0.0000   0.0000   0.0000
     0.0000   0.0000

          k = 0.0000-1.3581 0.8538 ( 20570 PWs)   bands (ev):

   -13.2693 -13.2693 -13.2628 -13.2628 -13.2403 -13.2403 -13.2345 -13.2345
   -13.2287 -13.2287 -13.2229 -13.2229 -13.2097 -13.2097 -13.1993 -13.1993
   -13.1812 -13.1812 -13.1753 -13.1753  -4.4928  -4.4928  -4.4584  -4.4584
     0.9505   0.9505   1.3627   1.3627   3.4447   3.4447   3.9822   3.9822
     4.6937   4.6937   5.5264   5.5264   5.7396   5.7396   6.9350   6.9350
    10.0273  10.0273  11.5332  11.5332  12.5149  12.5149  12.6264  12.6264
    12.8940  12.8940

     occupation numbers 
     1.0000   1.0000   1.0000   1.0000   1.0000   1.0000   1.0000   1.0000
     1.0000   1.0000   1.0000   1.0000   1.0000   1.0000   1.0000   1.0000
     1.0000   1.0000   1.0000   1.0000   1.0000   1.0000   1.0000   1.0000
     1.0000   1.0000   1.0000   1.0000   1.0000   1.0000   1.0000   1.0000
     1.0000   1.0000   1.0000   1.0000   1.0000   1.0000   1.0000   1.0000
     0.0000   0.0000   0.0000   0.0000   0.0000   0.0000   0.0000   0.0000
     0.0000   0.0000

          k = 0.0000-1.3581-1.2807 ( 20592 PWs)   bands (ev):

   -13.2723 -13.2723 -13.2652 -13.2652 -13.2401 -13.2401 -13.2334 -13.2334
   -13.2281 -13.2281 -13.2222 -13.2222 -13.2092 -13.2092 -13.1982 -13.1982
   -13.1813 -13.1813 -13.1749 -13.1749  -4.4180  -4.4180  -4.4082  -4.4082
     1.2909   1.2909   1.4409   1.4409   3.0375   3.0375   3.5535   3.5535
     4.4684   4.4684   4.9498   4.9498   5.8016   5.8016   6.6436   6.6436
    10.8675  10.8675  11.1754  11.1754  12.8452  12.8452  12.9777  12.9777
    13.7125  13.7125

     occupation numbers 
     1.0000   1.0000   1.0000   1.0000   1.0000   1.0000   1.0000   1.0000
     1.0000   1.0000   1.0000   1.0000   1.0000   1.0000   1.0000   1.0000
     1.0000   1.0000   1.0000   1.0000   1.0000   1.0000   1.0000   1.0000
     1.0000   1.0000   1.0000   1.0000   1.0000   1.0000   1.0000   1.0000
     1.0000   1.0000   1.0000   1.0000   1.0000   1.0000   1.0000   1.0000
     0.0000   0.0000   0.0000   0.0000   0.0000   0.0000   0.0000   0.0000
     0.0000   0.0000

          k =-0.5000 0.0000 0.0000 ( 20528 PWs)   bands (ev):

   -13.2616 -13.2616 -13.2516 -13.2516 -13.2483 -13.2483 -13.2399 -13.2399
   -13.2324 -13.2324 -13.2306 -13.2306 -13.2152 -13.2152 -13.1948 -13.1948
   -13.1854 -13.1854 -13.1709 -13.1709  -5.6062  -5.6062  -4.3737  -4.3737
     1.1512   1.1512   3.0235   3.0235   4.0128   4.0128   4.8552   4.8552
     5.2130   5.2130   6.0079   6.0079   6.2391   6.2391   7.5329   7.5329
    10.6757  10.6757  10.8761  10.8761  11.7680  11.7680  11.9991  11.9991
    13.0947  13.0947

     occupation numbers 
     1.0000   1.0000   1.0000   1.0000   1.0000   1.0000   1.0000   1.0000
     1.0000   1.0000   1.0000   1.0000   1.0000   1.0000   1.0000   1.0000
     1.0000   1.0000   1.0000   1.0000   1.0000   1.0000   1.0000   1.0000
     1.0000   1.0000   1.0000   1.0000   1.0000   1.0000   1.0000   1.0000
     1.0000   1.0000   1.0000   1.0000   1.0000   1.0000   1.0000   1.0000
     0.0000   0.0000   0.0000   0.0000   0.0000   0.0000   0.0000   0.0000
     0.0000   0.0000

          k =-0.5000 0.0000 0.4269 ( 20558 PWs)   bands (ev):

   -13.2606 -13.2606 -13.2506 -13.2506 -13.2495 -13.2495 -13.2413 -13.2413
   -13.2301 -13.2301 -13.2298 -13.2298 -13.2153 -13.2153 -13.1947 -13.1947
   -13.1862 -13.1862 -13.1710 -13.1710  -5.4930  -5.4930  -4.3825  -4.3825
     0.8265   0.8265   2.4654   2.4654   4.2522   4.2522   5.0297   5.0297
     5.4493   5.4493   6.3243   6.3243   6.5531   6.5531   7.4482   7.4482
    10.3855  10.3855  11.0374  11.0374  11.0715  11.0715  11.5705  11.5705
    12.9460  12.9461

     occupation numbers 
     1.0000   1.0000   1.0000   1.0000   1.0000   1.0000   1.0000   1.0000
     1.0000   1.0000   1.0000   1.0000   1.0000   1.0000   1.0000   1.0000
     1.0000   1.0000   1.0000   1.0000   1.0000   1.0000   1.0000   1.0000
     1.0000   1.0000   1.0000   1.0000   1.0000   1.0000   1.0000   1.0000
     1.0000   1.0000   1.0000   1.0000   1.0000   1.0000   1.0000   1.0000
     0.0000   0.0000   0.0000   0.0000   0.0000   0.0000   0.0000   0.0000
     0.0000   0.0000

          k =-0.5000 0.0000 0.8538 ( 20478 PWs)   bands (ev):

   -13.2583 -13.2583 -13.2519 -13.2519 -13.2492 -13.2492 -13.2439 -13.2439
   -13.2293 -13.2293 -13.2238 -13.2238 -13.2160 -13.2160 -13.1942 -13.1942
   -13.1876 -13.1876 -13.1711 -13.1711  -5.1953  -5.1953  -4.4693  -4.4693
     0.3276   0.3276   1.6293   1.6293   4.6957   4.6957   5.4993   5.4993
     5.8609   5.8609   6.4269   6.4269   6.9830   6.9830   7.7560   7.7560
     9.5834   9.5834  10.0722  10.0722  10.4130  10.4130  11.5177  11.5177
    11.7113  11.7113

     occupation numbers 
     1.0000   1.0000   1.0000   1.0000   1.0000   1.0000   1.0000   1.0000
     1.0000   1.0000   1.0000   1.0000   1.0000   1.0000   1.0000   1.0000
     1.0000   1.0000   1.0000   1.0000   1.0000   1.0000   1.0000   1.0000
     1.0000   1.0000   1.0000   1.0000   1.0000   1.0000   1.0000   1.0000
     1.0000   1.0000   1.0000   1.0000   1.0000   1.0000   1.0000   1.0000
     0.0000   0.0000   0.0000   0.0000   0.0000   0.0000   0.0000   0.0000
     0.0000   0.0000

          k =-0.5000 0.0000-1.2807 ( 20480 PWs)   bands (ev):

   -13.2569 -13.2569 -13.2531 -13.2531 -13.2490 -13.2490 -13.2452 -13.2452
   -13.2289 -13.2289 -13.2188 -13.2188 -13.2182 -13.2182 -13.1938 -13.1938
   -13.1883 -13.1883 -13.1712 -13.1712  -4.9284  -4.9284  -4.6313  -4.6313
     0.1459   0.1459   1.2469   1.2469   5.2430   5.2430   5.4905   5.4905
     5.9431   5.9431   6.2872   6.2872   7.5413   7.5413   7.8129   7.8129
     9.3019   9.3019   9.7148   9.7148   9.7704   9.7704  11.1181  11.1181
    11.4682  11.4682

     occupation numbers 
     1.0000   1.0000   1.0000   1.0000   1.0000   1.0000   1.0000   1.0000
     1.0000   1.0000   1.0000   1.0000   1.0000   1.0000   1.0000   1.0000
     1.0000   1.0000   1.0000   1.0000   1.0000   1.0000   1.0000   1.0000
     1.0000   1.0000   1.0000   1.0000   1.0000   1.0000   1.0000   1.0000
     1.0000   1.0000   1.0000   1.0000   1.0000   1.0000   1.0000   1.0000
     0.0000   0.0000   0.0000   0.0000   0.0000   0.0000   0.0000   0.0000
     0.0000   0.0000

          k =-0.5000 0.4527 0.0000 ( 20572 PWs)   bands (ev):

   -13.2572 -13.2572 -13.2505 -13.2505 -13.2486 -13.2486 -13.2431 -13.2431
   -13.2335 -13.2335 -13.2288 -13.2288 -13.2141 -13.2141 -13.1936 -13.1936
   -13.1867 -13.1867 -13.1722 -13.1722  -5.4664  -5.4664  -4.3505  -4.3505
     0.9296   0.9296   2.4352   2.4352   4.1470   4.1470   4.8572   4.8572
     5.5295   5.5295   6.1242   6.1242   6.3947   6.3947   7.5912   7.5912
    10.3741  10.3741  10.8678  10.8678  11.3495  11.3495  11.5973  11.5973
    12.8756  12.8756

     occupation numbers 
     1.0000   1.0000   1.0000   1.0000   1.0000   1.0000   1.0000   1.0000
     1.0000   1.0000   1.0000   1.0000   1.0000   1.0000   1.0000   1.0000
     1.0000   1.0000   1.0000   1.0000   1.0000   1.0000   1.0000   1.0000
     1.0000   1.0000   1.0000   1.0000   1.0000   1.0000   1.0000   1.0000
     1.0000   1.0000   1.0000   1.0000   1.0000   1.0000   1.0000   1.0000
     0.0000   0.0000   0.0000   0.0000   0.0000   0.0000   0.0000   0.0000
     0.0000   0.0000

          k =-0.5000 0.4527 0.4269 ( 20552 PWs)   bands (ev):

   -13.2573 -13.2573 -13.2517 -13.2517 -13.2478 -13.2478 -13.2441 -13.2441
   -13.2329 -13.2329 -13.2265 -13.2265 -13.2142 -13.2142 -13.1934 -13.1934
   -13.1875 -13.1875 -13.1720 -13.1720  -5.3578  -5.3578  -4.3543  -4.3543
     0.7832   0.7832   2.1682   2.1682   4.1294   4.1294   4.6529   4.6529
     5.4437   5.4437   6.2614   6.2614   7.0747   7.0747   7.5528   7.5528
     9.6829   9.6829  10.7541  10.7541  11.2320  11.2320  11.6445  11.6445
    12.4768  12.4768

     occupation numbers 
     1.0000   1.0000   1.0000   1.0000   1.0000   1.0000   1.0000   1.0000
     1.0000   1.0000   1.0000   1.0000   1.0000   1.0000   1.0000   1.0000
     1.0000   1.0000   1.0000   1.0000   1.0000   1.0000   1.0000   1.0000
     1.0000   1.0000   1.0000   1.0000   1.0000   1.0000   1.0000   1.0000
     1.0000   1.0000   1.0000   1.0000   1.0000   1.0000   1.0000   1.0000
     0.0000   0.0000   0.0000   0.0000   0.0000   0.0000   0.0000   0.0000
     0.0000   0.0000

          k =-0.5000 0.4527 0.8538 ( 20524 PWs)   bands (ev):

   -13.2580 -13.2580 -13.2540 -13.2540 -13.2469 -13.2469 -13.2447 -13.2447
   -13.2320 -13.2320 -13.2215 -13.2215 -13.2143 -13.2143 -13.1926 -13.1926
   -13.1894 -13.1894 -13.1717 -13.1717  -5.0758  -5.0758  -4.4225  -4.4225
     0.4681   0.4681   1.6532   1.6532   4.1804   4.1804   4.9872   4.9872
     5.2395   5.2395   6.4364   6.4364   6.8968   6.8968   7.5440   7.5440
     9.7395   9.7395  10.3755  10.3755  10.9203  10.9203  11.5648  11.5648
    12.5060  12.5060

     occupation numbers 
     1.0000   1.0000   1.0000   1.0000   1.0000   1.0000   1.0000   1.0000
     1.0000   1.0000   1.0000   1.0000   1.0000   1.0000   1.0000   1.0000
     1.0000   1.0000   1.0000   1.0000   1.0000   1.0000   1.0000   1.0000
     1.0000   1.0000   1.0000   1.0000   1.0000   1.0000   1.0000   1.0000
     1.0000   1.0000   1.0000   1.0000   1.0000   1.0000   1.0000   1.0000
     0.0000   0.0000   0.0000   0.0000   0.0000   0.0000   0.0000   0.0000
     0.0000   0.0000

          k =-0.5000 0.4527-1.2807 ( 20524 PWs)   bands (ev):

   -13.2587 -13.2587 -13.2550 -13.2550 -13.2468 -13.2468 -13.2446 -13.2446
   -13.2316 -13.2316 -13.2186 -13.2186 -13.2147 -13.2147 -13.1914 -13.1914
   -13.1910 -13.1910 -13.1715 -13.1715  -4.8284  -4.8284  -4.5616  -4.5616
     0.3227   0.3227   1.3808   1.3808   4.5924   4.5924   4.7882   4.7882
     5.5555   5.5555   5.9748   5.9748   6.8248   6.8248   7.3414   7.3414
    10.2017  10.2017  10.2588  10.2588  10.7877  10.7877  11.5272  11.5272
    12.4446  12.4446

     occupation numbers 
     1.0000   1.0000   1.0000   1.0000   1.0000   1.0000   1.0000   1.0000
     1.0000   1.0000   1.0000   1.0000   1.0000   1.0000   1.0000   1.0000
     1.0000   1.0000   1.0000   1.0000   1.0000   1.0000   1.0000   1.0000
     1.0000   1.0000   1.0000   1.0000   1.0000   1.0000   1.0000   1.0000
     1.0000   1.0000   1.0000   1.0000   1.0000   1.0000   1.0000   1.0000
     0.0000   0.0000   0.0000   0.0000   0.0000   0.0000   0.0000   0.0000
     0.0000   0.0000

          k =-0.5000 0.9054 0.0000 ( 20552 PWs)   bands (ev):

   -13.2575 -13.2575 -13.2528 -13.2528 -13.2432 -13.2432 -13.2419 -13.2419
   -13.2342 -13.2342 -13.2254 -13.2254 -13.2119 -13.2119 -13.1980 -13.1980
   -13.1840 -13.1840 -13.1744 -13.1744  -5.0939  -5.0939  -4.3825  -4.3825
     0.5646   0.5646   1.4042   1.4042   4.6049   4.6049   5.2260   5.2260
     5.9040   5.9040   6.2319   6.2319   6.5488   6.5488   7.6366   7.6366
     9.2242   9.2242  10.1306  10.1306  10.8904  10.8904  11.2853  11.2853
    11.6732  11.6732

     occupation numbers 
     1.0000   1.0000   1.0000   1.0000   1.0000   1.0000   1.0000   1.0000
     1.0000   1.0000   1.0000   1.0000   1.0000   1.0000   1.0000   1.0000
     1.0000   1.0000   1.0000   1.0000   1.0000   1.0000   1.0000   1.0000
     1.0000   1.0000   1.0000   1.0000   1.0000   1.0000   1.0000   1.0000
     1.0000   1.0000   1.0000   1.0000   1.0000   1.0000   1.0000   1.0000
     0.0000   0.0000   0.0000   0.0000   0.0000   0.0000   0.0000   0.0000
     0.0000   0.0000

          k =-0.5000 0.9054 0.4269 ( 20560 PWs)   bands (ev):

   -13.2598 -13.2598 -13.2554 -13.2554 -13.2424 -13.2424 -13.2409 -13.2409
   -13.2333 -13.2333 -13.2241 -13.2241 -13.2115 -13.2115 -13.1979 -13.1979
   -13.1842 -13.1842 -13.1742 -13.1742  -5.0026  -5.0026  -4.3656  -4.3656
     0.6609   0.6609   1.4304   1.4304   4.0803   4.0803   4.9036   4.9036
     5.3407   5.3407   6.3177   6.3177   6.6192   6.6192   7.3884   7.3884
     9.7132   9.7132  10.0892  10.0892  11.1650  11.1650  11.5643  11.5643
    12.0991  12.0991

     occupation numbers 
     1.0000   1.0000   1.0000   1.0000   1.0000   1.0000   1.0000   1.0000
     1.0000   1.0000   1.0000   1.0000   1.0000   1.0000   1.0000   1.0000
     1.0000   1.0000   1.0000   1.0000   1.0000   1.0000   1.0000   1.0000
     1.0000   1.0000   1.0000   1.0000   1.0000   1.0000   1.0000   1.0000
     1.0000   1.0000   1.0000   1.0000   1.0000   1.0000   1.0000   1.0000
     0.0000   0.0000   0.0000   0.0000   0.0000   0.0000   0.0000   0.0000
     0.0000   0.0000

          k =-0.5000 0.9054 0.8538 ( 20556 PWs)   bands (ev):

   -13.2644 -13.2644 -13.2601 -13.2601 -13.2414 -13.2414 -13.2393 -13.2393
   -13.2318 -13.2318 -13.2217 -13.2217 -13.2100 -13.2100 -13.1976 -13.1976
   -13.1845 -13.1845 -13.1737 -13.1737  -4.7767  -4.7767  -4.3656  -4.3656
     0.7959   0.7959   1.5060   1.5060   3.4925   3.4925   4.3745   4.3745
     4.9023   4.9023   5.5642   5.5642   6.3439   6.3439   7.0945   7.0945
    10.4142  10.4142  11.0013  11.0013  11.1977  11.1977  12.4973  12.4973
    12.6819  12.6819

     occupation numbers 
     1.0000   1.0000   1.0000   1.0000   1.0000   1.0000   1.0000   1.0000
     1.0000   1.0000   1.0000   1.0000   1.0000   1.0000   1.0000   1.0000
     1.0000   1.0000   1.0000   1.0000   1.0000   1.0000   1.0000   1.0000
     1.0000   1.0000   1.0000   1.0000   1.0000   1.0000   1.0000   1.0000
     1.0000   1.0000   1.0000   1.0000   1.0000   1.0000   1.0000   1.0000
     0.0000   0.0000   0.0000   0.0000   0.0000   0.0000   0.0000   0.0000
     0.0000   0.0000

          k =-0.5000 0.9054-1.2807 ( 20572 PWs)   bands (ev):

   -13.2666 -13.2666 -13.2625 -13.2625 -13.2411 -13.2411 -13.2387 -13.2387
   -13.2310 -13.2310 -13.2206 -13.2206 -13.2089 -13.2089 -13.1973 -13.1973
   -13.1846 -13.1846 -13.1734 -13.1734  -4.5958  -4.5958  -4.4286  -4.4286
     0.7944   0.7944   1.5955   1.5955   3.6148   3.6148   3.7070   3.7070
     4.9712   4.9712   5.0528   5.0528   6.3811   6.3811   6.7346   6.7346
    10.4911  10.4911  11.2694  11.2694  12.1367  12.1367  12.2361  12.2361
    13.5856  13.5860

     occupation numbers 
     1.0000   1.0000   1.0000   1.0000   1.0000   1.0000   1.0000   1.0000
     1.0000   1.0000   1.0000   1.0000   1.0000   1.0000   1.0000   1.0000
     1.0000   1.0000   1.0000   1.0000   1.0000   1.0000   1.0000   1.0000
     1.0000   1.0000   1.0000   1.0000   1.0000   1.0000   1.0000   1.0000
     1.0000   1.0000   1.0000   1.0000   1.0000   1.0000   1.0000   1.0000
     0.0000   0.0000   0.0000   0.0000   0.0000   0.0000   0.0000   0.0000
     0.0000   0.0000

          k =-0.5000-1.3581 0.0000 ( 20564 PWs)   bands (ev):

   -13.2578 -13.2578 -13.2578 -13.2578 -13.2400 -13.2400 -13.2400 -13.2400
   -13.2279 -13.2279 -13.2279 -13.2279 -13.2064 -13.2064 -13.2064 -13.2064
   -13.1783 -13.1783 -13.1783 -13.1783  -4.6508  -4.6508  -4.6508  -4.6508
     0.6674   0.6674   0.6674   0.6674   5.3019   5.3019   5.3019   5.3019
     5.9772   5.9772   5.9772   5.9772   7.0677   7.0677   7.0677   7.0677
     9.5792   9.5792   9.5792   9.5792  10.2420  10.2420  10.2420  10.2420
    12.0009  12.0009

     occupation numbers 
     1.0000   1.0000   1.0000   1.0000   1.0000   1.0000   1.0000   1.0000
     1.0000   1.0000   1.0000   1.0000   1.0000   1.0000   1.0000   1.0000
     1.0000   1.0000   1.0000   1.0000   1.0000   1.0000   1.0000   1.0000
     1.0000   1.0000   1.0000   1.0000   1.0000   1.0000   1.0000   1.0000
     1.0000   1.0000   1.0000   1.0000   1.0000   1.0000   1.0000   1.0000
     0.0000   0.0000   0.0000   0.0000   0.0000   0.0000   0.0000   0.0000
     0.0000   0.0000

          k =-0.5000-1.3581 0.4269 ( 20572 PWs)   bands (ev):

   -13.2606 -13.2606 -13.2606 -13.2606 -13.2392 -13.2392 -13.2392 -13.2392
   -13.2273 -13.2273 -13.2273 -13.2273 -13.2057 -13.2057 -13.2057 -13.2057
   -13.1782 -13.1782 -13.1782 -13.1782  -4.5944  -4.5944  -4.5944  -4.5944
     0.8045   0.8045   0.8045   0.8045   4.6670   4.6670   4.6670   4.6670
     5.6437   5.6437   5.6437   5.6437   6.8401   6.8401   6.8401   6.8401
     9.9097   9.9097   9.9097   9.9097  11.3275  11.3275  11.3275  11.3275
    12.2335  12.2335

     occupation numbers 
     1.0000   1.0000   1.0000   1.0000   1.0000   1.0000   1.0000   1.0000
     1.0000   1.0000   1.0000   1.0000   1.0000   1.0000   1.0000   1.0000
     1.0000   1.0000   1.0000   1.0000   1.0000   1.0000   1.0000   1.0000
     1.0000   1.0000   1.0000   1.0000   1.0000   1.0000   1.0000   1.0000
     1.0000   1.0000   1.0000   1.0000   1.0000   1.0000   1.0000   1.0000
     0.0000   0.0000   0.0000   0.0000   0.0000   0.0000   0.0000   0.0000
     0.0000   0.0000

          k =-0.5000-1.3581 0.8538 ( 20576 PWs)   bands (ev):

   -13.2661 -13.2661 -13.2661 -13.2661 -13.2381 -13.2381 -13.2381 -13.2381
   -13.2258 -13.2258 -13.2258 -13.2258 -13.2041 -13.2041 -13.2041 -13.2041
   -13.1780 -13.1780 -13.1780 -13.1780  -4.4757  -4.4757  -4.4757  -4.4757
     1.1366   1.1366   1.1366   1.1366   3.7643   3.7643   3.7643   3.7643
     4.8583   4.8583   4.8583   4.8583   6.5648   6.5648   6.5648   6.5648
    10.7491  10.7491  10.7491  10.7491  11.9949  11.9949  11.9950  11.9950
    13.7592  13.7592

     occupation numbers 
     1.0000   1.0000   1.0000   1.0000   1.0000   1.0000   1.0000   1.0000
     1.0000   1.0000   1.0000   1.0000   1.0000   1.0000   1.0000   1.0000
     1.0000   1.0000   1.0000   1.0000   1.0000   1.0000   1.0000   1.0000
     1.0000   1.0000   1.0000   1.0000   1.0000   1.0000   1.0000   1.0000
     1.0000   1.0000   1.0000   1.0000   1.0000   1.0000   1.0000   1.0000
     0.0000   0.0000   0.0000   0.0000   0.0000   0.0000   0.0000   0.0000
     0.0000   0.0000

          k =-0.5000-1.3581-1.2807 ( 20576 PWs)   bands (ev):

   -13.2687 -13.2687 -13.2687 -13.2687 -13.2378 -13.2378 -13.2378 -13.2378
   -13.2250 -13.2250 -13.2250 -13.2250 -13.2032 -13.2032 -13.2032 -13.2032
   -13.1778 -13.1778 -13.1778 -13.1778  -4.4131  -4.4131  -4.4131  -4.4131
     1.3469   1.3469   1.3469   1.3469   3.4561   3.4561   3.4561   3.4561
     4.3158   4.3158   4.3158   4.3158   6.5956   6.5956   6.5956   6.5956
    10.6247  10.6247  10.6247  10.6247  12.8394  12.8394  12.8394  12.8394
    14.6045  14.6045

     occupation numbers 
     1.0000   1.0000   1.0000   1.0000   1.0000   1.0000   1.0000   1.0000
     1.0000   1.0000   1.0000   1.0000   1.0000   1.0000   1.0000   1.0000
     1.0000   1.0000   1.0000   1.0000   1.0000   1.0000   1.0000   1.0000
     1.0000   1.0000   1.0000   1.0000   1.0000   1.0000   1.0000   1.0000
     1.0000   1.0000   1.0000   1.0000   1.0000   1.0000   1.0000   1.0000
     0.0000   0.0000   0.0000   0.0000   0.0000   0.0000   0.0000   0.0000
     0.0000   0.0000

     highest occupied, lowest unoccupied level (ev):     8.1000    8.6727

!    total energy              =    -827.62378631 Ry
     estimated scf accuracy    <          1.1E-09 Ry

     The total energy is the sum of the following terms:
     one-electron contribution =    -257.01061978 Ry
     hartree contribution      =     179.11549136 Ry
     xc contribution           =    -309.12384169 Ry
     ewald contribution        =    -440.60481620 Ry

     convergence has been achieved in   9 iterations

     Forces acting on atoms (cartesian axes, Ry/au):

     atom    1 type  2   force =     0.00805203    0.00000000   -0.00035372
     atom    2 type  1   force =    -0.00736564    0.00000000   -0.00105793
     atom    3 type  2   force =    -0.00805203   -0.00000000   -0.00035372
     atom    4 type  1   force =     0.00736564    0.00000000   -0.00105793
     atom    5 type  2   force =     0.00805203    0.00000000    0.00035372
     atom    6 type  1   force =    -0.00736564    0.00000000    0.00105793
     atom    7 type  2   force =    -0.00805203    0.00000000    0.00035372
     atom    8 type  1   force =     0.00736564   -0.00000000    0.00105793
     The non-local contrib.  to forces
     atom    1 type  2   force =    -0.11831764    0.00000000    0.09595692
     atom    2 type  1   force =     0.37320781    0.00000000    0.26603163
     atom    3 type  2   force =     0.11831764    0.00000000    0.09595692
     atom    4 type  1   force =    -0.37320781    0.00000000    0.26603163
     atom    5 type  2   force =    -0.11831764    0.00000000   -0.09595692
     atom    6 type  1   force =     0.37320781    0.00000000   -0.26603163
     atom    7 type  2   force =     0.11831764    0.00000000   -0.09595692
     atom    8 type  1   force =    -0.37320781    0.00000000   -0.26603163
     The ionic contribution  to forces
     atom    1 type  2   force =     1.53473235   -0.00000000   -1.05154455
     atom    2 type  1   force =    -1.03769718    0.00000000   -0.57506129
     atom    3 type  2   force =    -1.53473235    0.00000000   -1.05154455
     atom    4 type  1   force =     1.03769718   -0.00000000   -0.57506129
     atom    5 type  2   force =     1.53473235    0.00000000    1.05154455
     atom    6 type  1   force =    -1.03769718   -0.00000000    0.57506129
     atom    7 type  2   force =    -1.53473235   -0.00000000    1.05154455
     atom    8 type  1   force =     1.03769718    0.00000000    0.57506129
     The local contribution  to forces
     atom    1 type  2   force =    -1.42138870   -0.00000000    0.96582447
     atom    2 type  1   force =     0.66292900    0.00000000    0.31229110
     atom    3 type  2   force =     1.42138870   -0.00000000    0.96582447
     atom    4 type  1   force =    -0.66292900    0.00000000    0.31229110
     atom    5 type  2   force =    -1.42138870   -0.00000000   -0.96582447
     atom    6 type  1   force =     0.66292900   -0.00000000   -0.31229110
     atom    7 type  2   force =     1.42138870    0.00000000   -0.96582447
     atom    8 type  1   force =    -0.66292900    0.00000000   -0.31229110
     The core correction contribution to forces
     atom    1 type  2   force =     0.01299423   -0.00000000   -0.01059080
     atom    2 type  1   force =    -0.00573749    0.00000000   -0.00434540
     atom    3 type  2   force =    -0.01299423    0.00000000   -0.01059080
     atom    4 type  1   force =     0.00573749    0.00000000   -0.00434540
     atom    5 type  2   force =     0.01299423   -0.00000000    0.01059080
     atom    6 type  1   force =    -0.00573749    0.00000000    0.00434540
     atom    7 type  2   force =    -0.01299423   -0.00000000    0.01059080
     atom    8 type  1   force =     0.00573749   -0.00000000    0.00434540
     The Hubbard contrib.    to forces
     atom    1 type  2   force =     0.00000000    0.00000000    0.00000000
     atom    2 type  1   force =     0.00000000    0.00000000    0.00000000
     atom    3 type  2   force =     0.00000000    0.00000000    0.00000000
     atom    4 type  1   force =     0.00000000    0.00000000    0.00000000
     atom    5 type  2   force =     0.00000000    0.00000000    0.00000000
     atom    6 type  1   force =     0.00000000    0.00000000    0.00000000
     atom    7 type  2   force =     0.00000000    0.00000000    0.00000000
     atom    8 type  1   force =     0.00000000    0.00000000    0.00000000
     The SCF correction term to forces
     atom    1 type  2   force =     0.00003178   -0.00000000    0.00000024
     atom    2 type  1   force =    -0.00006778    0.00000000    0.00002604
     atom    3 type  2   force =    -0.00003178   -0.00000000    0.00000024
     atom    4 type  1   force =     0.00006778    0.00000000    0.00002604
     atom    5 type  2   force =     0.00003178    0.00000000   -0.00000024
     atom    6 type  1   force =    -0.00006778   -0.00000000   -0.00002604
     atom    7 type  2   force =    -0.00003178   -0.00000000   -0.00000024
     atom    8 type  1   force =     0.00006778    0.00000000   -0.00002604

     Total force =     0.021939     Total SCF correction =     0.000159

     Writing output data file ./tmp/SnSe_pnma.save/

     init_run     :     20.43s CPU     25.02s WALL (       1 calls)
     electrons    :    549.35s CPU    619.63s WALL (       1 calls)
     forces       :     23.59s CPU     23.54s WALL (       1 calls)

     Called by init_run:
     wfcinit      :     11.95s CPU     14.16s WALL (       1 calls)
     wfcinit:atom :      0.11s CPU      0.09s WALL (      11 calls)
     wfcinit:wfcr :     11.22s CPU     13.58s WALL (      11 calls)
     potinit      :      2.42s CPU      2.59s WALL (       1 calls)
     hinit0       :      3.20s CPU      3.25s WALL (       1 calls)

     Called by electrons:
     c_bands      :    434.64s CPU    487.41s WALL (       9 calls)
     sum_band     :     74.32s CPU     80.97s WALL (       9 calls)
     v_of_rho     :      8.87s CPU     10.27s WALL (      10 calls)
     v_h          :      0.73s CPU      0.85s WALL (      10 calls)
     v_xc         :      9.02s CPU     10.42s WALL (      11 calls)
     newd         :     31.99s CPU     43.61s WALL (      10 calls)
     mix_rho      :      1.65s CPU      1.68s WALL (       9 calls)

     Called by c_bands:
     init_us_2    :      3.37s CPU      2.92s WALL (     220 calls)
     cegterg      :    352.42s CPU    406.04s WALL (      99 calls)

     Called by sum_band:
     sum_band:wei :      0.02s CPU      0.02s WALL (       9 calls)
     sum_band:loo :     53.42s CPU     58.42s WALL (       9 calls)
     sum_band:buf :      0.39s CPU      0.31s WALL (      99 calls)
     sum_band:ini :      1.59s CPU      1.29s WALL (      99 calls)
     sum_band:cal :     13.02s CPU     19.17s WALL (      99 calls)
     sum_band:bec :      0.01s CPU      0.01s WALL (      99 calls)
     addusdens    :     18.56s CPU     20.28s WALL (       9 calls)
     addusd:skk   :      0.06s CPU      0.13s WALL (      18 calls)
     addusd:dgemm :      4.76s CPU      5.16s WALL (      18 calls)
     addusd:qvan2 :     12.94s CPU     12.83s WALL (      18 calls)

     Called by *egterg:
     cdiaghg      :     14.84s CPU     33.72s WALL (     442 calls)
     cegterg:over :     47.63s CPU     69.34s WALL (     343 calls)
     cegterg:upda :      8.03s CPU      4.51s WALL (     343 calls)
     cegterg:last :     13.75s CPU      6.20s WALL (     208 calls)
     h_psi        :    232.86s CPU    247.72s WALL (     453 calls)
     s_psi        :     14.06s CPU      6.36s WALL (     453 calls)
     g_psi        :      1.16s CPU      0.96s WALL (     343 calls)

     Called by h_psi:
     h_psi:calbec :     39.06s CPU     58.14s WALL (     453 calls)
     vloc_psi     :    178.36s CPU    181.99s WALL (     453 calls)
     add_vuspsi   :     14.59s CPU      6.60s WALL (     453 calls)

     General routines
     calbec       :     56.31s CPU     80.51s WALL (     596 calls)
     fft          :      8.62s CPU      9.26s WALL (     139 calls)
     ffts         :      0.31s CPU      0.30s WALL (      19 calls)
     fftw         :    184.25s CPU    187.14s WALL (   31848 calls)
     interpolate  :      0.92s CPU      0.96s WALL (      10 calls)

     Parallel routines
     fft_scatt_xy :     42.16s CPU     42.19s WALL (   32006 calls)
     fft_scatt_yz :     33.50s CPU     36.40s WALL (   32006 calls)

     PWSCF        :   9m53.70s CPU  11m 8.87s WALL


   This run was terminated on:  13:57:11  19May2026            

=------------------------------------------------------------------------------=
   JOB DONE.
=------------------------------------------------------------------------------=
