
     Program PWSCF v.6.7MaX starts on 19May2026 at 11:17:54 

     This program is part of the open-source Quantum ESPRESSO suite
     for quantum simulation of materials; please cite
         "P. Giannozzi et al., J. Phys.:Condens. Matter 21 395502 (2009);
         "P. Giannozzi et al., J. Phys.:Condens. Matter 29 465901 (2017);
          URL http://www.quantum-espresso.org", 
     in publications or presentations arising from this work. More details at
     http://www.quantum-espresso.org/quote

     Parallel version (MPI), running on     6 processors

     MPI processes distributed on     1 nodes
     K-points division:     npool     =       3
     R & G space division:  proc/nbgrp/npool/nimage =       2
     Waiting for input...
     Reading input from standard input

     Current dimensions of program PWSCF are:
     Max number of different atomic species (ntypx) = 10
     Max number of k-points (npk) =  40000
     Max angular momentum in pseudopotentials (lmaxx) =  3

     Subspace diagonalization in iterative solution of the eigenvalue problem:
     a serial algorithm will be used


     Parallelization info
     --------------------
     sticks:   dense  smooth     PW     G-vecs:    dense   smooth      PW
     Min        5411    2167    607               272382    68912   10331
     Max        5412    2168    608               272383    68913   10332
     Sum       10823    4335   1215               544765   137825   20663



     bravais-lattice index     =            8
     lattice parameter (alat)  =      21.4862  a.u.
     unit-cell volume          =    1425.7436 (a.u.)^3
     number of atoms/cell      =            8
     number of atomic types    =            2
     number of electrons       =        80.00
     number of Kohn-Sham states=           50
     kinetic-energy cutoff     =      80.0000  Ry
     charge density cutoff     =     800.0000  Ry
     scf convergence threshold =      1.0E-08
     mixing beta               =       0.7000
     number of iterations used =            8  plain     mixing
     Exchange-correlation= SLA  PW   PBE  PBE
                           (   1   4   3   4   0   0   0)

     celldm(1)=  21.486186  celldm(2)=   0.368162  celldm(3)=   0.390413
     celldm(4)=   0.000000  celldm(5)=   0.000000  celldm(6)=   0.000000

     crystal axes: (cart. coord. in units of alat)
               a(1) = (   1.000000   0.000000   0.000000 )  
               a(2) = (   0.000000   0.368162   0.000000 )  
               a(3) = (   0.000000   0.000000   0.390413 )  

     reciprocal axes: (cart. coord. in units 2 pi/alat)
               b(1) = (  1.000000  0.000000  0.000000 )  
               b(2) = (  0.000000  2.716197  0.000000 )  
               b(3) = (  0.000000  0.000000  2.561388 )  


     PseudoPot. # 1 for Sn read from file:
     ../pseudo/Sn_pbe_v1.uspp.F.UPF
     MD5 check sum: 4cf58ce39ec5d5d420df3dd08604eb00
     Pseudo is Ultrasoft + core correction, Zval = 14.0
     Generated by new atomic code, or converted to UPF format
     Using radial grid of  891 points,  6 beta functions with: 
                l(1) =   0
                l(2) =   0
                l(3) =   1
                l(4) =   1
                l(5) =   2
                l(6) =   2
     Q(r) pseudized with  6 coefficients,  rinner =    1.200   1.200   1.200
                                                       1.200   1.200

     PseudoPot. # 2 for Se read from file:
     ../pseudo/Se_pbe_v1.uspp.F.UPF
     MD5 check sum: 1b3568f3a8ae88f9a2a0ad0698632c85
     Pseudo is Ultrasoft + core correction, Zval =  6.0
     Generated by new atomic code, or converted to UPF format
     Using radial grid of  877 points,  6 beta functions with: 
                l(1) =   0
                l(2) =   0
                l(3) =   1
                l(4) =   1
                l(5) =   2
                l(6) =   2
     Q(r) pseudized with  8 coefficients,  rinner =    1.300   1.300   1.300
                                                       1.300   1.300

     atomic species   valence    mass     pseudopotential
        Sn            14.00   118.71000     Sn( 1.00)
        Se             6.00    78.97100     Se( 1.00)

      8 Sym. Ops., with inversion, found ( 6 have fractional translation)


                                    s                        frac. trans.

      isym =  1     identity                                     

 cryst.   s( 1) = (     1          0          0      )
                  (     0          1          0      )
                  (     0          0          1      )

 cart.    s( 1) = (  1.0000000  0.0000000  0.0000000 )
                  (  0.0000000  1.0000000  0.0000000 )
                  (  0.0000000  0.0000000  1.0000000 )


      isym =  2     180 deg rotation - cart. axis [0,0,1]        

 cryst.   s( 2) = (    -1          0          0      )    f =(  0.5000000 )
                  (     0         -1          0      )       (  0.0000000 )
                  (     0          0          1      )       (  0.5000000 )

 cart.    s( 2) = ( -1.0000000  0.0000000  0.0000000 )    f =(  0.5000000 )
                  (  0.0000000 -1.0000000  0.0000000 )       (  0.0000000 )
                  (  0.0000000  0.0000000  1.0000000 )       (  0.1952067 )


      isym =  3     180 deg rotation - cart. axis [0,1,0]        

 cryst.   s( 3) = (    -1          0          0      )    f =(  0.0000000 )
                  (     0          1          0      )       ( -0.5000000 )
                  (     0          0         -1      )       (  0.0000000 )

 cart.    s( 3) = ( -1.0000000  0.0000000  0.0000000 )    f =(  0.0000000 )
                  (  0.0000000  1.0000000  0.0000000 )       ( -0.1840809 )
                  (  0.0000000  0.0000000 -1.0000000 )       (  0.0000000 )


      isym =  4     180 deg rotation - cart. axis [1,0,0]        

 cryst.   s( 4) = (     1          0          0      )    f =(  0.5000000 )
                  (     0         -1          0      )       (  0.5000000 )
                  (     0          0         -1      )       (  0.5000000 )

 cart.    s( 4) = (  1.0000000  0.0000000  0.0000000 )    f =(  0.5000000 )
                  (  0.0000000 -1.0000000  0.0000000 )       (  0.1840809 )
                  (  0.0000000  0.0000000 -1.0000000 )       (  0.1952067 )


      isym =  5     inversion                                    

 cryst.   s( 5) = (    -1          0          0      )
                  (     0         -1          0      )
                  (     0          0         -1      )

 cart.    s( 5) = ( -1.0000000  0.0000000  0.0000000 )
                  (  0.0000000 -1.0000000  0.0000000 )
                  (  0.0000000  0.0000000 -1.0000000 )


      isym =  6     inv. 180 deg rotation - cart. axis [0,0,1]   

 cryst.   s( 6) = (     1          0          0      )    f =(  0.5000000 )
                  (     0          1          0      )       (  0.0000000 )
                  (     0          0         -1      )       (  0.5000000 )

 cart.    s( 6) = (  1.0000000  0.0000000  0.0000000 )    f =(  0.5000000 )
                  (  0.0000000  1.0000000  0.0000000 )       (  0.0000000 )
                  (  0.0000000  0.0000000 -1.0000000 )       (  0.1952067 )


      isym =  7     inv. 180 deg rotation - cart. axis [0,1,0]   

 cryst.   s( 7) = (     1          0          0      )    f =(  0.0000000 )
                  (     0         -1          0      )       (  0.5000000 )
                  (     0          0          1      )       (  0.0000000 )

 cart.    s( 7) = (  1.0000000  0.0000000  0.0000000 )    f =(  0.0000000 )
                  (  0.0000000 -1.0000000  0.0000000 )       (  0.1840809 )
                  (  0.0000000  0.0000000  1.0000000 )       (  0.0000000 )


      isym =  8     inv. 180 deg rotation - cart. axis [1,0,0]   

 cryst.   s( 8) = (    -1          0          0      )    f =(  0.5000000 )
                  (     0          1          0      )       ( -0.5000000 )
                  (     0          0          1      )       (  0.5000000 )

 cart.    s( 8) = ( -1.0000000  0.0000000  0.0000000 )    f =(  0.5000000 )
                  (  0.0000000  1.0000000  0.0000000 )       ( -0.1840809 )
                  (  0.0000000  0.0000000  1.0000000 )       (  0.1952067 )


     point group D_2h (mmm) 
     there are  8 classes
     the character table:

       E     C2    C2'   C2''  i     s_v   s_v'  s_v''
A_g    1.00  1.00  1.00  1.00  1.00  1.00  1.00  1.00
B_1g   1.00  1.00 -1.00 -1.00  1.00  1.00 -1.00 -1.00
B_2g   1.00 -1.00  1.00 -1.00  1.00 -1.00  1.00 -1.00
B_3g   1.00 -1.00 -1.00  1.00  1.00 -1.00 -1.00  1.00
A_u    1.00  1.00  1.00  1.00 -1.00 -1.00 -1.00 -1.00
B_1u   1.00  1.00 -1.00 -1.00 -1.00 -1.00  1.00  1.00
B_2u   1.00 -1.00  1.00 -1.00 -1.00  1.00 -1.00  1.00
B_3u   1.00 -1.00 -1.00  1.00 -1.00  1.00  1.00 -1.00

     the symmetry operations in each class and the name of the first element:

     E        1
          identity                                               
     C2       2
          180 deg rotation - cart. axis [0,0,1]                  
     C2'      4
          180 deg rotation - cart. axis [1,0,0]                  
     C2''     3
          180 deg rotation - cart. axis [0,1,0]                  
     i        5
          inversion                                              
     s_v      6
          inv. 180 deg rotation - cart. axis [0,0,1]             
     s_v'     8
          inv. 180 deg rotation - cart. axis [1,0,0]             
     s_v''    7
          inv. 180 deg rotation - cart. axis [0,1,0]             

   Cartesian axes

     site n.     atom                  positions (alat units)
         1           Se  tau(   1) = (   0.8555000   0.0920405   0.1884916  )
         2           Sn  tau(   2) = (   0.1187000   0.0920405   0.0385728  )
         3           Se  tau(   3) = (   0.6445000   0.2761214   0.3836983  )
         4           Sn  tau(   4) = (   0.3813000   0.2761214   0.2337795  )
         5           Se  tau(   5) = (   0.3555000   0.0920405   0.0067151  )
         6           Sn  tau(   6) = (   0.6187000   0.0920405   0.1566338  )
         7           Se  tau(   7) = (   0.1445000   0.2761214   0.2019218  )
         8           Sn  tau(   8) = (   0.8813000   0.2761214   0.3518405  )

   Crystallographic axes

     site n.     atom                  positions (cryst. coord.)
         1           Se  tau(   1) = (  0.8555000  0.2500000  0.4828000  )
         2           Sn  tau(   2) = (  0.1187000  0.2500000  0.0988000  )
         3           Se  tau(   3) = (  0.6445000  0.7500000  0.9828000  )
         4           Sn  tau(   4) = (  0.3813000  0.7500000  0.5988000  )
         5           Se  tau(   5) = (  0.3555000  0.2500000  0.0172000  )
         6           Sn  tau(   6) = (  0.6187000  0.2500000  0.4012000  )
         7           Se  tau(   7) = (  0.1445000  0.7500000  0.5172000  )
         8           Sn  tau(   8) = (  0.8813000  0.7500000  0.9012000  )

     number of k points=    32
                       cart. coord. in units 2pi/alat
        k(    1) = (   0.0000000   0.0000000   0.0000000), wk =   0.0277778
        k(    2) = (   0.0000000   0.0000000   0.4268979), wk =   0.0555556
        k(    3) = (   0.0000000   0.0000000   0.8537959), wk =   0.0555556
        k(    4) = (   0.0000000   0.0000000  -1.2806938), wk =   0.0277778
        k(    5) = (   0.0000000   0.4526995   0.0000000), wk =   0.0555556
        k(    6) = (   0.0000000   0.4526995   0.4268979), wk =   0.1111111
        k(    7) = (   0.0000000   0.4526995   0.8537959), wk =   0.1111111
        k(    8) = (   0.0000000   0.4526995  -1.2806938), wk =   0.0555556
        k(    9) = (   0.0000000   0.9053989   0.0000000), wk =   0.0555556
        k(   10) = (   0.0000000   0.9053989   0.4268979), wk =   0.1111111
        k(   11) = (   0.0000000   0.9053989   0.8537959), wk =   0.1111111
        k(   12) = (   0.0000000   0.9053989  -1.2806938), wk =   0.0555556
        k(   13) = (   0.0000000  -1.3580984   0.0000000), wk =   0.0277778
        k(   14) = (   0.0000000  -1.3580984   0.4268979), wk =   0.0555556
        k(   15) = (   0.0000000  -1.3580984   0.8537959), wk =   0.0555556
        k(   16) = (   0.0000000  -1.3580984  -1.2806938), wk =   0.0277778
        k(   17) = (  -0.5000000   0.0000000   0.0000000), wk =   0.0277778
        k(   18) = (  -0.5000000   0.0000000   0.4268979), wk =   0.0555556
        k(   19) = (  -0.5000000   0.0000000   0.8537959), wk =   0.0555556
        k(   20) = (  -0.5000000   0.0000000  -1.2806938), wk =   0.0277778
        k(   21) = (  -0.5000000   0.4526995   0.0000000), wk =   0.0555556
        k(   22) = (  -0.5000000   0.4526995   0.4268979), wk =   0.1111111
        k(   23) = (  -0.5000000   0.4526995   0.8537959), wk =   0.1111111
        k(   24) = (  -0.5000000   0.4526995  -1.2806938), wk =   0.0555556
        k(   25) = (  -0.5000000   0.9053989   0.0000000), wk =   0.0555556
        k(   26) = (  -0.5000000   0.9053989   0.4268979), wk =   0.1111111
        k(   27) = (  -0.5000000   0.9053989   0.8537959), wk =   0.1111111
        k(   28) = (  -0.5000000   0.9053989  -1.2806938), wk =   0.0555556
        k(   29) = (  -0.5000000  -1.3580984   0.0000000), wk =   0.0277778
        k(   30) = (  -0.5000000  -1.3580984   0.4268979), wk =   0.0555556
        k(   31) = (  -0.5000000  -1.3580984   0.8537959), wk =   0.0555556
        k(   32) = (  -0.5000000  -1.3580984  -1.2806938), wk =   0.0277778

                       cryst. coord.
        k(    1) = (   0.0000000   0.0000000   0.0000000), wk =   0.0277778
        k(    2) = (   0.0000000   0.0000000   0.1666667), wk =   0.0555556
        k(    3) = (   0.0000000   0.0000000   0.3333333), wk =   0.0555556
        k(    4) = (   0.0000000   0.0000000  -0.5000000), wk =   0.0277778
        k(    5) = (   0.0000000   0.1666667   0.0000000), wk =   0.0555556
        k(    6) = (   0.0000000   0.1666667   0.1666667), wk =   0.1111111
        k(    7) = (   0.0000000   0.1666667   0.3333333), wk =   0.1111111
        k(    8) = (   0.0000000   0.1666667  -0.5000000), wk =   0.0555556
        k(    9) = (   0.0000000   0.3333333   0.0000000), wk =   0.0555556
        k(   10) = (   0.0000000   0.3333333   0.1666667), wk =   0.1111111
        k(   11) = (   0.0000000   0.3333333   0.3333333), wk =   0.1111111
        k(   12) = (   0.0000000   0.3333333  -0.5000000), wk =   0.0555556
        k(   13) = (   0.0000000  -0.5000000   0.0000000), wk =   0.0277778
        k(   14) = (   0.0000000  -0.5000000   0.1666667), wk =   0.0555556
        k(   15) = (   0.0000000  -0.5000000   0.3333333), wk =   0.0555556
        k(   16) = (   0.0000000  -0.5000000  -0.5000000), wk =   0.0277778
        k(   17) = (  -0.5000000   0.0000000   0.0000000), wk =   0.0277778
        k(   18) = (  -0.5000000   0.0000000   0.1666667), wk =   0.0555556
        k(   19) = (  -0.5000000   0.0000000   0.3333333), wk =   0.0555556
        k(   20) = (  -0.5000000   0.0000000  -0.5000000), wk =   0.0277778
        k(   21) = (  -0.5000000   0.1666667   0.0000000), wk =   0.0555556
        k(   22) = (  -0.5000000   0.1666667   0.1666667), wk =   0.1111111
        k(   23) = (  -0.5000000   0.1666667   0.3333333), wk =   0.1111111
        k(   24) = (  -0.5000000   0.1666667  -0.5000000), wk =   0.0555556
        k(   25) = (  -0.5000000   0.3333333   0.0000000), wk =   0.0555556
        k(   26) = (  -0.5000000   0.3333333   0.1666667), wk =   0.1111111
        k(   27) = (  -0.5000000   0.3333333   0.3333333), wk =   0.1111111
        k(   28) = (  -0.5000000   0.3333333  -0.5000000), wk =   0.0555556
        k(   29) = (  -0.5000000  -0.5000000   0.0000000), wk =   0.0277778
        k(   30) = (  -0.5000000  -0.5000000   0.1666667), wk =   0.0555556
        k(   31) = (  -0.5000000  -0.5000000   0.3333333), wk =   0.0555556
        k(   32) = (  -0.5000000  -0.5000000  -0.5000000), wk =   0.0277778

     Dense  grid:   544765 G-vectors     FFT dimensions: ( 200,  72,  80)

     Smooth grid:   137825 G-vectors     FFT dimensions: ( 128,  48,  48)

     Dynamical RAM for                 wfc:       6.57 MB

     Dynamical RAM for     wfc (w. buffer):      78.86 MB

     Dynamical RAM for           str. fact:       8.31 MB

     Dynamical RAM for           local pot:       0.00 MB

     Dynamical RAM for          nlocal pot:      18.93 MB

     Dynamical RAM for                qrad:       4.54 MB

     Dynamical RAM for          rho,v,vnew:      25.65 MB

     Dynamical RAM for               rhoin:       8.55 MB

     Dynamical RAM for            rho*nmix:      66.50 MB

     Dynamical RAM for           G-vectors:      16.11 MB

     Dynamical RAM for          h,s,v(r/c):       0.46 MB

     Dynamical RAM for          <psi|beta>:       0.11 MB

     Dynamical RAM for                 psi:      13.14 MB

     Dynamical RAM for                hpsi:      13.14 MB

     Dynamical RAM for                spsi:      13.14 MB

     Dynamical RAM for      wfcinit/wfcrot:      13.73 MB

     Dynamical RAM for           addusdens:     266.00 MB

     Dynamical RAM for          addusforce:     273.63 MB

     Estimated static dynamical RAM per process >     261.90 MB

     Estimated max dynamical RAM per process >     535.53 MB

     Estimated total dynamical RAM >       3.14 GB

     Initial potential from superposition of free atoms

     starting charge   75.99954, renormalised to   80.00000
     Starting wfcs are   52 randomized atomic wfcs

     total cpu time spent up to now is       44.2 secs

     Self-consistent Calculation

     iteration #  1     ecut=    80.00 Ry     beta= 0.70
     Davidson diagonalization with overlap
     ethr =  1.00E-02,  avg # of iterations =  3.7

     total cpu time spent up to now is      159.2 secs

     total energy              =    -826.55443488 Ry
     estimated scf accuracy    <       2.62772794 Ry

     iteration #  2     ecut=    80.00 Ry     beta= 0.70
     Davidson diagonalization with overlap
     ethr =  3.28E-03,  avg # of iterations =  2.0

     total cpu time spent up to now is      259.1 secs

     total energy              =    -827.33647613 Ry
     estimated scf accuracy    <       1.10520912 Ry

     iteration #  3     ecut=    80.00 Ry     beta= 0.70
     Davidson diagonalization with overlap
     ethr =  1.38E-03,  avg # of iterations =  2.0

     total cpu time spent up to now is      351.4 secs

     total energy              =    -827.61128704 Ry
     estimated scf accuracy    <       0.06094259 Ry

     iteration #  4     ecut=    80.00 Ry     beta= 0.70
     Davidson diagonalization with overlap
     ethr =  7.62E-05,  avg # of iterations =  3.4

     total cpu time spent up to now is      443.7 secs

     total energy              =    -827.62239428 Ry
     estimated scf accuracy    <       0.00309696 Ry

     iteration #  5     ecut=    80.00 Ry     beta= 0.70
     Davidson diagonalization with overlap
     ethr =  3.87E-06,  avg # of iterations =  5.1

     total cpu time spent up to now is      563.3 secs

     total energy              =    -827.62308118 Ry
     estimated scf accuracy    <       0.00080955 Ry

     iteration #  6     ecut=    80.00 Ry     beta= 0.70
     Davidson diagonalization with overlap
     ethr =  1.01E-06,  avg # of iterations =  2.2

     total cpu time spent up to now is      657.4 secs

     total energy              =    -827.62325559 Ry
     estimated scf accuracy    <       0.00004428 Ry

     iteration #  7     ecut=    80.00 Ry     beta= 0.70
     Davidson diagonalization with overlap
     ethr =  5.54E-08,  avg # of iterations =  5.0

     total cpu time spent up to now is      792.4 secs

     total energy              =    -827.62328438 Ry
     estimated scf accuracy    <       0.00000271 Ry

     iteration #  8     ecut=    80.00 Ry     beta= 0.70
     Davidson diagonalization with overlap
     ethr =  3.38E-09,  avg # of iterations =  3.3

     total cpu time spent up to now is      890.0 secs

     total energy              =    -827.62328544 Ry
     estimated scf accuracy    <       0.00000041 Ry

     iteration #  9     ecut=    80.00 Ry     beta= 0.70
     Davidson diagonalization with overlap
     ethr =  5.18E-10,  avg # of iterations =  3.0

     total cpu time spent up to now is     1009.3 secs

     End of self-consistent calculation

          k = 0.0000 0.0000 0.0000 ( 17237 PWs)   bands (ev):

   -13.2677 -13.2559 -13.2527 -13.2501 -13.2500 -13.2460 -13.2431 -13.2392
   -13.2349 -13.2339 -13.2333 -13.2262 -13.2188 -13.2124 -13.1978 -13.1927
   -13.1879 -13.1841 -13.1763 -13.1670  -5.7459  -5.3958  -4.6587  -4.1588
     0.8109   1.9490   2.5399   3.0754   3.2304   4.6637   4.7021   4.7767
     5.1824   5.2388   5.8113   6.3113   6.5361   6.9890   7.4007   7.5698
     8.8492  10.9514  11.0996  11.1322  11.3569  11.4506  12.3343  12.6291
    12.7023  12.7423

     occupation numbers 
     1.0000   1.0000   1.0000   1.0000   1.0000   1.0000   1.0000   1.0000
     1.0000   1.0000   1.0000   1.0000   1.0000   1.0000   1.0000   1.0000
     1.0000   1.0000   1.0000   1.0000   1.0000   1.0000   1.0000   1.0000
     1.0000   1.0000   1.0000   1.0000   1.0000   1.0000   1.0000   1.0000
     1.0000   1.0000   1.0000   1.0000   1.0000   1.0000   1.0000   1.0000
     0.0000   0.0000   0.0000   0.0000   0.0000   0.0000   0.0000   0.0000
     0.0000   0.0000

          k = 0.0000 0.0000 0.4269 ( 17212 PWs)   bands (ev):

   -13.2661 -13.2545 -13.2529 -13.2514 -13.2492 -13.2480 -13.2437 -13.2400
   -13.2343 -13.2321 -13.2297 -13.2266 -13.2180 -13.2131 -13.1979 -13.1920
   -13.1890 -13.1848 -13.1756 -13.1676  -5.6277  -5.2875  -4.6452  -4.1906
     0.4463   1.7107   1.9313   2.6886   3.2164   4.8186   4.8446   5.3354
     5.3456   5.9062   5.9280   6.5183   6.5922   7.0991   7.4475   7.5870
     8.9713  10.0940  10.7256  10.9021  11.1415  11.4571  11.9009  12.0691
    12.5320  12.7679

     occupation numbers 
     1.0000   1.0000   1.0000   1.0000   1.0000   1.0000   1.0000   1.0000
     1.0000   1.0000   1.0000   1.0000   1.0000   1.0000   1.0000   1.0000
     1.0000   1.0000   1.0000   1.0000   1.0000   1.0000   1.0000   1.0000
     1.0000   1.0000   1.0000   1.0000   1.0000   1.0000   1.0000   1.0000
     1.0000   1.0000   1.0000   1.0000   1.0000   1.0000   1.0000   1.0000
     0.0000   0.0000   0.0000   0.0000   0.0000   0.0000   0.0000   0.0000
     0.0000   0.0000

          k = 0.0000 0.0000 0.8538 ( 17232 PWs)   bands (ev):

   -13.2621 -13.2542 -13.2537 -13.2519 -13.2516 -13.2482 -13.2446 -13.2424
   -13.2323 -13.2278 -13.2260 -13.2234 -13.2171 -13.2151 -13.1971 -13.1915
   -13.1903 -13.1866 -13.1739 -13.1693  -5.3120  -4.9962  -4.6888  -4.3310
    -0.0228   0.8106   1.3648   1.9823   3.6441   5.0243   5.3388   5.7839
     6.1138   6.1245   6.3715   6.6085   6.8450   7.4418   7.5930   8.1000
     8.9969   9.5559   9.5820   9.7386  10.4722  10.5767  11.0916  11.2231
    11.9935  12.1193

     occupation numbers 
     1.0000   1.0000   1.0000   1.0000   1.0000   1.0000   1.0000   1.0000
     1.0000   1.0000   1.0000   1.0000   1.0000   1.0000   1.0000   1.0000
     1.0000   1.0000   1.0000   1.0000   1.0000   1.0000   1.0000   1.0000
     1.0000   1.0000   1.0000   1.0000   1.0000   1.0000   1.0000   1.0000
     1.0000   1.0000   1.0000   1.0000   1.0000   1.0000   1.0000   1.0000
     0.0000   0.0000   0.0000   0.0000   0.0000   0.0000   0.0000   0.0000
     0.0000   0.0000

          k = 0.0000 0.0000-1.2807 ( 17248 PWs)   bands (ev):

   -13.2575 -13.2575 -13.2542 -13.2542 -13.2491 -13.2491 -13.2444 -13.2444
   -13.2299 -13.2299 -13.2197 -13.2197 -13.2183 -13.2183 -13.1946 -13.1946
   -13.1884 -13.1884 -13.1715 -13.1715  -4.9315  -4.9315  -4.6268  -4.6268
     0.0661   0.0661   1.4336   1.4336   4.3909   4.3909   5.9299   5.9299
     6.3069   6.3069   6.6793   6.6793   7.2609   7.2609   7.7976   7.7976
     9.3222   9.3222   9.6518   9.6518   9.7892   9.7892  10.7609  10.7609
    11.2252  11.2252

     occupation numbers 
     1.0000   1.0000   1.0000   1.0000   1.0000   1.0000   1.0000   1.0000
     1.0000   1.0000   1.0000   1.0000   1.0000   1.0000   1.0000   1.0000
     1.0000   1.0000   1.0000   1.0000   1.0000   1.0000   1.0000   1.0000
     1.0000   1.0000   1.0000   1.0000   1.0000   1.0000   1.0000   1.0000
     1.0000   1.0000   1.0000   1.0000   1.0000   1.0000   1.0000   1.0000
     0.0000   0.0000   0.0000   0.0000   0.0000   0.0000   0.0000   0.0000
     0.0000   0.0000

          k = 0.0000 0.4527 0.0000 ( 17231 PWs)   bands (ev):

   -13.2617 -13.2538 -13.2522 -13.2494 -13.2478 -13.2474 -13.2470 -13.2418
   -13.2376 -13.2313 -13.2300 -13.2284 -13.2151 -13.2135 -13.1949 -13.1943
   -13.1875 -13.1859 -13.1764 -13.1692  -5.5977  -5.2703  -4.5969  -4.1702
     0.6097   1.5563   2.3403   2.3701   3.2406   4.6342   4.9623   5.0880
     5.1740   5.3991   6.1251   6.3946   6.5250   7.4129   7.4274   7.4282
     9.0702   9.9278  10.8646  11.1285  11.2210  11.4500  11.8179  11.8710
    12.5546  13.1379

     occupation numbers 
     1.0000   1.0000   1.0000   1.0000   1.0000   1.0000   1.0000   1.0000
     1.0000   1.0000   1.0000   1.0000   1.0000   1.0000   1.0000   1.0000
     1.0000   1.0000   1.0000   1.0000   1.0000   1.0000   1.0000   1.0000
     1.0000   1.0000   1.0000   1.0000   1.0000   1.0000   1.0000   1.0000
     1.0000   1.0000   1.0000   1.0000   1.0000   1.0000   1.0000   1.0000
     0.0000   0.0000   0.0000   0.0000   0.0000   0.0000   0.0000   0.0000
     0.0000   0.0000

          k = 0.0000 0.4527 0.4269 ( 17226 PWs)   bands (ev):

   -13.2613 -13.2539 -13.2536 -13.2489 -13.2484 -13.2478 -13.2462 -13.2439
   -13.2369 -13.2301 -13.2285 -13.2259 -13.2158 -13.2128 -13.1953 -13.1933
   -13.1880 -13.1869 -13.1758 -13.1696  -5.4840  -5.1672  -4.5820  -4.1923
     0.4173   1.5347   1.8463   2.2900   3.3521   4.1006   4.3249   5.4217
     5.5920   5.9098   6.0303   6.3504   7.0706   7.2022   7.5513   7.6538
     9.1843   9.6440  10.1416  10.1806  11.1821  11.3136  11.8770  12.0785
    12.5643  12.9657

     occupation numbers 
     1.0000   1.0000   1.0000   1.0000   1.0000   1.0000   1.0000   1.0000
     1.0000   1.0000   1.0000   1.0000   1.0000   1.0000   1.0000   1.0000
     1.0000   1.0000   1.0000   1.0000   1.0000   1.0000   1.0000   1.0000
     1.0000   1.0000   1.0000   1.0000   1.0000   1.0000   1.0000   1.0000
     1.0000   1.0000   1.0000   1.0000   1.0000   1.0000   1.0000   1.0000
     0.0000   0.0000   0.0000   0.0000   0.0000   0.0000   0.0000   0.0000
     0.0000   0.0000

          k = 0.0000 0.4527 0.8538 ( 17231 PWs)   bands (ev):

   -13.2610 -13.2575 -13.2530 -13.2504 -13.2486 -13.2479 -13.2471 -13.2449
   -13.2347 -13.2309 -13.2231 -13.2203 -13.2164 -13.2129 -13.1946 -13.1918
   -13.1898 -13.1886 -13.1743 -13.1707  -5.1838  -4.8936  -4.6153  -4.3030
     0.1283   0.9281   1.4480   1.9229   3.7924   4.0945   4.2788   5.3097
     5.4677   5.8005   6.2082   6.6192   7.0333   7.3113   7.3991   7.6187
     9.1861   9.4904   9.9482  10.2727  10.7641  11.1139  11.3041  12.3506
    12.6213  12.9036

     occupation numbers 
     1.0000   1.0000   1.0000   1.0000   1.0000   1.0000   1.0000   1.0000
     1.0000   1.0000   1.0000   1.0000   1.0000   1.0000   1.0000   1.0000
     1.0000   1.0000   1.0000   1.0000   1.0000   1.0000   1.0000   1.0000
     1.0000   1.0000   1.0000   1.0000   1.0000   1.0000   1.0000   1.0000
     1.0000   1.0000   1.0000   1.0000   1.0000   1.0000   1.0000   1.0000
     0.0000   0.0000   0.0000   0.0000   0.0000   0.0000   0.0000   0.0000
     0.0000   0.0000

          k = 0.0000 0.4527-1.2807 ( 17228 PWs)   bands (ev):

   -13.2603 -13.2603 -13.2515 -13.2515 -13.2499 -13.2499 -13.2453 -13.2453
   -13.2324 -13.2324 -13.2185 -13.2185 -13.2153 -13.2153 -13.1924 -13.1924
   -13.1902 -13.1902 -13.1724 -13.1724  -4.8311  -4.8311  -4.5577  -4.5577
     0.2528   0.2528   1.5394   1.5394   4.3061   4.3061   4.7839   4.7839
     5.3258   5.3258   6.2944   6.2944   7.1472   7.1472   7.5547   7.5547
     9.2791   9.2791  10.0900  10.0900  11.2584  11.2584  11.7208  11.7208
    12.2936  12.2936

     occupation numbers 
     1.0000   1.0000   1.0000   1.0000   1.0000   1.0000   1.0000   1.0000
     1.0000   1.0000   1.0000   1.0000   1.0000   1.0000   1.0000   1.0000
     1.0000   1.0000   1.0000   1.0000   1.0000   1.0000   1.0000   1.0000
     1.0000   1.0000   1.0000   1.0000   1.0000   1.0000   1.0000   1.0000
     1.0000   1.0000   1.0000   1.0000   1.0000   1.0000   1.0000   1.0000
     0.0000   0.0000   0.0000   0.0000   0.0000   0.0000   0.0000   0.0000
     0.0000   0.0000

          k = 0.0000 0.9054 0.0000 ( 17190 PWs)   bands (ev):

   -13.2584 -13.2558 -13.2551 -13.2530 -13.2446 -13.2444 -13.2427 -13.2387
   -13.2364 -13.2340 -13.2291 -13.2199 -13.2178 -13.2097 -13.1990 -13.1972
   -13.1879 -13.1815 -13.1760 -13.1737  -5.1947  -4.9498  -4.5094  -4.3006
     0.2651   1.0180   1.1503   1.6787   3.7023   4.9707   5.3120   5.4420
     5.5129   5.7669   6.3567   6.5061   6.8482   7.1975   7.3276   7.9127
     8.6727   9.5500   9.8458   9.8693  10.1033  10.6274  10.6759  11.5174
    11.8986  12.2761

     occupation numbers 
     1.0000   1.0000   1.0000   1.0000   1.0000   1.0000   1.0000   1.0000
     1.0000   1.0000   1.0000   1.0000   1.0000   1.0000   1.0000   1.0000
     1.0000   1.0000   1.0000   1.0000   1.0000   1.0000   1.0000   1.0000
     1.0000   1.0000   1.0000   1.0000   1.0000   1.0000   1.0000   1.0000
     1.0000   1.0000   1.0000   1.0000   1.0000   1.0000   1.0000   1.0000
     0.0000   0.0000   0.0000   0.0000   0.0000   0.0000   0.0000   0.0000
     0.0000   0.0000

          k = 0.0000 0.9054 0.4269 ( 17225 PWs)   bands (ev):

   -13.2618 -13.2588 -13.2564 -13.2545 -13.2453 -13.2420 -13.2418 -13.2384
   -13.2351 -13.2337 -13.2271 -13.2184 -13.2179 -13.2096 -13.1984 -13.1967
   -13.1880 -13.1824 -13.1757 -13.1735  -5.0980  -4.8649  -4.4851  -4.2895
     0.3398   1.1587   1.2316   1.6070   3.8359   3.9312   4.2974   5.1341
     5.5221   5.8398   6.1376   6.4901   6.6520   7.1561   7.2956   7.3761
     9.1182   9.5070   9.6885  10.0183  10.8082  11.3534  11.5174  12.0197
    12.4950  12.8354

     occupation numbers 
     1.0000   1.0000   1.0000   1.0000   1.0000   1.0000   1.0000   1.0000
     1.0000   1.0000   1.0000   1.0000   1.0000   1.0000   1.0000   1.0000
     1.0000   1.0000   1.0000   1.0000   1.0000   1.0000   1.0000   1.0000
     1.0000   1.0000   1.0000   1.0000   1.0000   1.0000   1.0000   1.0000
     1.0000   1.0000   1.0000   1.0000   1.0000   1.0000   1.0000   1.0000
     0.0000   0.0000   0.0000   0.0000   0.0000   0.0000   0.0000   0.0000
     0.0000   0.0000

          k = 0.0000 0.9054 0.8538 ( 17243 PWs)   bands (ev):

   -13.2669 -13.2648 -13.2597 -13.2587 -13.2442 -13.2409 -13.2395 -13.2382
   -13.2332 -13.2329 -13.2228 -13.2179 -13.2148 -13.2102 -13.1969 -13.1959
   -13.1874 -13.1841 -13.1747 -13.1734  -4.8541  -4.6523  -4.4746  -4.3033
     0.5074   1.1415   1.4845   1.5841   3.2529   3.6312   4.0729   4.3202
     4.8125   5.2017   5.5150   5.9060   6.2218   6.4862   6.9816   7.2678
     9.0692  10.7092  11.0505  11.2262  11.7011  11.7017  12.5119  12.6808
    13.0206  13.1334

     occupation numbers 
     1.0000   1.0000   1.0000   1.0000   1.0000   1.0000   1.0000   1.0000
     1.0000   1.0000   1.0000   1.0000   1.0000   1.0000   1.0000   1.0000
     1.0000   1.0000   1.0000   1.0000   1.0000   1.0000   1.0000   1.0000
     1.0000   1.0000   1.0000   1.0000   1.0000   1.0000   1.0000   1.0000
     1.0000   1.0000   1.0000   1.0000   1.0000   1.0000   1.0000   1.0000
     0.0000   0.0000   0.0000   0.0000   0.0000   0.0000   0.0000   0.0000
     0.0000   0.0000

          k = 0.0000 0.9054-1.2807 ( 17278 PWs)   bands (ev):

   -13.2685 -13.2685 -13.2611 -13.2611 -13.2422 -13.2422 -13.2384 -13.2384
   -13.2323 -13.2323 -13.2193 -13.2193 -13.2117 -13.2117 -13.1959 -13.1959
   -13.1858 -13.1858 -13.1738 -13.1738  -4.5976  -4.5976  -4.4263  -4.4263
     0.7590   0.7590   1.6656   1.6656   3.4402   3.4402   3.8580   3.8580
     4.7519   4.7519   5.4196   5.4196   6.0373   6.0373   6.9413   6.9413
    10.0426  10.0426  11.6694  11.6694  12.7846  12.7846  12.8410  12.8410
    12.9941  12.9941

     occupation numbers 
     1.0000   1.0000   1.0000   1.0000   1.0000   1.0000   1.0000   1.0000
     1.0000   1.0000   1.0000   1.0000   1.0000   1.0000   1.0000   1.0000
     1.0000   1.0000   1.0000   1.0000   1.0000   1.0000   1.0000   1.0000
     1.0000   1.0000   1.0000   1.0000   1.0000   1.0000   1.0000   1.0000
     1.0000   1.0000   1.0000   1.0000   1.0000   1.0000   1.0000   1.0000
     0.0000   0.0000   0.0000   0.0000   0.0000   0.0000   0.0000   0.0000
     0.0000   0.0000

          k = 0.0000-1.3581 0.0000 ( 17162 PWs)   bands (ev):

   -13.2600 -13.2600 -13.2560 -13.2560 -13.2413 -13.2413 -13.2393 -13.2393
   -13.2304 -13.2304 -13.2268 -13.2268 -13.2091 -13.2091 -13.2044 -13.2044
   -13.1800 -13.1800 -13.1774 -13.1774  -4.6818  -4.6818  -4.6184  -4.6184
     0.3599   0.3599   1.0566   1.0566   4.4851   4.4851   5.8498   5.8498
     5.8649   5.8649   6.3773   6.3773   7.1084   7.1084   7.3077   7.3077
     9.1101   9.1101   9.5457   9.5457   9.8205   9.8205  10.6269  10.6269
    11.3364  11.3364

     occupation numbers 
     1.0000   1.0000   1.0000   1.0000   1.0000   1.0000   1.0000   1.0000
     1.0000   1.0000   1.0000   1.0000   1.0000   1.0000   1.0000   1.0000
     1.0000   1.0000   1.0000   1.0000   1.0000   1.0000   1.0000   1.0000
     1.0000   1.0000   1.0000   1.0000   1.0000   1.0000   1.0000   1.0000
     1.0000   1.0000   1.0000   1.0000   1.0000   1.0000   1.0000   1.0000
     0.0000   0.0000   0.0000   0.0000   0.0000   0.0000   0.0000   0.0000
     0.0000   0.0000

          k = 0.0000-1.3581 0.4269 ( 17218 PWs)   bands (ev):

   -13.2634 -13.2634 -13.2584 -13.2584 -13.2412 -13.2412 -13.2375 -13.2375
   -13.2301 -13.2301 -13.2254 -13.2254 -13.2100 -13.2100 -13.2025 -13.2025
   -13.1808 -13.1808 -13.1766 -13.1766  -4.6219  -4.6219  -4.5659  -4.5659
     0.5227   0.5227   1.1558   1.1558   4.3388   4.3388   4.6826   4.6826
     5.3957   5.3957   6.2246   6.2246   6.5242   6.5242   7.4495   7.4495
     8.9829   8.9829  10.1632  10.1632  11.0841  11.0841  11.6277  11.6277
    12.2880  12.2880

     occupation numbers 
     1.0000   1.0000   1.0000   1.0000   1.0000   1.0000   1.0000   1.0000
     1.0000   1.0000   1.0000   1.0000   1.0000   1.0000   1.0000   1.0000
     1.0000   1.0000   1.0000   1.0000   1.0000   1.0000   1.0000   1.0000
     1.0000   1.0000   1.0000   1.0000   1.0000   1.0000   1.0000   1.0000
     1.0000   1.0000   1.0000   1.0000   1.0000   1.0000   1.0000   1.0000
     0.0000   0.0000   0.0000   0.0000   0.0000   0.0000   0.0000   0.0000
     0.0000   0.0000

          k = 0.0000-1.3581 0.8538 ( 17256 PWs)   bands (ev):

   -13.2697 -13.2697 -13.2632 -13.2632 -13.2407 -13.2407 -13.2349 -13.2349
   -13.2291 -13.2291 -13.2233 -13.2233 -13.2101 -13.2101 -13.1998 -13.1998
   -13.1816 -13.1816 -13.1757 -13.1757  -4.4927  -4.4927  -4.4583  -4.4583
     0.9505   0.9505   1.3627   1.3627   3.4448   3.4448   3.9823   3.9823
     4.6938   4.6938   5.5264   5.5264   5.7397   5.7397   6.9351   6.9351
    10.0273  10.0273  11.5332  11.5332  12.5150  12.5150  12.6265  12.6265
    12.8940  12.8940

     occupation numbers 
     1.0000   1.0000   1.0000   1.0000   1.0000   1.0000   1.0000   1.0000
     1.0000   1.0000   1.0000   1.0000   1.0000   1.0000   1.0000   1.0000
     1.0000   1.0000   1.0000   1.0000   1.0000   1.0000   1.0000   1.0000
     1.0000   1.0000   1.0000   1.0000   1.0000   1.0000   1.0000   1.0000
     1.0000   1.0000   1.0000   1.0000   1.0000   1.0000   1.0000   1.0000
     0.0000   0.0000   0.0000   0.0000   0.0000   0.0000   0.0000   0.0000
     0.0000   0.0000

          k = 0.0000-1.3581-1.2807 ( 17228 PWs)   bands (ev):

   -13.2728 -13.2728 -13.2656 -13.2656 -13.2406 -13.2406 -13.2339 -13.2339
   -13.2285 -13.2285 -13.2226 -13.2226 -13.2096 -13.2096 -13.1987 -13.1987
   -13.1817 -13.1817 -13.1753 -13.1753  -4.4180  -4.4180  -4.4081  -4.4081
     1.2909   1.2909   1.4409   1.4409   3.0376   3.0376   3.5536   3.5536
     4.4685   4.4685   4.9498   4.9498   5.8017   5.8017   6.6436   6.6436
    10.8676  10.8676  11.1755  11.1755  12.8453  12.8453  12.9778  12.9778
    13.7126  13.7126

     occupation numbers 
     1.0000   1.0000   1.0000   1.0000   1.0000   1.0000   1.0000   1.0000
     1.0000   1.0000   1.0000   1.0000   1.0000   1.0000   1.0000   1.0000
     1.0000   1.0000   1.0000   1.0000   1.0000   1.0000   1.0000   1.0000
     1.0000   1.0000   1.0000   1.0000   1.0000   1.0000   1.0000   1.0000
     1.0000   1.0000   1.0000   1.0000   1.0000   1.0000   1.0000   1.0000
     0.0000   0.0000   0.0000   0.0000   0.0000   0.0000   0.0000   0.0000
     0.0000   0.0000

          k =-0.5000 0.0000 0.0000 ( 17262 PWs)   bands (ev):

   -13.2620 -13.2620 -13.2520 -13.2520 -13.2487 -13.2487 -13.2403 -13.2403
   -13.2328 -13.2328 -13.2311 -13.2311 -13.2157 -13.2157 -13.1952 -13.1952
   -13.1859 -13.1859 -13.1713 -13.1713  -5.6062  -5.6062  -4.3737  -4.3737
     1.1512   1.1512   3.0235   3.0235   4.0128   4.0128   4.8553   4.8553
     5.2130   5.2130   6.0080   6.0080   6.2392   6.2392   7.5329   7.5329
    10.6758  10.6758  10.8762  10.8762  11.7681  11.7681  11.9992  11.9992
    13.0948  13.0948

     occupation numbers 
     1.0000   1.0000   1.0000   1.0000   1.0000   1.0000   1.0000   1.0000
     1.0000   1.0000   1.0000   1.0000   1.0000   1.0000   1.0000   1.0000
     1.0000   1.0000   1.0000   1.0000   1.0000   1.0000   1.0000   1.0000
     1.0000   1.0000   1.0000   1.0000   1.0000   1.0000   1.0000   1.0000
     1.0000   1.0000   1.0000   1.0000   1.0000   1.0000   1.0000   1.0000
     0.0000   0.0000   0.0000   0.0000   0.0000   0.0000   0.0000   0.0000
     0.0000   0.0000

          k =-0.5000 0.0000 0.4269 ( 17224 PWs)   bands (ev):

   -13.2610 -13.2610 -13.2510 -13.2510 -13.2500 -13.2500 -13.2417 -13.2417
   -13.2306 -13.2306 -13.2302 -13.2302 -13.2157 -13.2157 -13.1951 -13.1951
   -13.1866 -13.1866 -13.1714 -13.1714  -5.4930  -5.4930  -4.3824  -4.3824
     0.8265   0.8265   2.4654   2.4654   4.2523   4.2523   5.0297   5.0297
     5.4494   5.4494   6.3244   6.3244   6.5532   6.5532   7.4483   7.4483
    10.3856  10.3856  11.0375  11.0375  11.0716  11.0716  11.5706  11.5706
    12.9461  12.9461

     occupation numbers 
     1.0000   1.0000   1.0000   1.0000   1.0000   1.0000   1.0000   1.0000
     1.0000   1.0000   1.0000   1.0000   1.0000   1.0000   1.0000   1.0000
     1.0000   1.0000   1.0000   1.0000   1.0000   1.0000   1.0000   1.0000
     1.0000   1.0000   1.0000   1.0000   1.0000   1.0000   1.0000   1.0000
     1.0000   1.0000   1.0000   1.0000   1.0000   1.0000   1.0000   1.0000
     0.0000   0.0000   0.0000   0.0000   0.0000   0.0000   0.0000   0.0000
     0.0000   0.0000

          k =-0.5000 0.0000 0.8538 ( 17230 PWs)   bands (ev):

   -13.2587 -13.2587 -13.2524 -13.2524 -13.2496 -13.2496 -13.2444 -13.2444
   -13.2297 -13.2297 -13.2242 -13.2242 -13.2164 -13.2164 -13.1946 -13.1946
   -13.1880 -13.1880 -13.1715 -13.1715  -5.1952  -5.1952  -4.4692  -4.4692
     0.3276   0.3276   1.6293   1.6293   4.6958   4.6958   5.4994   5.4994
     5.8610   5.8610   6.4270   6.4270   6.9830   6.9830   7.7560   7.7560
     9.5834   9.5834  10.0723  10.0723  10.4131  10.4131  11.5178  11.5178
    11.7114  11.7114

     occupation numbers 
     1.0000   1.0000   1.0000   1.0000   1.0000   1.0000   1.0000   1.0000
     1.0000   1.0000   1.0000   1.0000   1.0000   1.0000   1.0000   1.0000
     1.0000   1.0000   1.0000   1.0000   1.0000   1.0000   1.0000   1.0000
     1.0000   1.0000   1.0000   1.0000   1.0000   1.0000   1.0000   1.0000
     1.0000   1.0000   1.0000   1.0000   1.0000   1.0000   1.0000   1.0000
     0.0000   0.0000   0.0000   0.0000   0.0000   0.0000   0.0000   0.0000
     0.0000   0.0000

          k =-0.5000 0.0000-1.2807 ( 17224 PWs)   bands (ev):

   -13.2573 -13.2573 -13.2535 -13.2535 -13.2494 -13.2494 -13.2457 -13.2457
   -13.2293 -13.2293 -13.2193 -13.2193 -13.2187 -13.2187 -13.1942 -13.1942
   -13.1888 -13.1888 -13.1716 -13.1716  -4.9284  -4.9284  -4.6313  -4.6313
     0.1459   0.1459   1.2469   1.2469   5.2431   5.2431   5.4906   5.4906
     5.9432   5.9432   6.2873   6.2873   7.5413   7.5413   7.8130   7.8130
     9.3019   9.3019   9.7149   9.7149   9.7705   9.7705  11.1182  11.1182
    11.4683  11.4683

     occupation numbers 
     1.0000   1.0000   1.0000   1.0000   1.0000   1.0000   1.0000   1.0000
     1.0000   1.0000   1.0000   1.0000   1.0000   1.0000   1.0000   1.0000
     1.0000   1.0000   1.0000   1.0000   1.0000   1.0000   1.0000   1.0000
     1.0000   1.0000   1.0000   1.0000   1.0000   1.0000   1.0000   1.0000
     1.0000   1.0000   1.0000   1.0000   1.0000   1.0000   1.0000   1.0000
     0.0000   0.0000   0.0000   0.0000   0.0000   0.0000   0.0000   0.0000
     0.0000   0.0000

          k =-0.5000 0.4527 0.0000 ( 17202 PWs)   bands (ev):

   -13.2577 -13.2577 -13.2509 -13.2509 -13.2491 -13.2491 -13.2435 -13.2435
   -13.2339 -13.2339 -13.2292 -13.2292 -13.2145 -13.2145 -13.1940 -13.1940
   -13.1871 -13.1871 -13.1726 -13.1726  -5.4663  -5.4663  -4.3505  -4.3505
     0.9296   0.9296   2.4352   2.4352   4.1471   4.1471   4.8573   4.8573
     5.5295   5.5295   6.1243   6.1243   6.3948   6.3948   7.5913   7.5913
    10.3742  10.3742  10.8679  10.8679  11.3496  11.3496  11.5974  11.5974
    12.8757  12.8757

     occupation numbers 
     1.0000   1.0000   1.0000   1.0000   1.0000   1.0000   1.0000   1.0000
     1.0000   1.0000   1.0000   1.0000   1.0000   1.0000   1.0000   1.0000
     1.0000   1.0000   1.0000   1.0000   1.0000   1.0000   1.0000   1.0000
     1.0000   1.0000   1.0000   1.0000   1.0000   1.0000   1.0000   1.0000
     1.0000   1.0000   1.0000   1.0000   1.0000   1.0000   1.0000   1.0000
     0.0000   0.0000   0.0000   0.0000   0.0000   0.0000   0.0000   0.0000
     0.0000   0.0000

          k =-0.5000 0.4527 0.4269 ( 17232 PWs)   bands (ev):

   -13.2577 -13.2577 -13.2521 -13.2521 -13.2482 -13.2482 -13.2445 -13.2445
   -13.2333 -13.2333 -13.2269 -13.2269 -13.2146 -13.2146 -13.1938 -13.1938
   -13.1880 -13.1880 -13.1724 -13.1724  -5.3578  -5.3578  -4.3543  -4.3543
     0.7832   0.7832   2.1682   2.1682   4.1295   4.1295   4.6530   4.6530
     5.4437   5.4437   6.2614   6.2614   7.0748   7.0748   7.5528   7.5528
     9.6830   9.6830  10.7542  10.7542  11.2321  11.2321  11.6446  11.6446
    12.4769  12.4769

     occupation numbers 
     1.0000   1.0000   1.0000   1.0000   1.0000   1.0000   1.0000   1.0000
     1.0000   1.0000   1.0000   1.0000   1.0000   1.0000   1.0000   1.0000
     1.0000   1.0000   1.0000   1.0000   1.0000   1.0000   1.0000   1.0000
     1.0000   1.0000   1.0000   1.0000   1.0000   1.0000   1.0000   1.0000
     1.0000   1.0000   1.0000   1.0000   1.0000   1.0000   1.0000   1.0000
     0.0000   0.0000   0.0000   0.0000   0.0000   0.0000   0.0000   0.0000
     0.0000   0.0000

          k =-0.5000 0.4527 0.8538 ( 17222 PWs)   bands (ev):

   -13.2584 -13.2584 -13.2544 -13.2544 -13.2473 -13.2473 -13.2451 -13.2451
   -13.2324 -13.2324 -13.2220 -13.2220 -13.2148 -13.2148 -13.1930 -13.1930
   -13.1898 -13.1898 -13.1721 -13.1721  -5.0757  -5.0757  -4.4224  -4.4224
     0.4681   0.4681   1.6532   1.6532   4.1805   4.1805   4.9873   4.9873
     5.2396   5.2396   6.4365   6.4365   6.8969   6.8969   7.5440   7.5440
     9.7396   9.7396  10.3756  10.3756  10.9204  10.9204  11.5649  11.5649
    12.5060  12.5060

     occupation numbers 
     1.0000   1.0000   1.0000   1.0000   1.0000   1.0000   1.0000   1.0000
     1.0000   1.0000   1.0000   1.0000   1.0000   1.0000   1.0000   1.0000
     1.0000   1.0000   1.0000   1.0000   1.0000   1.0000   1.0000   1.0000
     1.0000   1.0000   1.0000   1.0000   1.0000   1.0000   1.0000   1.0000
     1.0000   1.0000   1.0000   1.0000   1.0000   1.0000   1.0000   1.0000
     0.0000   0.0000   0.0000   0.0000   0.0000   0.0000   0.0000   0.0000
     0.0000   0.0000

          k =-0.5000 0.4527-1.2807 ( 17240 PWs)   bands (ev):

   -13.2592 -13.2592 -13.2554 -13.2554 -13.2472 -13.2472 -13.2450 -13.2450
   -13.2321 -13.2321 -13.2190 -13.2190 -13.2152 -13.2152 -13.1918 -13.1918
   -13.1914 -13.1914 -13.1720 -13.1720  -4.8283  -4.8283  -4.5615  -4.5615
     0.3227   0.3227   1.3808   1.3808   4.5925   4.5925   4.7882   4.7882
     5.5555   5.5555   5.9749   5.9749   6.8248   6.8248   7.3414   7.3414
    10.2018  10.2018  10.2589  10.2589  10.7878  10.7878  11.5273  11.5273
    12.4447  12.4447

     occupation numbers 
     1.0000   1.0000   1.0000   1.0000   1.0000   1.0000   1.0000   1.0000
     1.0000   1.0000   1.0000   1.0000   1.0000   1.0000   1.0000   1.0000
     1.0000   1.0000   1.0000   1.0000   1.0000   1.0000   1.0000   1.0000
     1.0000   1.0000   1.0000   1.0000   1.0000   1.0000   1.0000   1.0000
     1.0000   1.0000   1.0000   1.0000   1.0000   1.0000   1.0000   1.0000
     0.0000   0.0000   0.0000   0.0000   0.0000   0.0000   0.0000   0.0000
     0.0000   0.0000

          k =-0.5000 0.9054 0.0000 ( 17188 PWs)   bands (ev):

   -13.2579 -13.2579 -13.2532 -13.2532 -13.2436 -13.2436 -13.2423 -13.2423
   -13.2346 -13.2346 -13.2258 -13.2258 -13.2123 -13.2123 -13.1985 -13.1985
   -13.1844 -13.1844 -13.1749 -13.1749  -5.0939  -5.0939  -4.3824  -4.3824
     0.5646   0.5646   1.4043   1.4043   4.6049   4.6049   5.2261   5.2261
     5.9040   5.9040   6.2319   6.2319   6.5488   6.5488   7.6366   7.6366
     9.2243   9.2243  10.1307  10.1307  10.8904  10.8904  11.2854  11.2854
    11.6733  11.6733

     occupation numbers 
     1.0000   1.0000   1.0000   1.0000   1.0000   1.0000   1.0000   1.0000
     1.0000   1.0000   1.0000   1.0000   1.0000   1.0000   1.0000   1.0000
     1.0000   1.0000   1.0000   1.0000   1.0000   1.0000   1.0000   1.0000
     1.0000   1.0000   1.0000   1.0000   1.0000   1.0000   1.0000   1.0000
     1.0000   1.0000   1.0000   1.0000   1.0000   1.0000   1.0000   1.0000
     0.0000   0.0000   0.0000   0.0000   0.0000   0.0000   0.0000   0.0000
     0.0000   0.0000

          k =-0.5000 0.9054 0.4269 ( 17208 PWs)   bands (ev):

   -13.2603 -13.2603 -13.2558 -13.2558 -13.2429 -13.2429 -13.2413 -13.2413
   -13.2337 -13.2337 -13.2245 -13.2245 -13.2119 -13.2119 -13.1983 -13.1983
   -13.1846 -13.1846 -13.1746 -13.1746  -5.0026  -5.0026  -4.3655  -4.3655
     0.6609   0.6609   1.4304   1.4304   4.0804   4.0804   4.9037   4.9037
     5.3407   5.3407   6.3178   6.3178   6.6192   6.6192   7.3885   7.3885
     9.7133   9.7133  10.0893  10.0893  11.1650  11.1650  11.5644  11.5644
    12.0992  12.0992

     occupation numbers 
     1.0000   1.0000   1.0000   1.0000   1.0000   1.0000   1.0000   1.0000
     1.0000   1.0000   1.0000   1.0000   1.0000   1.0000   1.0000   1.0000
     1.0000   1.0000   1.0000   1.0000   1.0000   1.0000   1.0000   1.0000
     1.0000   1.0000   1.0000   1.0000   1.0000   1.0000   1.0000   1.0000
     1.0000   1.0000   1.0000   1.0000   1.0000   1.0000   1.0000   1.0000
     0.0000   0.0000   0.0000   0.0000   0.0000   0.0000   0.0000   0.0000
     0.0000   0.0000

          k =-0.5000 0.9054 0.8538 ( 17248 PWs)   bands (ev):

   -13.2648 -13.2648 -13.2606 -13.2606 -13.2418 -13.2418 -13.2397 -13.2397
   -13.2322 -13.2322 -13.2221 -13.2221 -13.2104 -13.2104 -13.1980 -13.1980
   -13.1849 -13.1849 -13.1741 -13.1741  -4.7767  -4.7767  -4.3656  -4.3656
     0.7959   0.7959   1.5060   1.5060   3.4926   3.4926   4.3746   4.3746
     4.9023   4.9023   5.5643   5.5643   6.3440   6.3440   7.0946   7.0946
    10.4143  10.4143  11.0014  11.0014  11.1978  11.1978  12.4974  12.4974
    12.6820  12.6820

     occupation numbers 
     1.0000   1.0000   1.0000   1.0000   1.0000   1.0000   1.0000   1.0000
     1.0000   1.0000   1.0000   1.0000   1.0000   1.0000   1.0000   1.0000
     1.0000   1.0000   1.0000   1.0000   1.0000   1.0000   1.0000   1.0000
     1.0000   1.0000   1.0000   1.0000   1.0000   1.0000   1.0000   1.0000
     1.0000   1.0000   1.0000   1.0000   1.0000   1.0000   1.0000   1.0000
     0.0000   0.0000   0.0000   0.0000   0.0000   0.0000   0.0000   0.0000
     0.0000   0.0000

          k =-0.5000 0.9054-1.2807 ( 17260 PWs)   bands (ev):

   -13.2670 -13.2670 -13.2629 -13.2629 -13.2415 -13.2415 -13.2391 -13.2391
   -13.2315 -13.2315 -13.2211 -13.2211 -13.2094 -13.2094 -13.1978 -13.1978
   -13.1850 -13.1850 -13.1738 -13.1738  -4.5957  -4.5957  -4.4285  -4.4285
     0.7944   0.7944   1.5956   1.5956   3.6149   3.6149   3.7071   3.7071
     4.9712   4.9712   5.0529   5.0529   6.3811   6.3811   6.7347   6.7347
    10.4912  10.4912  11.2695  11.2695  12.1367  12.1367  12.2362  12.2362
    13.5857  13.5860

     occupation numbers 
     1.0000   1.0000   1.0000   1.0000   1.0000   1.0000   1.0000   1.0000
     1.0000   1.0000   1.0000   1.0000   1.0000   1.0000   1.0000   1.0000
     1.0000   1.0000   1.0000   1.0000   1.0000   1.0000   1.0000   1.0000
     1.0000   1.0000   1.0000   1.0000   1.0000   1.0000   1.0000   1.0000
     1.0000   1.0000   1.0000   1.0000   1.0000   1.0000   1.0000   1.0000
     0.0000   0.0000   0.0000   0.0000   0.0000   0.0000   0.0000   0.0000
     0.0000   0.0000

          k =-0.5000-1.3581 0.0000 ( 17216 PWs)   bands (ev):

   -13.2582 -13.2582 -13.2582 -13.2582 -13.2405 -13.2405 -13.2405 -13.2405
   -13.2283 -13.2283 -13.2283 -13.2283 -13.2068 -13.2068 -13.2068 -13.2068
   -13.1787 -13.1787 -13.1787 -13.1787  -4.6507  -4.6507  -4.6507  -4.6507
     0.6675   0.6675   0.6675   0.6675   5.3019   5.3019   5.3019   5.3019
     5.9772   5.9772   5.9772   5.9772   7.0677   7.0677   7.0677   7.0677
     9.5792   9.5792   9.5792   9.5792  10.2421  10.2421  10.2421  10.2421
    12.0010  12.0010

     occupation numbers 
     1.0000   1.0000   1.0000   1.0000   1.0000   1.0000   1.0000   1.0000
     1.0000   1.0000   1.0000   1.0000   1.0000   1.0000   1.0000   1.0000
     1.0000   1.0000   1.0000   1.0000   1.0000   1.0000   1.0000   1.0000
     1.0000   1.0000   1.0000   1.0000   1.0000   1.0000   1.0000   1.0000
     1.0000   1.0000   1.0000   1.0000   1.0000   1.0000   1.0000   1.0000
     0.0000   0.0000   0.0000   0.0000   0.0000   0.0000   0.0000   0.0000
     0.0000   0.0000

          k =-0.5000-1.3581 0.4269 ( 17240 PWs)   bands (ev):

   -13.2610 -13.2610 -13.2610 -13.2610 -13.2396 -13.2396 -13.2396 -13.2396
   -13.2277 -13.2277 -13.2277 -13.2277 -13.2061 -13.2061 -13.2061 -13.2061
   -13.1786 -13.1786 -13.1786 -13.1786  -4.5943  -4.5943  -4.5943  -4.5943
     0.8046   0.8046   0.8046   0.8046   4.6671   4.6671   4.6671   4.6671
     5.6437   5.6437   5.6437   5.6437   6.8401   6.8401   6.8401   6.8401
     9.9098   9.9098   9.9098   9.9098  11.3276  11.3276  11.3276  11.3276
    12.2336  12.2336

     occupation numbers 
     1.0000   1.0000   1.0000   1.0000   1.0000   1.0000   1.0000   1.0000
     1.0000   1.0000   1.0000   1.0000   1.0000   1.0000   1.0000   1.0000
     1.0000   1.0000   1.0000   1.0000   1.0000   1.0000   1.0000   1.0000
     1.0000   1.0000   1.0000   1.0000   1.0000   1.0000   1.0000   1.0000
     1.0000   1.0000   1.0000   1.0000   1.0000   1.0000   1.0000   1.0000
     0.0000   0.0000   0.0000   0.0000   0.0000   0.0000   0.0000   0.0000
     0.0000   0.0000

          k =-0.5000-1.3581 0.8538 ( 17252 PWs)   bands (ev):

   -13.2665 -13.2665 -13.2665 -13.2665 -13.2385 -13.2385 -13.2385 -13.2385
   -13.2262 -13.2262 -13.2262 -13.2262 -13.2045 -13.2045 -13.2045 -13.2045
   -13.1784 -13.1784 -13.1784 -13.1784  -4.4757  -4.4757  -4.4757  -4.4757
     1.1366   1.1366   1.1366   1.1366   3.7643   3.7643   3.7643   3.7643
     4.8584   4.8584   4.8584   4.8584   6.5649   6.5649   6.5649   6.5649
    10.7492  10.7492  10.7492  10.7492  11.9950  11.9950  11.9950  11.9950
    13.7593  13.7593

     occupation numbers 
     1.0000   1.0000   1.0000   1.0000   1.0000   1.0000   1.0000   1.0000
     1.0000   1.0000   1.0000   1.0000   1.0000   1.0000   1.0000   1.0000
     1.0000   1.0000   1.0000   1.0000   1.0000   1.0000   1.0000   1.0000
     1.0000   1.0000   1.0000   1.0000   1.0000   1.0000   1.0000   1.0000
     1.0000   1.0000   1.0000   1.0000   1.0000   1.0000   1.0000   1.0000
     0.0000   0.0000   0.0000   0.0000   0.0000   0.0000   0.0000   0.0000
     0.0000   0.0000

          k =-0.5000-1.3581-1.2807 ( 17248 PWs)   bands (ev):

   -13.2692 -13.2692 -13.2692 -13.2692 -13.2382 -13.2382 -13.2382 -13.2382
   -13.2255 -13.2255 -13.2255 -13.2255 -13.2036 -13.2036 -13.2036 -13.2036
   -13.1782 -13.1782 -13.1782 -13.1782  -4.4130  -4.4130  -4.4130  -4.4130
     1.3469   1.3469   1.3469   1.3469   3.4561   3.4561   3.4561   3.4561
     4.3159   4.3159   4.3159   4.3159   6.5957   6.5957   6.5957   6.5957
    10.6247  10.6247  10.6247  10.6247  12.8395  12.8395  12.8395  12.8395
    14.6046  14.6046

     occupation numbers 
     1.0000   1.0000   1.0000   1.0000   1.0000   1.0000   1.0000   1.0000
     1.0000   1.0000   1.0000   1.0000   1.0000   1.0000   1.0000   1.0000
     1.0000   1.0000   1.0000   1.0000   1.0000   1.0000   1.0000   1.0000
     1.0000   1.0000   1.0000   1.0000   1.0000   1.0000   1.0000   1.0000
     1.0000   1.0000   1.0000   1.0000   1.0000   1.0000   1.0000   1.0000
     0.0000   0.0000   0.0000   0.0000   0.0000   0.0000   0.0000   0.0000
     0.0000   0.0000

     highest occupied, lowest unoccupied level (ev):     8.1000    8.6727

!    total energy              =    -827.62328561 Ry
     estimated scf accuracy    <          1.1E-09 Ry

     The total energy is the sum of the following terms:
     one-electron contribution =    -257.00912983 Ry
     hartree contribution      =     179.11405106 Ry
     xc contribution           =    -309.12339064 Ry
     ewald contribution        =    -440.60481620 Ry

     convergence has been achieved in   9 iterations

     Forces acting on atoms (cartesian axes, Ry/au):

     atom    1 type  2   force =     0.00805185   -0.00000000   -0.00035874
     atom    2 type  1   force =    -0.00736162    0.00000000   -0.00105912
     atom    3 type  2   force =    -0.00805185    0.00000000   -0.00035874
     atom    4 type  1   force =     0.00736162    0.00000000   -0.00105912
     atom    5 type  2   force =     0.00805185    0.00000000    0.00035874
     atom    6 type  1   force =    -0.00736162    0.00000000    0.00105912
     atom    7 type  2   force =    -0.00805185    0.00000000    0.00035874
     atom    8 type  1   force =     0.00736162    0.00000000    0.00105912
     The non-local contrib.  to forces
     atom    1 type  2   force =    -0.11831333    0.00000000    0.09594725
     atom    2 type  1   force =     0.37321679    0.00000000    0.26603642
     atom    3 type  2   force =     0.11831333    0.00000000    0.09594725
     atom    4 type  1   force =    -0.37321679    0.00000000    0.26603642
     atom    5 type  2   force =    -0.11831333    0.00000000   -0.09594725
     atom    6 type  1   force =     0.37321679    0.00000000   -0.26603642
     atom    7 type  2   force =     0.11831333    0.00000000   -0.09594725
     atom    8 type  1   force =    -0.37321679    0.00000000   -0.26603642
     The ionic contribution  to forces
     atom    1 type  2   force =     1.53473235   -0.00000000   -1.05154455
     atom    2 type  1   force =    -1.03769718    0.00000000   -0.57506129
     atom    3 type  2   force =    -1.53473235   -0.00000000   -1.05154455
     atom    4 type  1   force =     1.03769718    0.00000000   -0.57506129
     atom    5 type  2   force =     1.53473235    0.00000000    1.05154455
     atom    6 type  1   force =    -1.03769718   -0.00000000    0.57506129
     atom    7 type  2   force =    -1.53473235   -0.00000000    1.05154455
     atom    8 type  1   force =     1.03769718    0.00000000    0.57506129
     The local contribution  to forces
     atom    1 type  2   force =    -1.42139047    0.00000000    0.96582928
     atom    2 type  1   force =     0.66291897   -0.00000000    0.31228404
     atom    3 type  2   force =     1.42139047   -0.00000000    0.96582928
     atom    4 type  1   force =    -0.66291897    0.00000000    0.31228404
     atom    5 type  2   force =    -1.42139047    0.00000000   -0.96582928
     atom    6 type  1   force =     0.66291897    0.00000000   -0.31228404
     atom    7 type  2   force =     1.42139047    0.00000000   -0.96582928
     atom    8 type  1   force =    -0.66291897    0.00000000   -0.31228404
     The core correction contribution to forces
     atom    1 type  2   force =     0.01299293   -0.00000000   -0.01059076
     atom    2 type  1   force =    -0.00574020   -0.00000000   -0.00434724
     atom    3 type  2   force =    -0.01299293    0.00000000   -0.01059076
     atom    4 type  1   force =     0.00574020    0.00000000   -0.00434724
     atom    5 type  2   force =     0.01299293   -0.00000000    0.01059076
     atom    6 type  1   force =    -0.00574020    0.00000000    0.00434724
     atom    7 type  2   force =    -0.01299293    0.00000000    0.01059076
     atom    8 type  1   force =     0.00574020    0.00000000    0.00434724
     The Hubbard contrib.    to forces
     atom    1 type  2   force =     0.00000000    0.00000000    0.00000000
     atom    2 type  1   force =     0.00000000    0.00000000    0.00000000
     atom    3 type  2   force =     0.00000000    0.00000000    0.00000000
     atom    4 type  1   force =     0.00000000    0.00000000    0.00000000
     atom    5 type  2   force =     0.00000000    0.00000000    0.00000000
     atom    6 type  1   force =     0.00000000    0.00000000    0.00000000
     atom    7 type  2   force =     0.00000000    0.00000000    0.00000000
     atom    8 type  1   force =     0.00000000    0.00000000    0.00000000
     The SCF correction term to forces
     atom    1 type  2   force =     0.00003036    0.00000000    0.00000003
     atom    2 type  1   force =    -0.00006000   -0.00000000    0.00002895
     atom    3 type  2   force =    -0.00003036   -0.00000000    0.00000003
     atom    4 type  1   force =     0.00006000    0.00000000    0.00002895
     atom    5 type  2   force =     0.00003036    0.00000000   -0.00000003
     atom    6 type  1   force =    -0.00006000    0.00000000   -0.00002895
     atom    7 type  2   force =    -0.00003036   -0.00000000   -0.00000003
     atom    8 type  1   force =     0.00006000    0.00000000   -0.00002895

     Total force =     0.021934     Total SCF correction =     0.000146

     Writing output data file ./tmp/SnSe_pnma.save/

     init_run     :     24.72s CPU     40.91s WALL (       1 calls)
     electrons    :    543.04s CPU    965.19s WALL (       1 calls)
     forces       :     17.46s CPU     32.21s WALL (       1 calls)

     Called by init_run:
     wfcinit      :     12.54s CPU     22.23s WALL (       1 calls)
     wfcinit:atom :      0.10s CPU      0.13s WALL (      11 calls)
     wfcinit:wfcr :     11.80s CPU     21.23s WALL (      11 calls)
     potinit      :      3.69s CPU      4.39s WALL (       1 calls)
     hinit0       :      5.74s CPU      6.68s WALL (       1 calls)

     Called by electrons:
     c_bands      :    436.59s CPU    775.45s WALL (       9 calls)
     sum_band     :     65.88s CPU    112.85s WALL (       9 calls)
     v_of_rho     :      8.67s CPU     11.21s WALL (      10 calls)
     v_h          :      0.69s CPU      0.85s WALL (      10 calls)
     v_xc         :      8.80s CPU     11.44s WALL (      11 calls)
     newd         :     32.38s CPU     70.81s WALL (      10 calls)
     mix_rho      :      1.43s CPU      1.63s WALL (       9 calls)

     Called by c_bands:
     init_us_2    :      2.91s CPU      4.68s WALL (     220 calls)
     cegterg      :    340.26s CPU    614.79s WALL (      99 calls)

     Called by sum_band:
     sum_band:wei :      0.07s CPU      0.10s WALL (       9 calls)
     sum_band:loo :     46.90s CPU     84.07s WALL (       9 calls)
     sum_band:buf :      0.24s CPU      0.31s WALL (      99 calls)
     sum_band:ini :      1.41s CPU      2.11s WALL (      99 calls)
     sum_band:cal :     12.15s CPU     27.80s WALL (      99 calls)
     sum_band:bec :      0.01s CPU      0.01s WALL (      99 calls)
     addusdens    :     13.29s CPU     22.08s WALL (       9 calls)
     addusd:skk   :      0.04s CPU      0.14s WALL (      18 calls)
     addusd:dgemm :      2.72s CPU      4.77s WALL (      18 calls)
     addusd:qvan2 :      8.65s CPU     13.05s WALL (      18 calls)

     Called by *egterg:
     cdiaghg      :     14.93s CPU     59.19s WALL (     439 calls)
     cegterg:over :     47.00s CPU    113.54s WALL (     340 calls)
     cegterg:upda :      6.52s CPU      7.19s WALL (     340 calls)
     cegterg:last :     11.73s CPU      9.57s WALL (     211 calls)
     h_psi        :    225.74s CPU    350.97s WALL (     450 calls)
     s_psi        :     12.26s CPU      9.92s WALL (     450 calls)
     g_psi        :      0.98s CPU      1.22s WALL (     340 calls)

     Called by h_psi:
     h_psi:calbec :     41.30s CPU     90.49s WALL (     450 calls)
     vloc_psi     :    171.13s CPU    248.94s WALL (     450 calls)
     add_vuspsi   :     12.58s CPU     10.15s WALL (     450 calls)

     General routines
     calbec       :     56.37s CPU    124.85s WALL (     593 calls)
     fft          :      7.48s CPU      9.01s WALL (     139 calls)
     ffts         :      0.48s CPU      0.48s WALL (      19 calls)
     fftw         :    180.07s CPU    266.68s WALL (   31982 calls)
     interpolate  :      0.75s CPU      0.82s WALL (      10 calls)

     Parallel routines
     fft_scatt_xy :     34.82s CPU     49.11s WALL (   32140 calls)
     fft_scatt_yz :     66.45s CPU    100.16s WALL (   32140 calls)

     PWSCF        :   9m48.20s CPU  17m22.51s WALL


   This run was terminated on:  11:35:16  19May2026            

=------------------------------------------------------------------------------=
   JOB DONE.
=------------------------------------------------------------------------------=
