
     Program PWSCF v.6.7MaX starts on  5May2026 at 18:59:31 

     This program is part of the open-source Quantum ESPRESSO suite
     for quantum simulation of materials; please cite
         "P. Giannozzi et al., J. Phys.:Condens. Matter 21 395502 (2009);
         "P. Giannozzi et al., J. Phys.:Condens. Matter 29 465901 (2017);
          URL http://www.quantum-espresso.org", 
     in publications or presentations arising from this work. More details at
     http://www.quantum-espresso.org/quote

     Parallel version (MPI), running on     4 processors

     MPI processes distributed on     1 nodes
     K-points division:     npool     =       4
     Waiting for input...
     Reading input from standard input

     Current dimensions of program PWSCF are:
     Max number of different atomic species (ntypx) = 10
     Max number of k-points (npk) =  40000
     Max angular momentum in pseudopotentials (lmaxx) =  3

     Subspace diagonalization in iterative solution of the eigenvalue problem:
     a serial algorithm will be used


     G-vector sticks info
     --------------------
     sticks:   dense  smooth     PW     G-vecs:    dense   smooth      PW
     Sum        7455    2973    863               310421    78619   12231



     bravais-lattice index     =            8
     lattice parameter (alat)  =      21.4862  a.u.
     unit-cell volume          =    1425.7436 (a.u.)^3
     number of atoms/cell      =            8
     number of atomic types    =            2
     number of electrons       =        80.00
     number of Kohn-Sham states=           50
     kinetic-energy cutoff     =      55.0000  Ry
     charge density cutoff     =     550.0000  Ry
     scf convergence threshold =      1.0E-08
     mixing beta               =       0.7000
     number of iterations used =            8  plain     mixing
     Exchange-correlation= SLA  PW   PBE  PBE
                           (   1   4   3   4   0   0   0)

     celldm(1)=  21.486186  celldm(2)=   0.368162  celldm(3)=   0.390413
     celldm(4)=   0.000000  celldm(5)=   0.000000  celldm(6)=   0.000000

     crystal axes: (cart. coord. in units of alat)
               a(1) = (   1.000000   0.000000   0.000000 )  
               a(2) = (   0.000000   0.368162   0.000000 )  
               a(3) = (   0.000000   0.000000   0.390413 )  

     reciprocal axes: (cart. coord. in units 2 pi/alat)
               b(1) = (  1.000000  0.000000  0.000000 )  
               b(2) = (  0.000000  2.716197  0.000000 )  
               b(3) = (  0.000000  0.000000  2.561388 )  


     PseudoPot. # 1 for Sn read from file:
     ../pseudo/Sn_pbe_v1.uspp.F.UPF
     MD5 check sum: 4cf58ce39ec5d5d420df3dd08604eb00
     Pseudo is Ultrasoft + core correction, Zval = 14.0
     Generated by new atomic code, or converted to UPF format
     Using radial grid of  891 points,  6 beta functions with: 
                l(1) =   0
                l(2) =   0
                l(3) =   1
                l(4) =   1
                l(5) =   2
                l(6) =   2
     Q(r) pseudized with  6 coefficients,  rinner =    1.200   1.200   1.200
                                                       1.200   1.200

     PseudoPot. # 2 for Se read from file:
     ../pseudo/Se_pbe_v1.uspp.F.UPF
     MD5 check sum: 1b3568f3a8ae88f9a2a0ad0698632c85
     Pseudo is Ultrasoft + core correction, Zval =  6.0
     Generated by new atomic code, or converted to UPF format
     Using radial grid of  877 points,  6 beta functions with: 
                l(1) =   0
                l(2) =   0
                l(3) =   1
                l(4) =   1
                l(5) =   2
                l(6) =   2
     Q(r) pseudized with  8 coefficients,  rinner =    1.300   1.300   1.300
                                                       1.300   1.300

     atomic species   valence    mass     pseudopotential
        Sn            14.00   118.71000     Sn( 1.00)
        Se             6.00    78.97100     Se( 1.00)

      8 Sym. Ops., with inversion, found ( 6 have fractional translation)


                                    s                        frac. trans.

      isym =  1     identity                                     

 cryst.   s( 1) = (     1          0          0      )
                  (     0          1          0      )
                  (     0          0          1      )

 cart.    s( 1) = (  1.0000000  0.0000000  0.0000000 )
                  (  0.0000000  1.0000000  0.0000000 )
                  (  0.0000000  0.0000000  1.0000000 )


      isym =  2     180 deg rotation - cart. axis [0,0,1]        

 cryst.   s( 2) = (    -1          0          0      )    f =(  0.5000000 )
                  (     0         -1          0      )       (  0.0000000 )
                  (     0          0          1      )       (  0.5000000 )

 cart.    s( 2) = ( -1.0000000  0.0000000  0.0000000 )    f =(  0.5000000 )
                  (  0.0000000 -1.0000000  0.0000000 )       (  0.0000000 )
                  (  0.0000000  0.0000000  1.0000000 )       (  0.1952067 )


      isym =  3     180 deg rotation - cart. axis [0,1,0]        

 cryst.   s( 3) = (    -1          0          0      )    f =(  0.0000000 )
                  (     0          1          0      )       ( -0.5000000 )
                  (     0          0         -1      )       (  0.0000000 )

 cart.    s( 3) = ( -1.0000000  0.0000000  0.0000000 )    f =(  0.0000000 )
                  (  0.0000000  1.0000000  0.0000000 )       ( -0.1840809 )
                  (  0.0000000  0.0000000 -1.0000000 )       (  0.0000000 )


      isym =  4     180 deg rotation - cart. axis [1,0,0]        

 cryst.   s( 4) = (     1          0          0      )    f =(  0.5000000 )
                  (     0         -1          0      )       (  0.5000000 )
                  (     0          0         -1      )       (  0.5000000 )

 cart.    s( 4) = (  1.0000000  0.0000000  0.0000000 )    f =(  0.5000000 )
                  (  0.0000000 -1.0000000  0.0000000 )       (  0.1840809 )
                  (  0.0000000  0.0000000 -1.0000000 )       (  0.1952067 )


      isym =  5     inversion                                    

 cryst.   s( 5) = (    -1          0          0      )
                  (     0         -1          0      )
                  (     0          0         -1      )

 cart.    s( 5) = ( -1.0000000  0.0000000  0.0000000 )
                  (  0.0000000 -1.0000000  0.0000000 )
                  (  0.0000000  0.0000000 -1.0000000 )


      isym =  6     inv. 180 deg rotation - cart. axis [0,0,1]   

 cryst.   s( 6) = (     1          0          0      )    f =(  0.5000000 )
                  (     0          1          0      )       (  0.0000000 )
                  (     0          0         -1      )       (  0.5000000 )

 cart.    s( 6) = (  1.0000000  0.0000000  0.0000000 )    f =(  0.5000000 )
                  (  0.0000000  1.0000000  0.0000000 )       (  0.0000000 )
                  (  0.0000000  0.0000000 -1.0000000 )       (  0.1952067 )


      isym =  7     inv. 180 deg rotation - cart. axis [0,1,0]   

 cryst.   s( 7) = (     1          0          0      )    f =(  0.0000000 )
                  (     0         -1          0      )       (  0.5000000 )
                  (     0          0          1      )       (  0.0000000 )

 cart.    s( 7) = (  1.0000000  0.0000000  0.0000000 )    f =(  0.0000000 )
                  (  0.0000000 -1.0000000  0.0000000 )       (  0.1840809 )
                  (  0.0000000  0.0000000  1.0000000 )       (  0.0000000 )


      isym =  8     inv. 180 deg rotation - cart. axis [1,0,0]   

 cryst.   s( 8) = (    -1          0          0      )    f =(  0.5000000 )
                  (     0          1          0      )       ( -0.5000000 )
                  (     0          0          1      )       (  0.5000000 )

 cart.    s( 8) = ( -1.0000000  0.0000000  0.0000000 )    f =(  0.5000000 )
                  (  0.0000000  1.0000000  0.0000000 )       ( -0.1840809 )
                  (  0.0000000  0.0000000  1.0000000 )       (  0.1952067 )


     point group D_2h (mmm) 
     there are  8 classes
     the character table:

       E     C2    C2'   C2''  i     s_v   s_v'  s_v''
A_g    1.00  1.00  1.00  1.00  1.00  1.00  1.00  1.00
B_1g   1.00  1.00 -1.00 -1.00  1.00  1.00 -1.00 -1.00
B_2g   1.00 -1.00  1.00 -1.00  1.00 -1.00  1.00 -1.00
B_3g   1.00 -1.00 -1.00  1.00  1.00 -1.00 -1.00  1.00
A_u    1.00  1.00  1.00  1.00 -1.00 -1.00 -1.00 -1.00
B_1u   1.00  1.00 -1.00 -1.00 -1.00 -1.00  1.00  1.00
B_2u   1.00 -1.00  1.00 -1.00 -1.00  1.00 -1.00  1.00
B_3u   1.00 -1.00 -1.00  1.00 -1.00  1.00  1.00 -1.00

     the symmetry operations in each class and the name of the first element:

     E        1
          identity                                               
     C2       2
          180 deg rotation - cart. axis [0,0,1]                  
     C2'      4
          180 deg rotation - cart. axis [1,0,0]                  
     C2''     3
          180 deg rotation - cart. axis [0,1,0]                  
     i        5
          inversion                                              
     s_v      6
          inv. 180 deg rotation - cart. axis [0,0,1]             
     s_v'     8
          inv. 180 deg rotation - cart. axis [1,0,0]             
     s_v''    7
          inv. 180 deg rotation - cart. axis [0,1,0]             

   Cartesian axes

     site n.     atom                  positions (alat units)
         1           Se  tau(   1) = (   0.8555000   0.0920405   0.1884916  )
         2           Sn  tau(   2) = (   0.1187000   0.0920405   0.0385728  )
         3           Se  tau(   3) = (   0.6445000   0.2761214   0.3836983  )
         4           Sn  tau(   4) = (   0.3813000   0.2761214   0.2337795  )
         5           Se  tau(   5) = (   0.3555000   0.0920405   0.0067151  )
         6           Sn  tau(   6) = (   0.6187000   0.0920405   0.1566338  )
         7           Se  tau(   7) = (   0.1445000   0.2761214   0.2019218  )
         8           Sn  tau(   8) = (   0.8813000   0.2761214   0.3518405  )

   Crystallographic axes

     site n.     atom                  positions (cryst. coord.)
         1           Se  tau(   1) = (  0.8555000  0.2500000  0.4828000  )
         2           Sn  tau(   2) = (  0.1187000  0.2500000  0.0988000  )
         3           Se  tau(   3) = (  0.6445000  0.7500000  0.9828000  )
         4           Sn  tau(   4) = (  0.3813000  0.7500000  0.5988000  )
         5           Se  tau(   5) = (  0.3555000  0.2500000  0.0172000  )
         6           Sn  tau(   6) = (  0.6187000  0.2500000  0.4012000  )
         7           Se  tau(   7) = (  0.1445000  0.7500000  0.5172000  )
         8           Sn  tau(   8) = (  0.8813000  0.7500000  0.9012000  )

     number of k points=    32
                       cart. coord. in units 2pi/alat
        k(    1) = (   0.0000000   0.0000000   0.0000000), wk =   0.0277778
        k(    2) = (   0.0000000   0.0000000   0.4268979), wk =   0.0555556
        k(    3) = (   0.0000000   0.0000000   0.8537959), wk =   0.0555556
        k(    4) = (   0.0000000   0.0000000  -1.2806938), wk =   0.0277778
        k(    5) = (   0.0000000   0.4526995   0.0000000), wk =   0.0555556
        k(    6) = (   0.0000000   0.4526995   0.4268979), wk =   0.1111111
        k(    7) = (   0.0000000   0.4526995   0.8537959), wk =   0.1111111
        k(    8) = (   0.0000000   0.4526995  -1.2806938), wk =   0.0555556
        k(    9) = (   0.0000000   0.9053989   0.0000000), wk =   0.0555556
        k(   10) = (   0.0000000   0.9053989   0.4268979), wk =   0.1111111
        k(   11) = (   0.0000000   0.9053989   0.8537959), wk =   0.1111111
        k(   12) = (   0.0000000   0.9053989  -1.2806938), wk =   0.0555556
        k(   13) = (   0.0000000  -1.3580984   0.0000000), wk =   0.0277778
        k(   14) = (   0.0000000  -1.3580984   0.4268979), wk =   0.0555556
        k(   15) = (   0.0000000  -1.3580984   0.8537959), wk =   0.0555556
        k(   16) = (   0.0000000  -1.3580984  -1.2806938), wk =   0.0277778
        k(   17) = (  -0.5000000   0.0000000   0.0000000), wk =   0.0277778
        k(   18) = (  -0.5000000   0.0000000   0.4268979), wk =   0.0555556
        k(   19) = (  -0.5000000   0.0000000   0.8537959), wk =   0.0555556
        k(   20) = (  -0.5000000   0.0000000  -1.2806938), wk =   0.0277778
        k(   21) = (  -0.5000000   0.4526995   0.0000000), wk =   0.0555556
        k(   22) = (  -0.5000000   0.4526995   0.4268979), wk =   0.1111111
        k(   23) = (  -0.5000000   0.4526995   0.8537959), wk =   0.1111111
        k(   24) = (  -0.5000000   0.4526995  -1.2806938), wk =   0.0555556
        k(   25) = (  -0.5000000   0.9053989   0.0000000), wk =   0.0555556
        k(   26) = (  -0.5000000   0.9053989   0.4268979), wk =   0.1111111
        k(   27) = (  -0.5000000   0.9053989   0.8537959), wk =   0.1111111
        k(   28) = (  -0.5000000   0.9053989  -1.2806938), wk =   0.0555556
        k(   29) = (  -0.5000000  -1.3580984   0.0000000), wk =   0.0277778
        k(   30) = (  -0.5000000  -1.3580984   0.4268979), wk =   0.0555556
        k(   31) = (  -0.5000000  -1.3580984   0.8537959), wk =   0.0555556
        k(   32) = (  -0.5000000  -1.3580984  -1.2806938), wk =   0.0277778

                       cryst. coord.
        k(    1) = (   0.0000000   0.0000000   0.0000000), wk =   0.0277778
        k(    2) = (   0.0000000   0.0000000   0.1666667), wk =   0.0555556
        k(    3) = (   0.0000000   0.0000000   0.3333333), wk =   0.0555556
        k(    4) = (   0.0000000   0.0000000  -0.5000000), wk =   0.0277778
        k(    5) = (   0.0000000   0.1666667   0.0000000), wk =   0.0555556
        k(    6) = (   0.0000000   0.1666667   0.1666667), wk =   0.1111111
        k(    7) = (   0.0000000   0.1666667   0.3333333), wk =   0.1111111
        k(    8) = (   0.0000000   0.1666667  -0.5000000), wk =   0.0555556
        k(    9) = (   0.0000000   0.3333333   0.0000000), wk =   0.0555556
        k(   10) = (   0.0000000   0.3333333   0.1666667), wk =   0.1111111
        k(   11) = (   0.0000000   0.3333333   0.3333333), wk =   0.1111111
        k(   12) = (   0.0000000   0.3333333  -0.5000000), wk =   0.0555556
        k(   13) = (   0.0000000  -0.5000000   0.0000000), wk =   0.0277778
        k(   14) = (   0.0000000  -0.5000000   0.1666667), wk =   0.0555556
        k(   15) = (   0.0000000  -0.5000000   0.3333333), wk =   0.0555556
        k(   16) = (   0.0000000  -0.5000000  -0.5000000), wk =   0.0277778
        k(   17) = (  -0.5000000   0.0000000   0.0000000), wk =   0.0277778
        k(   18) = (  -0.5000000   0.0000000   0.1666667), wk =   0.0555556
        k(   19) = (  -0.5000000   0.0000000   0.3333333), wk =   0.0555556
        k(   20) = (  -0.5000000   0.0000000  -0.5000000), wk =   0.0277778
        k(   21) = (  -0.5000000   0.1666667   0.0000000), wk =   0.0555556
        k(   22) = (  -0.5000000   0.1666667   0.1666667), wk =   0.1111111
        k(   23) = (  -0.5000000   0.1666667   0.3333333), wk =   0.1111111
        k(   24) = (  -0.5000000   0.1666667  -0.5000000), wk =   0.0555556
        k(   25) = (  -0.5000000   0.3333333   0.0000000), wk =   0.0555556
        k(   26) = (  -0.5000000   0.3333333   0.1666667), wk =   0.1111111
        k(   27) = (  -0.5000000   0.3333333   0.3333333), wk =   0.1111111
        k(   28) = (  -0.5000000   0.3333333  -0.5000000), wk =   0.0555556
        k(   29) = (  -0.5000000  -0.5000000   0.0000000), wk =   0.0277778
        k(   30) = (  -0.5000000  -0.5000000   0.1666667), wk =   0.0555556
        k(   31) = (  -0.5000000  -0.5000000   0.3333333), wk =   0.0555556
        k(   32) = (  -0.5000000  -0.5000000  -0.5000000), wk =   0.0277778

     Dense  grid:   310421 G-vectors     FFT dimensions: ( 162,  60,  64)

     Smooth grid:    78619 G-vectors     FFT dimensions: ( 108,  40,  40)

     Dynamical RAM for                 wfc:       7.49 MB

     Dynamical RAM for     wfc (w. buffer):      67.44 MB

     Dynamical RAM for           str. fact:       9.47 MB

     Dynamical RAM for           local pot:       0.00 MB

     Dynamical RAM for          nlocal pot:      21.58 MB

     Dynamical RAM for                qrad:       3.76 MB

     Dynamical RAM for          rho,v,vnew:      28.45 MB

     Dynamical RAM for               rhoin:       9.48 MB

     Dynamical RAM for            rho*nmix:      75.79 MB

     Dynamical RAM for           G-vectors:      18.36 MB

     Dynamical RAM for          h,s,v(r/c):       0.46 MB

     Dynamical RAM for          <psi|beta>:       0.11 MB

     Dynamical RAM for                 psi:      14.99 MB

     Dynamical RAM for                hpsi:      14.99 MB

     Dynamical RAM for                spsi:      14.99 MB

     Dynamical RAM for      wfcinit/wfcrot:      15.65 MB

     Dynamical RAM for           addusdens:     228.54 MB

     Dynamical RAM for          addusforce:     234.48 MB

     Estimated static dynamical RAM per process >     272.27 MB

     Estimated max dynamical RAM per process >     506.75 MB

     Estimated total dynamical RAM >       1.98 GB

     Initial potential from superposition of free atoms

     starting charge   75.99954, renormalised to   80.00000
     Starting wfcs are   52 randomized atomic wfcs

     total cpu time spent up to now is       11.4 secs

     Self-consistent Calculation

     iteration #  1     ecut=    55.00 Ry     beta= 0.70
     Davidson diagonalization with overlap
     ethr =  1.00E-02,  avg # of iterations =  3.7

     total cpu time spent up to now is       39.2 secs

     total energy              =    -826.55219219 Ry
     estimated scf accuracy    <       2.63095507 Ry

     iteration #  2     ecut=    55.00 Ry     beta= 0.70
     Davidson diagonalization with overlap
     ethr =  3.29E-03,  avg # of iterations =  2.0

     total cpu time spent up to now is       65.6 secs

     total energy              =    -827.33726509 Ry
     estimated scf accuracy    <       1.09004241 Ry

     iteration #  3     ecut=    55.00 Ry     beta= 0.70
     Davidson diagonalization with overlap
     ethr =  1.36E-03,  avg # of iterations =  2.0

     total cpu time spent up to now is       88.8 secs

     total energy              =    -827.60846647 Ry
     estimated scf accuracy    <       0.06105706 Ry

     iteration #  4     ecut=    55.00 Ry     beta= 0.70
     Davidson diagonalization with overlap
     ethr =  7.63E-05,  avg # of iterations =  3.4

     total cpu time spent up to now is      115.6 secs

     total energy              =    -827.61954625 Ry
     estimated scf accuracy    <       0.00300228 Ry

     iteration #  5     ecut=    55.00 Ry     beta= 0.70
     Davidson diagonalization with overlap
     ethr =  3.75E-06,  avg # of iterations =  5.1

     total cpu time spent up to now is      142.9 secs

     total energy              =    -827.62021314 Ry
     estimated scf accuracy    <       0.00081241 Ry

     iteration #  6     ecut=    55.00 Ry     beta= 0.70
     Davidson diagonalization with overlap
     ethr =  1.02E-06,  avg # of iterations =  2.2

     total cpu time spent up to now is      166.0 secs

     total energy              =    -827.62038873 Ry
     estimated scf accuracy    <       0.00004532 Ry

     iteration #  7     ecut=    55.00 Ry     beta= 0.70
     Davidson diagonalization with overlap
     ethr =  5.66E-08,  avg # of iterations =  5.0

     total cpu time spent up to now is      195.5 secs

     total energy              =    -827.62041733 Ry
     estimated scf accuracy    <       0.00000271 Ry

     iteration #  8     ecut=    55.00 Ry     beta= 0.70
     Davidson diagonalization with overlap
     ethr =  3.38E-09,  avg # of iterations =  3.7

     total cpu time spent up to now is      223.3 secs

     total energy              =    -827.62041846 Ry
     estimated scf accuracy    <       0.00000044 Ry

     iteration #  9     ecut=    55.00 Ry     beta= 0.70
     Davidson diagonalization with overlap
     ethr =  5.55E-10,  avg # of iterations =  3.1

     total cpu time spent up to now is      250.2 secs

     End of self-consistent calculation

          k = 0.0000 0.0000 0.0000 (  9803 PWs)   bands (ev):

   -13.2683 -13.2565 -13.2533 -13.2508 -13.2506 -13.2466 -13.2437 -13.2398
   -13.2355 -13.2345 -13.2339 -13.2268 -13.2194 -13.2130 -13.1985 -13.1933
   -13.1885 -13.1847 -13.1770 -13.1676  -5.7458  -5.3957  -4.6586  -4.1587
     0.8109   1.9490   2.5400   3.0754   3.2305   4.6640   4.7023   4.7770
     5.1827   5.2391   5.8116   6.3116   6.5364   6.9892   7.4010   7.5700
     8.8495  10.9517  11.0998  11.1324  11.3573  11.4510  12.3345  12.6295
    12.7028  12.7426

     occupation numbers 
     1.0000   1.0000   1.0000   1.0000   1.0000   1.0000   1.0000   1.0000
     1.0000   1.0000   1.0000   1.0000   1.0000   1.0000   1.0000   1.0000
     1.0000   1.0000   1.0000   1.0000   1.0000   1.0000   1.0000   1.0000
     1.0000   1.0000   1.0000   1.0000   1.0000   1.0000   1.0000   1.0000
     1.0000   1.0000   1.0000   1.0000   1.0000   1.0000   1.0000   1.0000
     0.0000   0.0000   0.0000   0.0000   0.0000   0.0000   0.0000   0.0000
     0.0000   0.0000

          k = 0.0000 0.0000 0.4269 (  9842 PWs)   bands (ev):

   -13.2667 -13.2551 -13.2535 -13.2520 -13.2498 -13.2486 -13.2443 -13.2406
   -13.2349 -13.2327 -13.2304 -13.2272 -13.2186 -13.2137 -13.1985 -13.1926
   -13.1896 -13.1855 -13.1763 -13.1682  -5.6276  -5.2874  -4.6451  -4.1906
     0.4464   1.7107   1.9313   2.6887   3.2166   4.8189   4.8448   5.3356
     5.3459   5.9064   5.9283   6.5186   6.5926   7.0993   7.4477   7.5873
     8.9715  10.0943  10.7259  10.9025  11.1417  11.4574  11.9012  12.0695
    12.5323  12.7682

     occupation numbers 
     1.0000   1.0000   1.0000   1.0000   1.0000   1.0000   1.0000   1.0000
     1.0000   1.0000   1.0000   1.0000   1.0000   1.0000   1.0000   1.0000
     1.0000   1.0000   1.0000   1.0000   1.0000   1.0000   1.0000   1.0000
     1.0000   1.0000   1.0000   1.0000   1.0000   1.0000   1.0000   1.0000
     1.0000   1.0000   1.0000   1.0000   1.0000   1.0000   1.0000   1.0000
     0.0000   0.0000   0.0000   0.0000   0.0000   0.0000   0.0000   0.0000
     0.0000   0.0000

          k = 0.0000 0.0000 0.8538 (  9818 PWs)   bands (ev):

   -13.2627 -13.2548 -13.2543 -13.2525 -13.2522 -13.2488 -13.2452 -13.2430
   -13.2329 -13.2284 -13.2266 -13.2240 -13.2178 -13.2157 -13.1977 -13.1922
   -13.1910 -13.1872 -13.1745 -13.1699  -5.3119  -4.9961  -4.6888  -4.3309
    -0.0227   0.8106   1.3649   1.9824   3.6443   5.0245   5.3391   5.7842
     6.1140   6.1248   6.3717   6.6088   6.8452   7.4420   7.5932   8.1002
     8.9972   9.5562   9.5823   9.7389  10.4725  10.5770  11.0920  11.2235
    11.9938  12.1197

     occupation numbers 
     1.0000   1.0000   1.0000   1.0000   1.0000   1.0000   1.0000   1.0000
     1.0000   1.0000   1.0000   1.0000   1.0000   1.0000   1.0000   1.0000
     1.0000   1.0000   1.0000   1.0000   1.0000   1.0000   1.0000   1.0000
     1.0000   1.0000   1.0000   1.0000   1.0000   1.0000   1.0000   1.0000
     1.0000   1.0000   1.0000   1.0000   1.0000   1.0000   1.0000   1.0000
     0.0000   0.0000   0.0000   0.0000   0.0000   0.0000   0.0000   0.0000
     0.0000   0.0000

          k = 0.0000 0.0000-1.2807 (  9884 PWs)   bands (ev):

   -13.2581 -13.2581 -13.2549 -13.2549 -13.2498 -13.2498 -13.2451 -13.2451
   -13.2305 -13.2305 -13.2203 -13.2203 -13.2189 -13.2189 -13.1952 -13.1952
   -13.1891 -13.1891 -13.1722 -13.1722  -4.9314  -4.9314  -4.6267  -4.6267
     0.0661   0.0661   1.4337   1.4337   4.3911   4.3911   5.9302   5.9302
     6.3072   6.3072   6.6795   6.6795   7.2611   7.2611   7.7978   7.7978
     9.3225   9.3225   9.6521   9.6521   9.7894   9.7894  10.7612  10.7612
    11.2256  11.2256

     occupation numbers 
     1.0000   1.0000   1.0000   1.0000   1.0000   1.0000   1.0000   1.0000
     1.0000   1.0000   1.0000   1.0000   1.0000   1.0000   1.0000   1.0000
     1.0000   1.0000   1.0000   1.0000   1.0000   1.0000   1.0000   1.0000
     1.0000   1.0000   1.0000   1.0000   1.0000   1.0000   1.0000   1.0000
     1.0000   1.0000   1.0000   1.0000   1.0000   1.0000   1.0000   1.0000
     0.0000   0.0000   0.0000   0.0000   0.0000   0.0000   0.0000   0.0000
     0.0000   0.0000

          k = 0.0000 0.4527 0.0000 (  9835 PWs)   bands (ev):

   -13.2623 -13.2544 -13.2528 -13.2500 -13.2485 -13.2480 -13.2477 -13.2424
   -13.2382 -13.2319 -13.2306 -13.2290 -13.2157 -13.2141 -13.1955 -13.1950
   -13.1881 -13.1865 -13.1770 -13.1698  -5.5976  -5.2702  -4.5968  -4.1701
     0.6098   1.5564   2.3404   2.3701   3.2408   4.6345   4.9626   5.0882
     5.1742   5.3994   6.1254   6.3948   6.5253   7.4131   7.4276   7.4285
     9.0704   9.9281  10.8650  11.1289  11.2213  11.4503  11.8183  11.8713
    12.5549  13.1383

     occupation numbers 
     1.0000   1.0000   1.0000   1.0000   1.0000   1.0000   1.0000   1.0000
     1.0000   1.0000   1.0000   1.0000   1.0000   1.0000   1.0000   1.0000
     1.0000   1.0000   1.0000   1.0000   1.0000   1.0000   1.0000   1.0000
     1.0000   1.0000   1.0000   1.0000   1.0000   1.0000   1.0000   1.0000
     1.0000   1.0000   1.0000   1.0000   1.0000   1.0000   1.0000   1.0000
     0.0000   0.0000   0.0000   0.0000   0.0000   0.0000   0.0000   0.0000
     0.0000   0.0000

          k = 0.0000 0.4527 0.4269 (  9830 PWs)   bands (ev):

   -13.2619 -13.2545 -13.2542 -13.2495 -13.2490 -13.2484 -13.2468 -13.2445
   -13.2375 -13.2307 -13.2291 -13.2265 -13.2164 -13.2134 -13.1960 -13.1939
   -13.1887 -13.1875 -13.1764 -13.1702  -5.4839  -5.1671  -4.5819  -4.1923
     0.4173   1.5347   1.8464   2.2901   3.3523   4.1008   4.3251   5.4220
     5.5923   5.9101   6.0306   6.3507   7.0709   7.2024   7.5515   7.6540
     9.1845   9.6443  10.1419  10.1809  11.1824  11.3140  11.8774  12.0788
    12.5644  12.9661

     occupation numbers 
     1.0000   1.0000   1.0000   1.0000   1.0000   1.0000   1.0000   1.0000
     1.0000   1.0000   1.0000   1.0000   1.0000   1.0000   1.0000   1.0000
     1.0000   1.0000   1.0000   1.0000   1.0000   1.0000   1.0000   1.0000
     1.0000   1.0000   1.0000   1.0000   1.0000   1.0000   1.0000   1.0000
     1.0000   1.0000   1.0000   1.0000   1.0000   1.0000   1.0000   1.0000
     0.0000   0.0000   0.0000   0.0000   0.0000   0.0000   0.0000   0.0000
     0.0000   0.0000

          k = 0.0000 0.4527 0.8538 (  9828 PWs)   bands (ev):

   -13.2616 -13.2581 -13.2536 -13.2510 -13.2492 -13.2485 -13.2477 -13.2455
   -13.2353 -13.2315 -13.2237 -13.2209 -13.2171 -13.2135 -13.1952 -13.1924
   -13.1904 -13.1893 -13.1749 -13.1713  -5.1837  -4.8936  -4.6152  -4.3029
     0.1283   0.9282   1.4481   1.9230   3.7926   4.0948   4.2791   5.3100
     5.4679   5.8008   6.2085   6.6195   7.0335   7.3116   7.3993   7.6189
     9.1863   9.4907   9.9485  10.2730  10.7644  11.1142  11.3044  12.3510
    12.6217  12.9039

     occupation numbers 
     1.0000   1.0000   1.0000   1.0000   1.0000   1.0000   1.0000   1.0000
     1.0000   1.0000   1.0000   1.0000   1.0000   1.0000   1.0000   1.0000
     1.0000   1.0000   1.0000   1.0000   1.0000   1.0000   1.0000   1.0000
     1.0000   1.0000   1.0000   1.0000   1.0000   1.0000   1.0000   1.0000
     1.0000   1.0000   1.0000   1.0000   1.0000   1.0000   1.0000   1.0000
     0.0000   0.0000   0.0000   0.0000   0.0000   0.0000   0.0000   0.0000
     0.0000   0.0000

          k = 0.0000 0.4527-1.2807 (  9826 PWs)   bands (ev):

   -13.2609 -13.2609 -13.2521 -13.2521 -13.2505 -13.2505 -13.2459 -13.2459
   -13.2330 -13.2330 -13.2191 -13.2191 -13.2159 -13.2159 -13.1930 -13.1930
   -13.1908 -13.1908 -13.1730 -13.1730  -4.8310  -4.8310  -4.5576  -4.5576
     0.2528   0.2528   1.5394   1.5394   4.3063   4.3063   4.7842   4.7842
     5.3260   5.3260   6.2947   6.2947   7.1474   7.1474   7.5549   7.5549
     9.2794   9.2794  10.0903  10.0903  11.2587  11.2587  11.7212  11.7212
    12.2939  12.2939

     occupation numbers 
     1.0000   1.0000   1.0000   1.0000   1.0000   1.0000   1.0000   1.0000
     1.0000   1.0000   1.0000   1.0000   1.0000   1.0000   1.0000   1.0000
     1.0000   1.0000   1.0000   1.0000   1.0000   1.0000   1.0000   1.0000
     1.0000   1.0000   1.0000   1.0000   1.0000   1.0000   1.0000   1.0000
     1.0000   1.0000   1.0000   1.0000   1.0000   1.0000   1.0000   1.0000
     0.0000   0.0000   0.0000   0.0000   0.0000   0.0000   0.0000   0.0000
     0.0000   0.0000

          k = 0.0000 0.9054 0.0000 (  9803 PWs)   bands (ev):

   -13.2590 -13.2564 -13.2557 -13.2536 -13.2452 -13.2450 -13.2433 -13.2393
   -13.2370 -13.2346 -13.2297 -13.2205 -13.2184 -13.2103 -13.1996 -13.1978
   -13.1886 -13.1821 -13.1767 -13.1744  -5.1946  -4.9497  -4.5093  -4.3005
     0.2652   1.0180   1.1504   1.6788   3.7025   4.9710   5.3123   5.4423
     5.5131   5.7672   6.3570   6.5064   6.8484   7.1977   7.3279   7.9129
     8.6729   9.5502   9.8460   9.8696  10.1036  10.6276  10.6762  11.5178
    11.8990  12.2764

     occupation numbers 
     1.0000   1.0000   1.0000   1.0000   1.0000   1.0000   1.0000   1.0000
     1.0000   1.0000   1.0000   1.0000   1.0000   1.0000   1.0000   1.0000
     1.0000   1.0000   1.0000   1.0000   1.0000   1.0000   1.0000   1.0000
     1.0000   1.0000   1.0000   1.0000   1.0000   1.0000   1.0000   1.0000
     1.0000   1.0000   1.0000   1.0000   1.0000   1.0000   1.0000   1.0000
     0.0000   0.0000   0.0000   0.0000   0.0000   0.0000   0.0000   0.0000
     0.0000   0.0000

          k = 0.0000 0.9054 0.4269 (  9800 PWs)   bands (ev):

   -13.2624 -13.2594 -13.2570 -13.2551 -13.2459 -13.2426 -13.2424 -13.2390
   -13.2357 -13.2343 -13.2278 -13.2190 -13.2185 -13.2102 -13.1990 -13.1974
   -13.1886 -13.1830 -13.1763 -13.1742  -5.0979  -4.8648  -4.4850  -4.2894
     0.3399   1.1587   1.2316   1.6070   3.8361   3.9315   4.2976   5.1344
     5.5224   5.8401   6.1379   6.4904   6.6522   7.1563   7.2958   7.3764
     9.1185   9.5073   9.6887  10.0186  10.8085  11.3538  11.5177  12.0200
    12.4953  12.8357

     occupation numbers 
     1.0000   1.0000   1.0000   1.0000   1.0000   1.0000   1.0000   1.0000
     1.0000   1.0000   1.0000   1.0000   1.0000   1.0000   1.0000   1.0000
     1.0000   1.0000   1.0000   1.0000   1.0000   1.0000   1.0000   1.0000
     1.0000   1.0000   1.0000   1.0000   1.0000   1.0000   1.0000   1.0000
     1.0000   1.0000   1.0000   1.0000   1.0000   1.0000   1.0000   1.0000
     0.0000   0.0000   0.0000   0.0000   0.0000   0.0000   0.0000   0.0000
     0.0000   0.0000

          k = 0.0000 0.9054 0.8538 (  9823 PWs)   bands (ev):

   -13.2675 -13.2654 -13.2603 -13.2593 -13.2448 -13.2415 -13.2401 -13.2388
   -13.2338 -13.2335 -13.2234 -13.2185 -13.2155 -13.2108 -13.1976 -13.1965
   -13.1880 -13.1847 -13.1753 -13.1740  -4.8540  -4.6522  -4.4745  -4.3032
     0.5075   1.1415   1.4846   1.5841   3.2531   3.6314   4.0732   4.3204
     4.8127   5.2019   5.5152   5.9062   6.2220   6.4864   6.9819   7.2681
     9.0694  10.7095  11.0508  11.2265  11.7014  11.7020  12.5122  12.6811
    13.0208  13.1338

     occupation numbers 
     1.0000   1.0000   1.0000   1.0000   1.0000   1.0000   1.0000   1.0000
     1.0000   1.0000   1.0000   1.0000   1.0000   1.0000   1.0000   1.0000
     1.0000   1.0000   1.0000   1.0000   1.0000   1.0000   1.0000   1.0000
     1.0000   1.0000   1.0000   1.0000   1.0000   1.0000   1.0000   1.0000
     1.0000   1.0000   1.0000   1.0000   1.0000   1.0000   1.0000   1.0000
     0.0000   0.0000   0.0000   0.0000   0.0000   0.0000   0.0000   0.0000
     0.0000   0.0000

          k = 0.0000 0.9054-1.2807 (  9838 PWs)   bands (ev):

   -13.2691 -13.2691 -13.2618 -13.2618 -13.2428 -13.2428 -13.2390 -13.2390
   -13.2329 -13.2329 -13.2199 -13.2199 -13.2123 -13.2123 -13.1965 -13.1965
   -13.1864 -13.1864 -13.1744 -13.1744  -4.5975  -4.5975  -4.4262  -4.4262
     0.7590   0.7590   1.6657   1.6657   3.4404   3.4404   3.8582   3.8582
     4.7522   4.7522   5.4198   5.4198   6.0376   6.0376   6.9415   6.9415
    10.0429  10.0429  11.6698  11.6698  12.7849  12.7849  12.8414  12.8414
    12.9945  12.9945

     occupation numbers 
     1.0000   1.0000   1.0000   1.0000   1.0000   1.0000   1.0000   1.0000
     1.0000   1.0000   1.0000   1.0000   1.0000   1.0000   1.0000   1.0000
     1.0000   1.0000   1.0000   1.0000   1.0000   1.0000   1.0000   1.0000
     1.0000   1.0000   1.0000   1.0000   1.0000   1.0000   1.0000   1.0000
     1.0000   1.0000   1.0000   1.0000   1.0000   1.0000   1.0000   1.0000
     0.0000   0.0000   0.0000   0.0000   0.0000   0.0000   0.0000   0.0000
     0.0000   0.0000

          k = 0.0000-1.3581 0.0000 (  9802 PWs)   bands (ev):

   -13.2606 -13.2606 -13.2566 -13.2566 -13.2419 -13.2419 -13.2400 -13.2400
   -13.2311 -13.2311 -13.2274 -13.2274 -13.2098 -13.2098 -13.2050 -13.2050
   -13.1807 -13.1807 -13.1780 -13.1780  -4.6818  -4.6818  -4.6183  -4.6183
     0.3599   0.3599   1.0566   1.0566   4.4853   4.4853   5.8500   5.8500
     5.8652   5.8652   6.3775   6.3775   7.1086   7.1086   7.3079   7.3079
     9.1103   9.1103   9.5459   9.5459   9.8208   9.8208  10.6273  10.6273
    11.3367  11.3367

     occupation numbers 
     1.0000   1.0000   1.0000   1.0000   1.0000   1.0000   1.0000   1.0000
     1.0000   1.0000   1.0000   1.0000   1.0000   1.0000   1.0000   1.0000
     1.0000   1.0000   1.0000   1.0000   1.0000   1.0000   1.0000   1.0000
     1.0000   1.0000   1.0000   1.0000   1.0000   1.0000   1.0000   1.0000
     1.0000   1.0000   1.0000   1.0000   1.0000   1.0000   1.0000   1.0000
     0.0000   0.0000   0.0000   0.0000   0.0000   0.0000   0.0000   0.0000
     0.0000   0.0000

          k = 0.0000-1.3581 0.4269 (  9812 PWs)   bands (ev):

   -13.2640 -13.2640 -13.2590 -13.2590 -13.2418 -13.2418 -13.2382 -13.2382
   -13.2307 -13.2307 -13.2260 -13.2260 -13.2106 -13.2106 -13.2031 -13.2031
   -13.1815 -13.1815 -13.1773 -13.1773  -4.6218  -4.6218  -4.5658  -4.5658
     0.5228   0.5228   1.1558   1.1558   4.3391   4.3391   4.6828   4.6828
     5.3959   5.3959   6.2248   6.2248   6.5245   6.5245   7.4497   7.4497
     8.9831   8.9831  10.1635  10.1635  11.0844  11.0844  11.6280  11.6280
    12.2884  12.2884

     occupation numbers 
     1.0000   1.0000   1.0000   1.0000   1.0000   1.0000   1.0000   1.0000
     1.0000   1.0000   1.0000   1.0000   1.0000   1.0000   1.0000   1.0000
     1.0000   1.0000   1.0000   1.0000   1.0000   1.0000   1.0000   1.0000
     1.0000   1.0000   1.0000   1.0000   1.0000   1.0000   1.0000   1.0000
     1.0000   1.0000   1.0000   1.0000   1.0000   1.0000   1.0000   1.0000
     0.0000   0.0000   0.0000   0.0000   0.0000   0.0000   0.0000   0.0000
     0.0000   0.0000

          k = 0.0000-1.3581 0.8538 (  9846 PWs)   bands (ev):

   -13.2703 -13.2703 -13.2638 -13.2638 -13.2413 -13.2413 -13.2355 -13.2355
   -13.2297 -13.2297 -13.2239 -13.2239 -13.2107 -13.2107 -13.2004 -13.2004
   -13.1822 -13.1822 -13.1763 -13.1763  -4.4926  -4.4926  -4.4582  -4.4582
     0.9505   0.9505   1.3627   1.3627   3.4450   3.4450   3.9825   3.9825
     4.6940   4.6940   5.5267   5.5267   5.7399   5.7399   6.9353   6.9353
    10.0276  10.0276  11.5336  11.5336  12.5152  12.5152  12.6268  12.6268
    12.8944  12.8944

     occupation numbers 
     1.0000   1.0000   1.0000   1.0000   1.0000   1.0000   1.0000   1.0000
     1.0000   1.0000   1.0000   1.0000   1.0000   1.0000   1.0000   1.0000
     1.0000   1.0000   1.0000   1.0000   1.0000   1.0000   1.0000   1.0000
     1.0000   1.0000   1.0000   1.0000   1.0000   1.0000   1.0000   1.0000
     1.0000   1.0000   1.0000   1.0000   1.0000   1.0000   1.0000   1.0000
     0.0000   0.0000   0.0000   0.0000   0.0000   0.0000   0.0000   0.0000
     0.0000   0.0000

          k = 0.0000-1.3581-1.2807 (  9860 PWs)   bands (ev):

   -13.2734 -13.2734 -13.2662 -13.2662 -13.2412 -13.2412 -13.2345 -13.2345
   -13.2292 -13.2292 -13.2232 -13.2232 -13.2102 -13.2102 -13.1993 -13.1993
   -13.1824 -13.1824 -13.1759 -13.1759  -4.4179  -4.4179  -4.4080  -4.4080
     1.2909   1.2909   1.4410   1.4410   3.0378   3.0378   3.5537   3.5537
     4.4687   4.4687   4.9501   4.9501   5.8019   5.8019   6.6438   6.6438
    10.8679  10.8679  11.1758  11.1758  12.8454  12.8454  12.9781  12.9781
    13.7131  13.7131

     occupation numbers 
     1.0000   1.0000   1.0000   1.0000   1.0000   1.0000   1.0000   1.0000
     1.0000   1.0000   1.0000   1.0000   1.0000   1.0000   1.0000   1.0000
     1.0000   1.0000   1.0000   1.0000   1.0000   1.0000   1.0000   1.0000
     1.0000   1.0000   1.0000   1.0000   1.0000   1.0000   1.0000   1.0000
     1.0000   1.0000   1.0000   1.0000   1.0000   1.0000   1.0000   1.0000
     0.0000   0.0000   0.0000   0.0000   0.0000   0.0000   0.0000   0.0000
     0.0000   0.0000

          k =-0.5000 0.0000 0.0000 (  9838 PWs)   bands (ev):

   -13.2626 -13.2626 -13.2526 -13.2526 -13.2494 -13.2494 -13.2409 -13.2409
   -13.2335 -13.2335 -13.2317 -13.2317 -13.2163 -13.2163 -13.1958 -13.1958
   -13.1865 -13.1865 -13.1720 -13.1720  -5.6061  -5.6061  -4.3736  -4.3736
     1.1512   1.1512   3.0235   3.0235   4.0130   4.0130   4.8556   4.8556
     5.2132   5.2132   6.0083   6.0083   6.2395   6.2395   7.5332   7.5332
    10.6760  10.6760  10.8765  10.8765  11.7685  11.7685  11.9996  11.9996
    13.0951  13.0951

     occupation numbers 
     1.0000   1.0000   1.0000   1.0000   1.0000   1.0000   1.0000   1.0000
     1.0000   1.0000   1.0000   1.0000   1.0000   1.0000   1.0000   1.0000
     1.0000   1.0000   1.0000   1.0000   1.0000   1.0000   1.0000   1.0000
     1.0000   1.0000   1.0000   1.0000   1.0000   1.0000   1.0000   1.0000
     1.0000   1.0000   1.0000   1.0000   1.0000   1.0000   1.0000   1.0000
     0.0000   0.0000   0.0000   0.0000   0.0000   0.0000   0.0000   0.0000
     0.0000   0.0000

          k =-0.5000 0.0000 0.4269 (  9828 PWs)   bands (ev):

   -13.2617 -13.2617 -13.2516 -13.2516 -13.2506 -13.2506 -13.2423 -13.2423
   -13.2312 -13.2312 -13.2308 -13.2308 -13.2164 -13.2164 -13.1957 -13.1957
   -13.1872 -13.1872 -13.1720 -13.1720  -5.4929  -5.4929  -4.3823  -4.3823
     0.8265   0.8265   2.4655   2.4655   4.2525   4.2525   5.0300   5.0300
     5.4496   5.4496   6.3247   6.3247   6.5534   6.5534   7.4485   7.4485
    10.3858  10.3858  11.0378  11.0378  11.0720  11.0720  11.5709  11.5709
    12.9465  12.9466

     occupation numbers 
     1.0000   1.0000   1.0000   1.0000   1.0000   1.0000   1.0000   1.0000
     1.0000   1.0000   1.0000   1.0000   1.0000   1.0000   1.0000   1.0000
     1.0000   1.0000   1.0000   1.0000   1.0000   1.0000   1.0000   1.0000
     1.0000   1.0000   1.0000   1.0000   1.0000   1.0000   1.0000   1.0000
     1.0000   1.0000   1.0000   1.0000   1.0000   1.0000   1.0000   1.0000
     0.0000   0.0000   0.0000   0.0000   0.0000   0.0000   0.0000   0.0000
     0.0000   0.0000

          k =-0.5000 0.0000 0.8538 (  9824 PWs)   bands (ev):

   -13.2593 -13.2593 -13.2530 -13.2530 -13.2503 -13.2503 -13.2450 -13.2450
   -13.2303 -13.2303 -13.2248 -13.2248 -13.2170 -13.2170 -13.1952 -13.1952
   -13.1886 -13.1886 -13.1721 -13.1721  -5.1951  -5.1951  -4.4692  -4.4692
     0.3276   0.3276   1.6294   1.6294   4.6960   4.6960   5.4996   5.4996
     5.8612   5.8612   6.4273   6.4273   6.9832   6.9832   7.7563   7.7563
     9.5837   9.5837  10.0726  10.0726  10.4134  10.4134  11.5181  11.5181
    11.7118  11.7118

     occupation numbers 
     1.0000   1.0000   1.0000   1.0000   1.0000   1.0000   1.0000   1.0000
     1.0000   1.0000   1.0000   1.0000   1.0000   1.0000   1.0000   1.0000
     1.0000   1.0000   1.0000   1.0000   1.0000   1.0000   1.0000   1.0000
     1.0000   1.0000   1.0000   1.0000   1.0000   1.0000   1.0000   1.0000
     1.0000   1.0000   1.0000   1.0000   1.0000   1.0000   1.0000   1.0000
     0.0000   0.0000   0.0000   0.0000   0.0000   0.0000   0.0000   0.0000
     0.0000   0.0000

          k =-0.5000 0.0000-1.2807 (  9804 PWs)   bands (ev):

   -13.2579 -13.2579 -13.2541 -13.2541 -13.2501 -13.2501 -13.2463 -13.2463
   -13.2299 -13.2299 -13.2199 -13.2199 -13.2193 -13.2193 -13.1948 -13.1948
   -13.1894 -13.1894 -13.1722 -13.1722  -4.9283  -4.9283  -4.6312  -4.6312
     0.1459   0.1459   1.2469   1.2469   5.2433   5.2433   5.4909   5.4909
     5.9435   5.9435   6.2876   6.2876   7.5416   7.5416   7.8131   7.8131
     9.3022   9.3022   9.7152   9.7152   9.7708   9.7708  11.1185  11.1185
    11.4686  11.4686

     occupation numbers 
     1.0000   1.0000   1.0000   1.0000   1.0000   1.0000   1.0000   1.0000
     1.0000   1.0000   1.0000   1.0000   1.0000   1.0000   1.0000   1.0000
     1.0000   1.0000   1.0000   1.0000   1.0000   1.0000   1.0000   1.0000
     1.0000   1.0000   1.0000   1.0000   1.0000   1.0000   1.0000   1.0000
     1.0000   1.0000   1.0000   1.0000   1.0000   1.0000   1.0000   1.0000
     0.0000   0.0000   0.0000   0.0000   0.0000   0.0000   0.0000   0.0000
     0.0000   0.0000

          k =-0.5000 0.4527 0.0000 (  9818 PWs)   bands (ev):

   -13.2583 -13.2583 -13.2516 -13.2516 -13.2497 -13.2497 -13.2441 -13.2441
   -13.2345 -13.2345 -13.2298 -13.2298 -13.2152 -13.2152 -13.1946 -13.1946
   -13.1877 -13.1877 -13.1732 -13.1732  -5.4662  -5.4662  -4.3504  -4.3504
     0.9297   0.9297   2.4353   2.4353   4.1473   4.1473   4.8575   4.8575
     5.5298   5.5298   6.1246   6.1246   6.3950   6.3950   7.5915   7.5915
    10.3744  10.3744  10.8682  10.8682  11.3499  11.3499  11.5978  11.5978
    12.8761  12.8762

     occupation numbers 
     1.0000   1.0000   1.0000   1.0000   1.0000   1.0000   1.0000   1.0000
     1.0000   1.0000   1.0000   1.0000   1.0000   1.0000   1.0000   1.0000
     1.0000   1.0000   1.0000   1.0000   1.0000   1.0000   1.0000   1.0000
     1.0000   1.0000   1.0000   1.0000   1.0000   1.0000   1.0000   1.0000
     1.0000   1.0000   1.0000   1.0000   1.0000   1.0000   1.0000   1.0000
     0.0000   0.0000   0.0000   0.0000   0.0000   0.0000   0.0000   0.0000
     0.0000   0.0000

          k =-0.5000 0.4527 0.4269 (  9820 PWs)   bands (ev):

   -13.2583 -13.2583 -13.2527 -13.2527 -13.2488 -13.2488 -13.2451 -13.2451
   -13.2340 -13.2340 -13.2275 -13.2275 -13.2152 -13.2152 -13.1944 -13.1944
   -13.1886 -13.1886 -13.1731 -13.1731  -5.3577  -5.3577  -4.3542  -4.3542
     0.7832   0.7832   2.1682   2.1682   4.1297   4.1297   4.6532   4.6532
     5.4440   5.4440   6.2617   6.2617   7.0751   7.0751   7.5530   7.5530
     9.6832   9.6832  10.7545  10.7545  11.2324  11.2324  11.6449  11.6449
    12.4772  12.4772

     occupation numbers 
     1.0000   1.0000   1.0000   1.0000   1.0000   1.0000   1.0000   1.0000
     1.0000   1.0000   1.0000   1.0000   1.0000   1.0000   1.0000   1.0000
     1.0000   1.0000   1.0000   1.0000   1.0000   1.0000   1.0000   1.0000
     1.0000   1.0000   1.0000   1.0000   1.0000   1.0000   1.0000   1.0000
     1.0000   1.0000   1.0000   1.0000   1.0000   1.0000   1.0000   1.0000
     0.0000   0.0000   0.0000   0.0000   0.0000   0.0000   0.0000   0.0000
     0.0000   0.0000

          k =-0.5000 0.4527 0.8538 (  9830 PWs)   bands (ev):

   -13.2590 -13.2590 -13.2550 -13.2550 -13.2479 -13.2479 -13.2457 -13.2457
   -13.2330 -13.2330 -13.2226 -13.2226 -13.2154 -13.2154 -13.1936 -13.1936
   -13.1904 -13.1904 -13.1727 -13.1727  -5.0756  -5.0756  -4.4223  -4.4223
     0.4681   0.4681   1.6533   1.6533   4.1807   4.1807   4.9875   4.9875
     5.2398   5.2398   6.4367   6.4367   6.8971   6.8971   7.5443   7.5443
     9.7398   9.7398  10.3759  10.3759  10.9207  10.9207  11.5652  11.5652
    12.5064  12.5064

     occupation numbers 
     1.0000   1.0000   1.0000   1.0000   1.0000   1.0000   1.0000   1.0000
     1.0000   1.0000   1.0000   1.0000   1.0000   1.0000   1.0000   1.0000
     1.0000   1.0000   1.0000   1.0000   1.0000   1.0000   1.0000   1.0000
     1.0000   1.0000   1.0000   1.0000   1.0000   1.0000   1.0000   1.0000
     1.0000   1.0000   1.0000   1.0000   1.0000   1.0000   1.0000   1.0000
     0.0000   0.0000   0.0000   0.0000   0.0000   0.0000   0.0000   0.0000
     0.0000   0.0000

          k =-0.5000 0.4527-1.2807 (  9828 PWs)   bands (ev):

   -13.2597 -13.2597 -13.2560 -13.2560 -13.2478 -13.2478 -13.2456 -13.2456
   -13.2327 -13.2327 -13.2196 -13.2196 -13.2158 -13.2158 -13.1924 -13.1924
   -13.1920 -13.1920 -13.1726 -13.1726  -4.8283  -4.8283  -4.5615  -4.5615
     0.3228   0.3228   1.3809   1.3809   4.5927   4.5927   4.7885   4.7885
     5.5558   5.5558   5.9751   5.9751   6.8250   6.8250   7.3417   7.3417
    10.2021  10.2021  10.2592  10.2592  10.7882  10.7882  11.5276  11.5276
    12.4451  12.4451

     occupation numbers 
     1.0000   1.0000   1.0000   1.0000   1.0000   1.0000   1.0000   1.0000
     1.0000   1.0000   1.0000   1.0000   1.0000   1.0000   1.0000   1.0000
     1.0000   1.0000   1.0000   1.0000   1.0000   1.0000   1.0000   1.0000
     1.0000   1.0000   1.0000   1.0000   1.0000   1.0000   1.0000   1.0000
     1.0000   1.0000   1.0000   1.0000   1.0000   1.0000   1.0000   1.0000
     0.0000   0.0000   0.0000   0.0000   0.0000   0.0000   0.0000   0.0000
     0.0000   0.0000

          k =-0.5000 0.9054 0.0000 (  9798 PWs)   bands (ev):

   -13.2585 -13.2585 -13.2539 -13.2539 -13.2442 -13.2442 -13.2429 -13.2429
   -13.2352 -13.2352 -13.2264 -13.2264 -13.2129 -13.2129 -13.1991 -13.1991
   -13.1850 -13.1850 -13.1755 -13.1755  -5.0938  -5.0938  -4.3823  -4.3823
     0.5646   0.5646   1.4043   1.4043   4.6052   4.6052   5.2263   5.2263
     5.9043   5.9043   6.2322   6.2322   6.5491   6.5491   7.6369   7.6369
     9.2245   9.2245  10.1310  10.1310  10.8908  10.8908  11.2858  11.2858
    11.6736  11.6736

     occupation numbers 
     1.0000   1.0000   1.0000   1.0000   1.0000   1.0000   1.0000   1.0000
     1.0000   1.0000   1.0000   1.0000   1.0000   1.0000   1.0000   1.0000
     1.0000   1.0000   1.0000   1.0000   1.0000   1.0000   1.0000   1.0000
     1.0000   1.0000   1.0000   1.0000   1.0000   1.0000   1.0000   1.0000
     1.0000   1.0000   1.0000   1.0000   1.0000   1.0000   1.0000   1.0000
     0.0000   0.0000   0.0000   0.0000   0.0000   0.0000   0.0000   0.0000
     0.0000   0.0000

          k =-0.5000 0.9054 0.4269 (  9800 PWs)   bands (ev):

   -13.2609 -13.2609 -13.2564 -13.2564 -13.2435 -13.2435 -13.2419 -13.2419
   -13.2343 -13.2343 -13.2251 -13.2251 -13.2125 -13.2125 -13.1989 -13.1989
   -13.1852 -13.1852 -13.1752 -13.1752  -5.0025  -5.0025  -4.3654  -4.3654
     0.6610   0.6610   1.4305   1.4305   4.0806   4.0806   4.9039   4.9039
     5.3410   5.3410   6.3181   6.3181   6.6195   6.6195   7.3887   7.3887
     9.7135   9.7135  10.0896  10.0896  11.1654  11.1654  11.5648  11.5648
    12.0995  12.0995

     occupation numbers 
     1.0000   1.0000   1.0000   1.0000   1.0000   1.0000   1.0000   1.0000
     1.0000   1.0000   1.0000   1.0000   1.0000   1.0000   1.0000   1.0000
     1.0000   1.0000   1.0000   1.0000   1.0000   1.0000   1.0000   1.0000
     1.0000   1.0000   1.0000   1.0000   1.0000   1.0000   1.0000   1.0000
     1.0000   1.0000   1.0000   1.0000   1.0000   1.0000   1.0000   1.0000
     0.0000   0.0000   0.0000   0.0000   0.0000   0.0000   0.0000   0.0000
     0.0000   0.0000

          k =-0.5000 0.9054 0.8538 (  9808 PWs)   bands (ev):

   -13.2654 -13.2654 -13.2612 -13.2612 -13.2424 -13.2424 -13.2403 -13.2403
   -13.2328 -13.2328 -13.2227 -13.2227 -13.2110 -13.2110 -13.1986 -13.1986
   -13.1855 -13.1855 -13.1747 -13.1747  -4.7766  -4.7766  -4.3655  -4.3655
     0.7959   0.7959   1.5061   1.5061   3.4928   3.4928   4.3748   4.3748
     4.9026   4.9026   5.5645   5.5645   6.3442   6.3442   7.0948   7.0948
    10.4146  10.4146  11.0016  11.0016  11.1981  11.1981  12.4978  12.4978
    12.6823  12.6823

     occupation numbers 
     1.0000   1.0000   1.0000   1.0000   1.0000   1.0000   1.0000   1.0000
     1.0000   1.0000   1.0000   1.0000   1.0000   1.0000   1.0000   1.0000
     1.0000   1.0000   1.0000   1.0000   1.0000   1.0000   1.0000   1.0000
     1.0000   1.0000   1.0000   1.0000   1.0000   1.0000   1.0000   1.0000
     1.0000   1.0000   1.0000   1.0000   1.0000   1.0000   1.0000   1.0000
     0.0000   0.0000   0.0000   0.0000   0.0000   0.0000   0.0000   0.0000
     0.0000   0.0000

          k =-0.5000 0.9054-1.2807 (  9820 PWs)   bands (ev):

   -13.2676 -13.2676 -13.2635 -13.2635 -13.2421 -13.2421 -13.2397 -13.2397
   -13.2321 -13.2321 -13.2217 -13.2217 -13.2100 -13.2100 -13.1984 -13.1984
   -13.1856 -13.1856 -13.1744 -13.1744  -4.5957  -4.5957  -4.4284  -4.4284
     0.7945   0.7945   1.5956   1.5956   3.6151   3.6151   3.7073   3.7073
     4.9714   4.9714   5.0531   5.0531   6.3814   6.3814   6.7349   6.7349
    10.4914  10.4914  11.2698  11.2698  12.1371  12.1371  12.2366  12.2366
    13.5862  13.5863

     occupation numbers 
     1.0000   1.0000   1.0000   1.0000   1.0000   1.0000   1.0000   1.0000
     1.0000   1.0000   1.0000   1.0000   1.0000   1.0000   1.0000   1.0000
     1.0000   1.0000   1.0000   1.0000   1.0000   1.0000   1.0000   1.0000
     1.0000   1.0000   1.0000   1.0000   1.0000   1.0000   1.0000   1.0000
     1.0000   1.0000   1.0000   1.0000   1.0000   1.0000   1.0000   1.0000
     0.0000   0.0000   0.0000   0.0000   0.0000   0.0000   0.0000   0.0000
     0.0000   0.0000

          k =-0.5000-1.3581 0.0000 (  9788 PWs)   bands (ev):

   -13.2588 -13.2588 -13.2588 -13.2588 -13.2411 -13.2411 -13.2411 -13.2411
   -13.2289 -13.2289 -13.2289 -13.2289 -13.2074 -13.2074 -13.2074 -13.2074
   -13.1793 -13.1793 -13.1793 -13.1793  -4.6506  -4.6506  -4.6506  -4.6506
     0.6675   0.6675   0.6675   0.6675   5.3022   5.3022   5.3022   5.3022
     5.9775   5.9775   5.9775   5.9775   7.0680   7.0680   7.0680   7.0680
     9.5795   9.5795   9.5795   9.5795  10.2424  10.2424  10.2424  10.2424
    12.0013  12.0013

     occupation numbers 
     1.0000   1.0000   1.0000   1.0000   1.0000   1.0000   1.0000   1.0000
     1.0000   1.0000   1.0000   1.0000   1.0000   1.0000   1.0000   1.0000
     1.0000   1.0000   1.0000   1.0000   1.0000   1.0000   1.0000   1.0000
     1.0000   1.0000   1.0000   1.0000   1.0000   1.0000   1.0000   1.0000
     1.0000   1.0000   1.0000   1.0000   1.0000   1.0000   1.0000   1.0000
     0.0000   0.0000   0.0000   0.0000   0.0000   0.0000   0.0000   0.0000
     0.0000   0.0000

          k =-0.5000-1.3581 0.4269 (  9776 PWs)   bands (ev):

   -13.2616 -13.2616 -13.2616 -13.2616 -13.2402 -13.2402 -13.2402 -13.2402
   -13.2283 -13.2283 -13.2283 -13.2283 -13.2067 -13.2067 -13.2067 -13.2067
   -13.1792 -13.1792 -13.1792 -13.1792  -4.5943  -4.5943  -4.5943  -4.5943
     0.8046   0.8046   0.8046   0.8046   4.6673   4.6673   4.6673   4.6673
     5.6440   5.6440   5.6440   5.6440   6.8404   6.8404   6.8404   6.8404
     9.9101   9.9101   9.9101   9.9101  11.3279  11.3279  11.3279  11.3279
    12.2339  12.2339

     occupation numbers 
     1.0000   1.0000   1.0000   1.0000   1.0000   1.0000   1.0000   1.0000
     1.0000   1.0000   1.0000   1.0000   1.0000   1.0000   1.0000   1.0000
     1.0000   1.0000   1.0000   1.0000   1.0000   1.0000   1.0000   1.0000
     1.0000   1.0000   1.0000   1.0000   1.0000   1.0000   1.0000   1.0000
     1.0000   1.0000   1.0000   1.0000   1.0000   1.0000   1.0000   1.0000
     0.0000   0.0000   0.0000   0.0000   0.0000   0.0000   0.0000   0.0000
     0.0000   0.0000

          k =-0.5000-1.3581 0.8538 (  9804 PWs)   bands (ev):

   -13.2671 -13.2671 -13.2671 -13.2671 -13.2391 -13.2391 -13.2391 -13.2391
   -13.2268 -13.2268 -13.2268 -13.2268 -13.2051 -13.2051 -13.2051 -13.2051
   -13.1790 -13.1790 -13.1790 -13.1790  -4.4756  -4.4756  -4.4756  -4.4756
     1.1366   1.1366   1.1366   1.1366   3.7645   3.7645   3.7645   3.7645
     4.8586   4.8586   4.8586   4.8586   6.5651   6.5651   6.5651   6.5651
    10.7495  10.7495  10.7495  10.7495  11.9953  11.9953  11.9954  11.9954
    13.7597  13.7597

     occupation numbers 
     1.0000   1.0000   1.0000   1.0000   1.0000   1.0000   1.0000   1.0000
     1.0000   1.0000   1.0000   1.0000   1.0000   1.0000   1.0000   1.0000
     1.0000   1.0000   1.0000   1.0000   1.0000   1.0000   1.0000   1.0000
     1.0000   1.0000   1.0000   1.0000   1.0000   1.0000   1.0000   1.0000
     1.0000   1.0000   1.0000   1.0000   1.0000   1.0000   1.0000   1.0000
     0.0000   0.0000   0.0000   0.0000   0.0000   0.0000   0.0000   0.0000
     0.0000   0.0000

          k =-0.5000-1.3581-1.2807 (  9840 PWs)   bands (ev):

   -13.2698 -13.2698 -13.2698 -13.2698 -13.2388 -13.2388 -13.2388 -13.2388
   -13.2261 -13.2261 -13.2261 -13.2261 -13.2042 -13.2042 -13.2042 -13.2042
   -13.1789 -13.1789 -13.1789 -13.1789  -4.4130  -4.4130  -4.4130  -4.4130
     1.3470   1.3470   1.3470   1.3470   3.4563   3.4563   3.4563   3.4563
     4.3161   4.3161   4.3161   4.3161   6.5959   6.5959   6.5959   6.5959
    10.6249  10.6249  10.6249  10.6249  12.8399  12.8399  12.8399  12.8399
    14.6050  14.6050

     occupation numbers 
     1.0000   1.0000   1.0000   1.0000   1.0000   1.0000   1.0000   1.0000
     1.0000   1.0000   1.0000   1.0000   1.0000   1.0000   1.0000   1.0000
     1.0000   1.0000   1.0000   1.0000   1.0000   1.0000   1.0000   1.0000
     1.0000   1.0000   1.0000   1.0000   1.0000   1.0000   1.0000   1.0000
     1.0000   1.0000   1.0000   1.0000   1.0000   1.0000   1.0000   1.0000
     0.0000   0.0000   0.0000   0.0000   0.0000   0.0000   0.0000   0.0000
     0.0000   0.0000

     highest occupied, lowest unoccupied level (ev):     8.1002    8.6729

!    total energy              =    -827.62041862 Ry
     estimated scf accuracy    <          9.9E-10 Ry

     The total energy is the sum of the following terms:
     one-electron contribution =    -257.00378713 Ry
     hartree contribution      =     179.10990106 Ry
     xc contribution           =    -309.12171636 Ry
     ewald contribution        =    -440.60481620 Ry

     convergence has been achieved in   9 iterations

     Forces acting on atoms (cartesian axes, Ry/au):

     atom    1 type  2   force =     0.00805700    0.00000000   -0.00036073
     atom    2 type  1   force =    -0.00735680    0.00000000   -0.00106134
     atom    3 type  2   force =    -0.00805700    0.00000000   -0.00036073
     atom    4 type  1   force =     0.00735680    0.00000000   -0.00106134
     atom    5 type  2   force =     0.00805700    0.00000000    0.00036073
     atom    6 type  1   force =    -0.00735680    0.00000000    0.00106134
     atom    7 type  2   force =    -0.00805700    0.00000000    0.00036073
     atom    8 type  1   force =     0.00735680   -0.00000000    0.00106134
     The non-local contrib.  to forces
     atom    1 type  2   force =    -0.11829780    0.00000000    0.09593325
     atom    2 type  1   force =     0.37323348    0.00000000    0.26601669
     atom    3 type  2   force =     0.11829780    0.00000000    0.09593325
     atom    4 type  1   force =    -0.37323348    0.00000000    0.26601669
     atom    5 type  2   force =    -0.11829780    0.00000000   -0.09593325
     atom    6 type  1   force =     0.37323348    0.00000000   -0.26601669
     atom    7 type  2   force =     0.11829780    0.00000000   -0.09593325
     atom    8 type  1   force =    -0.37323348    0.00000000   -0.26601669
     The ionic contribution  to forces
     atom    1 type  2   force =     1.53473235    0.00000000   -1.05154455
     atom    2 type  1   force =    -1.03769718    0.00000000   -0.57506129
     atom    3 type  2   force =    -1.53473235    0.00000000   -1.05154455
     atom    4 type  1   force =     1.03769718   -0.00000000   -0.57506129
     atom    5 type  2   force =     1.53473235    0.00000000    1.05154455
     atom    6 type  1   force =    -1.03769718   -0.00000000    0.57506129
     atom    7 type  2   force =    -1.53473235   -0.00000000    1.05154455
     atom    8 type  1   force =     1.03769718    0.00000000    0.57506129
     The local contribution  to forces
     atom    1 type  2   force =    -1.42139346   -0.00000000    0.96583060
     atom    2 type  1   force =     0.66292007   -0.00000000    0.31231092
     atom    3 type  2   force =     1.42139346   -0.00000000    0.96583060
     atom    4 type  1   force =    -0.66292007    0.00000000    0.31231092
     atom    5 type  2   force =    -1.42139346    0.00000000   -0.96583060
     atom    6 type  1   force =     0.66292007    0.00000000   -0.31231092
     atom    7 type  2   force =     1.42139346    0.00000000   -0.96583060
     atom    8 type  1   force =    -0.66292007    0.00000000   -0.31231092
     The core correction contribution to forces
     atom    1 type  2   force =     0.01298719   -0.00000000   -0.01058009
     atom    2 type  1   force =    -0.00575391   -0.00000000   -0.00435554
     atom    3 type  2   force =    -0.01298719   -0.00000000   -0.01058009
     atom    4 type  1   force =     0.00575391    0.00000000   -0.00435554
     atom    5 type  2   force =     0.01298719   -0.00000000    0.01058009
     atom    6 type  1   force =    -0.00575391   -0.00000000    0.00435554
     atom    7 type  2   force =    -0.01298719   -0.00000000    0.01058009
     atom    8 type  1   force =     0.00575391    0.00000000    0.00435554
     The Hubbard contrib.    to forces
     atom    1 type  2   force =     0.00000000    0.00000000    0.00000000
     atom    2 type  1   force =     0.00000000    0.00000000    0.00000000
     atom    3 type  2   force =     0.00000000    0.00000000    0.00000000
     atom    4 type  1   force =     0.00000000    0.00000000    0.00000000
     atom    5 type  2   force =     0.00000000    0.00000000    0.00000000
     atom    6 type  1   force =     0.00000000    0.00000000    0.00000000
     atom    7 type  2   force =     0.00000000    0.00000000    0.00000000
     atom    8 type  1   force =     0.00000000    0.00000000    0.00000000
     The SCF correction term to forces
     atom    1 type  2   force =     0.00002872    0.00000000    0.00000007
     atom    2 type  1   force =    -0.00005926   -0.00000000    0.00002788
     atom    3 type  2   force =    -0.00002872    0.00000000    0.00000007
     atom    4 type  1   force =     0.00005926    0.00000000    0.00002788
     atom    5 type  2   force =     0.00002872   -0.00000000   -0.00000007
     atom    6 type  1   force =    -0.00005926    0.00000000   -0.00002788
     atom    7 type  2   force =    -0.00002872   -0.00000000   -0.00000007
     atom    8 type  1   force =     0.00005926    0.00000000   -0.00002788

     Total force =     0.021936     Total SCF correction =     0.000143

     Writing output data file ./tmp/SnSe_pnma.save/

     init_run     :     11.70s CPU     11.25s WALL (       1 calls)
     electrons    :    269.23s CPU    238.81s WALL (       1 calls)
     forces       :      7.30s CPU      6.75s WALL (       1 calls)

     Called by init_run:
     wfcinit      :      7.04s CPU      6.08s WALL (       1 calls)
     wfcinit:atom :      0.10s CPU      0.07s WALL (       8 calls)
     wfcinit:wfcr :      6.26s CPU      5.57s WALL (       8 calls)
     potinit      :      1.22s CPU      1.34s WALL (       1 calls)
     hinit0       :      2.26s CPU      2.28s WALL (       1 calls)

     Called by electrons:
     c_bands      :    213.42s CPU    183.23s WALL (       9 calls)
     sum_band     :     41.16s CPU     37.58s WALL (       9 calls)
     v_of_rho     :      3.66s CPU      4.41s WALL (      10 calls)
     v_h          :      0.24s CPU      0.25s WALL (      10 calls)
     v_xc         :      3.76s CPU      4.54s WALL (      11 calls)
     newd         :     11.37s CPU     14.44s WALL (      10 calls)
     mix_rho      :      0.58s CPU      0.57s WALL (       9 calls)

     Called by c_bands:
     init_us_2    :      2.40s CPU      1.75s WALL (     160 calls)
     cegterg      :    167.80s CPU    142.99s WALL (      72 calls)

     Called by sum_band:
     sum_band:wei :      0.00s CPU      0.00s WALL (       9 calls)
     sum_band:loo :     28.09s CPU     24.94s WALL (       9 calls)
     sum_band:buf :      0.21s CPU      0.14s WALL (      72 calls)
     sum_band:ini :      1.12s CPU      0.78s WALL (      72 calls)
     sum_band:cal :      5.13s CPU      5.64s WALL (      72 calls)
     sum_band:bec :      0.01s CPU      0.01s WALL (      72 calls)
     addusdens    :      8.88s CPU      9.03s WALL (       9 calls)
     addusd:skk   :      0.03s CPU      0.05s WALL (      18 calls)
     addusd:dgemm :      3.48s CPU      3.49s WALL (      18 calls)
     addusd:qvan2 :      4.89s CPU      4.28s WALL (      18 calls)

     Called by *egterg:
     cdiaghg      :      6.36s CPU      8.10s WALL (     323 calls)
     cegterg:over :     17.49s CPU     18.59s WALL (     251 calls)
     cegterg:upda :      5.82s CPU      2.05s WALL (     251 calls)
     cegterg:last :     10.46s CPU      2.58s WALL (     152 calls)
     h_psi        :    110.25s CPU     97.07s WALL (     331 calls)
     s_psi        :     10.58s CPU      2.68s WALL (     331 calls)
     g_psi        :      0.96s CPU      0.68s WALL (     251 calls)

     Called by h_psi:
     h_psi:calbec :     16.51s CPU     17.98s WALL (     331 calls)
     vloc_psi     :     82.40s CPU     74.95s WALL (     331 calls)
     add_vuspsi   :     10.58s CPU      2.76s WALL (     331 calls)

     General routines
     calbec       :     23.51s CPU     25.09s WALL (     435 calls)
     fft          :      1.72s CPU      1.70s WALL (     139 calls)
     ffts         :      0.10s CPU      0.09s WALL (      19 calls)
     fftw         :     87.54s CPU     78.47s WALL (   23212 calls)
     interpolate  :      0.21s CPU      0.21s WALL (      10 calls)

     Parallel routines

     PWSCF        :   4m48.44s CPU   4m17.15s WALL


   This run was terminated on:  19: 3:48   5May2026            

=------------------------------------------------------------------------------=
   JOB DONE.
=------------------------------------------------------------------------------=
