
     Program PWSCF v.6.7MaX starts on  5May2026 at 19:18:15 

     This program is part of the open-source Quantum ESPRESSO suite
     for quantum simulation of materials; please cite
         "P. Giannozzi et al., J. Phys.:Condens. Matter 21 395502 (2009);
         "P. Giannozzi et al., J. Phys.:Condens. Matter 29 465901 (2017);
          URL http://www.quantum-espresso.org", 
     in publications or presentations arising from this work. More details at
     http://www.quantum-espresso.org/quote

     Parallel version (MPI), running on     4 processors

     MPI processes distributed on     1 nodes
     K-points division:     npool     =       4
     Waiting for input...
     Reading input from standard input

     Current dimensions of program PWSCF are:
     Max number of different atomic species (ntypx) = 10
     Max number of k-points (npk) =  40000
     Max angular momentum in pseudopotentials (lmaxx) =  3

     Subspace diagonalization in iterative solution of the eigenvalue problem:
     a serial algorithm will be used


     G-vector sticks info
     --------------------
     sticks:   dense  smooth     PW     G-vecs:    dense   smooth      PW
     Sum         669     273    109                 8475     2147     535



     bravais-lattice index     =            8
     lattice parameter (alat)  =      21.4862  a.u.
     unit-cell volume          =    1425.7436 (a.u.)^3
     number of atoms/cell      =            8
     number of atomic types    =            2
     number of electrons       =        80.00
     number of Kohn-Sham states=           50
     kinetic-energy cutoff     =       5.0000  Ry
     charge density cutoff     =      50.0000  Ry
     scf convergence threshold =      1.0E-08
     mixing beta               =       0.7000
     number of iterations used =            8  plain     mixing
     Exchange-correlation= SLA  PW   PBE  PBE
                           (   1   4   3   4   0   0   0)

     celldm(1)=  21.486186  celldm(2)=   0.368162  celldm(3)=   0.390413
     celldm(4)=   0.000000  celldm(5)=   0.000000  celldm(6)=   0.000000

     crystal axes: (cart. coord. in units of alat)
               a(1) = (   1.000000   0.000000   0.000000 )  
               a(2) = (   0.000000   0.368162   0.000000 )  
               a(3) = (   0.000000   0.000000   0.390413 )  

     reciprocal axes: (cart. coord. in units 2 pi/alat)
               b(1) = (  1.000000  0.000000  0.000000 )  
               b(2) = (  0.000000  2.716197  0.000000 )  
               b(3) = (  0.000000  0.000000  2.561388 )  


     PseudoPot. # 1 for Sn read from file:
     ../pseudo/Sn_pbe_v1.uspp.F.UPF
     MD5 check sum: 4cf58ce39ec5d5d420df3dd08604eb00
     Pseudo is Ultrasoft + core correction, Zval = 14.0
     Generated by new atomic code, or converted to UPF format
     Using radial grid of  891 points,  6 beta functions with: 
                l(1) =   0
                l(2) =   0
                l(3) =   1
                l(4) =   1
                l(5) =   2
                l(6) =   2
     Q(r) pseudized with  6 coefficients,  rinner =    1.200   1.200   1.200
                                                       1.200   1.200

     PseudoPot. # 2 for Se read from file:
     ../pseudo/Se_pbe_v1.uspp.F.UPF
     MD5 check sum: 1b3568f3a8ae88f9a2a0ad0698632c85
     Pseudo is Ultrasoft + core correction, Zval =  6.0
     Generated by new atomic code, or converted to UPF format
     Using radial grid of  877 points,  6 beta functions with: 
                l(1) =   0
                l(2) =   0
                l(3) =   1
                l(4) =   1
                l(5) =   2
                l(6) =   2
     Q(r) pseudized with  8 coefficients,  rinner =    1.300   1.300   1.300
                                                       1.300   1.300

     atomic species   valence    mass     pseudopotential
        Sn            14.00   118.71000     Sn( 1.00)
        Se             6.00    78.97100     Se( 1.00)

      8 Sym. Ops., with inversion, found ( 6 have fractional translation)


                                    s                        frac. trans.

      isym =  1     identity                                     

 cryst.   s( 1) = (     1          0          0      )
                  (     0          1          0      )
                  (     0          0          1      )

 cart.    s( 1) = (  1.0000000  0.0000000  0.0000000 )
                  (  0.0000000  1.0000000  0.0000000 )
                  (  0.0000000  0.0000000  1.0000000 )


      isym =  2     180 deg rotation - cart. axis [0,0,1]        

 cryst.   s( 2) = (    -1          0          0      )    f =(  0.5000000 )
                  (     0         -1          0      )       (  0.0000000 )
                  (     0          0          1      )       (  0.5000000 )

 cart.    s( 2) = ( -1.0000000  0.0000000  0.0000000 )    f =(  0.5000000 )
                  (  0.0000000 -1.0000000  0.0000000 )       (  0.0000000 )
                  (  0.0000000  0.0000000  1.0000000 )       (  0.1952067 )


      isym =  3     180 deg rotation - cart. axis [0,1,0]        

 cryst.   s( 3) = (    -1          0          0      )    f =(  0.0000000 )
                  (     0          1          0      )       ( -0.5000000 )
                  (     0          0         -1      )       (  0.0000000 )

 cart.    s( 3) = ( -1.0000000  0.0000000  0.0000000 )    f =(  0.0000000 )
                  (  0.0000000  1.0000000  0.0000000 )       ( -0.1840809 )
                  (  0.0000000  0.0000000 -1.0000000 )       (  0.0000000 )


      isym =  4     180 deg rotation - cart. axis [1,0,0]        

 cryst.   s( 4) = (     1          0          0      )    f =(  0.5000000 )
                  (     0         -1          0      )       (  0.5000000 )
                  (     0          0         -1      )       (  0.5000000 )

 cart.    s( 4) = (  1.0000000  0.0000000  0.0000000 )    f =(  0.5000000 )
                  (  0.0000000 -1.0000000  0.0000000 )       (  0.1840809 )
                  (  0.0000000  0.0000000 -1.0000000 )       (  0.1952067 )


      isym =  5     inversion                                    

 cryst.   s( 5) = (    -1          0          0      )
                  (     0         -1          0      )
                  (     0          0         -1      )

 cart.    s( 5) = ( -1.0000000  0.0000000  0.0000000 )
                  (  0.0000000 -1.0000000  0.0000000 )
                  (  0.0000000  0.0000000 -1.0000000 )


      isym =  6     inv. 180 deg rotation - cart. axis [0,0,1]   

 cryst.   s( 6) = (     1          0          0      )    f =(  0.5000000 )
                  (     0          1          0      )       (  0.0000000 )
                  (     0          0         -1      )       (  0.5000000 )

 cart.    s( 6) = (  1.0000000  0.0000000  0.0000000 )    f =(  0.5000000 )
                  (  0.0000000  1.0000000  0.0000000 )       (  0.0000000 )
                  (  0.0000000  0.0000000 -1.0000000 )       (  0.1952067 )


      isym =  7     inv. 180 deg rotation - cart. axis [0,1,0]   

 cryst.   s( 7) = (     1          0          0      )    f =(  0.0000000 )
                  (     0         -1          0      )       (  0.5000000 )
                  (     0          0          1      )       (  0.0000000 )

 cart.    s( 7) = (  1.0000000  0.0000000  0.0000000 )    f =(  0.0000000 )
                  (  0.0000000 -1.0000000  0.0000000 )       (  0.1840809 )
                  (  0.0000000  0.0000000  1.0000000 )       (  0.0000000 )


      isym =  8     inv. 180 deg rotation - cart. axis [1,0,0]   

 cryst.   s( 8) = (    -1          0          0      )    f =(  0.5000000 )
                  (     0          1          0      )       ( -0.5000000 )
                  (     0          0          1      )       (  0.5000000 )

 cart.    s( 8) = ( -1.0000000  0.0000000  0.0000000 )    f =(  0.5000000 )
                  (  0.0000000  1.0000000  0.0000000 )       ( -0.1840809 )
                  (  0.0000000  0.0000000  1.0000000 )       (  0.1952067 )


     point group D_2h (mmm) 
     there are  8 classes
     the character table:

       E     C2    C2'   C2''  i     s_v   s_v'  s_v''
A_g    1.00  1.00  1.00  1.00  1.00  1.00  1.00  1.00
B_1g   1.00  1.00 -1.00 -1.00  1.00  1.00 -1.00 -1.00
B_2g   1.00 -1.00  1.00 -1.00  1.00 -1.00  1.00 -1.00
B_3g   1.00 -1.00 -1.00  1.00  1.00 -1.00 -1.00  1.00
A_u    1.00  1.00  1.00  1.00 -1.00 -1.00 -1.00 -1.00
B_1u   1.00  1.00 -1.00 -1.00 -1.00 -1.00  1.00  1.00
B_2u   1.00 -1.00  1.00 -1.00 -1.00  1.00 -1.00  1.00
B_3u   1.00 -1.00 -1.00  1.00 -1.00  1.00  1.00 -1.00

     the symmetry operations in each class and the name of the first element:

     E        1
          identity                                               
     C2       2
          180 deg rotation - cart. axis [0,0,1]                  
     C2'      4
          180 deg rotation - cart. axis [1,0,0]                  
     C2''     3
          180 deg rotation - cart. axis [0,1,0]                  
     i        5
          inversion                                              
     s_v      6
          inv. 180 deg rotation - cart. axis [0,0,1]             
     s_v'     8
          inv. 180 deg rotation - cart. axis [1,0,0]             
     s_v''    7
          inv. 180 deg rotation - cart. axis [0,1,0]             

   Cartesian axes

     site n.     atom                  positions (alat units)
         1           Se  tau(   1) = (   0.8555000   0.0920405   0.1884916  )
         2           Sn  tau(   2) = (   0.1187000   0.0920405   0.0385728  )
         3           Se  tau(   3) = (   0.6445000   0.2761214   0.3836983  )
         4           Sn  tau(   4) = (   0.3813000   0.2761214   0.2337795  )
         5           Se  tau(   5) = (   0.3555000   0.0920405   0.0067151  )
         6           Sn  tau(   6) = (   0.6187000   0.0920405   0.1566338  )
         7           Se  tau(   7) = (   0.1445000   0.2761214   0.2019218  )
         8           Sn  tau(   8) = (   0.8813000   0.2761214   0.3518405  )

   Crystallographic axes

     site n.     atom                  positions (cryst. coord.)
         1           Se  tau(   1) = (  0.8555000  0.2500000  0.4828000  )
         2           Sn  tau(   2) = (  0.1187000  0.2500000  0.0988000  )
         3           Se  tau(   3) = (  0.6445000  0.7500000  0.9828000  )
         4           Sn  tau(   4) = (  0.3813000  0.7500000  0.5988000  )
         5           Se  tau(   5) = (  0.3555000  0.2500000  0.0172000  )
         6           Sn  tau(   6) = (  0.6187000  0.2500000  0.4012000  )
         7           Se  tau(   7) = (  0.1445000  0.7500000  0.5172000  )
         8           Sn  tau(   8) = (  0.8813000  0.7500000  0.9012000  )

     number of k points=    32
                       cart. coord. in units 2pi/alat
        k(    1) = (   0.0000000   0.0000000   0.0000000), wk =   0.0277778
        k(    2) = (   0.0000000   0.0000000   0.4268979), wk =   0.0555556
        k(    3) = (   0.0000000   0.0000000   0.8537959), wk =   0.0555556
        k(    4) = (   0.0000000   0.0000000  -1.2806938), wk =   0.0277778
        k(    5) = (   0.0000000   0.4526995   0.0000000), wk =   0.0555556
        k(    6) = (   0.0000000   0.4526995   0.4268979), wk =   0.1111111
        k(    7) = (   0.0000000   0.4526995   0.8537959), wk =   0.1111111
        k(    8) = (   0.0000000   0.4526995  -1.2806938), wk =   0.0555556
        k(    9) = (   0.0000000   0.9053989   0.0000000), wk =   0.0555556
        k(   10) = (   0.0000000   0.9053989   0.4268979), wk =   0.1111111
        k(   11) = (   0.0000000   0.9053989   0.8537959), wk =   0.1111111
        k(   12) = (   0.0000000   0.9053989  -1.2806938), wk =   0.0555556
        k(   13) = (   0.0000000  -1.3580984   0.0000000), wk =   0.0277778
        k(   14) = (   0.0000000  -1.3580984   0.4268979), wk =   0.0555556
        k(   15) = (   0.0000000  -1.3580984   0.8537959), wk =   0.0555556
        k(   16) = (   0.0000000  -1.3580984  -1.2806938), wk =   0.0277778
        k(   17) = (  -0.5000000   0.0000000   0.0000000), wk =   0.0277778
        k(   18) = (  -0.5000000   0.0000000   0.4268979), wk =   0.0555556
        k(   19) = (  -0.5000000   0.0000000   0.8537959), wk =   0.0555556
        k(   20) = (  -0.5000000   0.0000000  -1.2806938), wk =   0.0277778
        k(   21) = (  -0.5000000   0.4526995   0.0000000), wk =   0.0555556
        k(   22) = (  -0.5000000   0.4526995   0.4268979), wk =   0.1111111
        k(   23) = (  -0.5000000   0.4526995   0.8537959), wk =   0.1111111
        k(   24) = (  -0.5000000   0.4526995  -1.2806938), wk =   0.0555556
        k(   25) = (  -0.5000000   0.9053989   0.0000000), wk =   0.0555556
        k(   26) = (  -0.5000000   0.9053989   0.4268979), wk =   0.1111111
        k(   27) = (  -0.5000000   0.9053989   0.8537959), wk =   0.1111111
        k(   28) = (  -0.5000000   0.9053989  -1.2806938), wk =   0.0555556
        k(   29) = (  -0.5000000  -1.3580984   0.0000000), wk =   0.0277778
        k(   30) = (  -0.5000000  -1.3580984   0.4268979), wk =   0.0555556
        k(   31) = (  -0.5000000  -1.3580984   0.8537959), wk =   0.0555556
        k(   32) = (  -0.5000000  -1.3580984  -1.2806938), wk =   0.0277778

                       cryst. coord.
        k(    1) = (   0.0000000   0.0000000   0.0000000), wk =   0.0277778
        k(    2) = (   0.0000000   0.0000000   0.1666667), wk =   0.0555556
        k(    3) = (   0.0000000   0.0000000   0.3333333), wk =   0.0555556
        k(    4) = (   0.0000000   0.0000000  -0.5000000), wk =   0.0277778
        k(    5) = (   0.0000000   0.1666667   0.0000000), wk =   0.0555556
        k(    6) = (   0.0000000   0.1666667   0.1666667), wk =   0.1111111
        k(    7) = (   0.0000000   0.1666667   0.3333333), wk =   0.1111111
        k(    8) = (   0.0000000   0.1666667  -0.5000000), wk =   0.0555556
        k(    9) = (   0.0000000   0.3333333   0.0000000), wk =   0.0555556
        k(   10) = (   0.0000000   0.3333333   0.1666667), wk =   0.1111111
        k(   11) = (   0.0000000   0.3333333   0.3333333), wk =   0.1111111
        k(   12) = (   0.0000000   0.3333333  -0.5000000), wk =   0.0555556
        k(   13) = (   0.0000000  -0.5000000   0.0000000), wk =   0.0277778
        k(   14) = (   0.0000000  -0.5000000   0.1666667), wk =   0.0555556
        k(   15) = (   0.0000000  -0.5000000   0.3333333), wk =   0.0555556
        k(   16) = (   0.0000000  -0.5000000  -0.5000000), wk =   0.0277778
        k(   17) = (  -0.5000000   0.0000000   0.0000000), wk =   0.0277778
        k(   18) = (  -0.5000000   0.0000000   0.1666667), wk =   0.0555556
        k(   19) = (  -0.5000000   0.0000000   0.3333333), wk =   0.0555556
        k(   20) = (  -0.5000000   0.0000000  -0.5000000), wk =   0.0277778
        k(   21) = (  -0.5000000   0.1666667   0.0000000), wk =   0.0555556
        k(   22) = (  -0.5000000   0.1666667   0.1666667), wk =   0.1111111
        k(   23) = (  -0.5000000   0.1666667   0.3333333), wk =   0.1111111
        k(   24) = (  -0.5000000   0.1666667  -0.5000000), wk =   0.0555556
        k(   25) = (  -0.5000000   0.3333333   0.0000000), wk =   0.0555556
        k(   26) = (  -0.5000000   0.3333333   0.1666667), wk =   0.1111111
        k(   27) = (  -0.5000000   0.3333333   0.3333333), wk =   0.1111111
        k(   28) = (  -0.5000000   0.3333333  -0.5000000), wk =   0.0555556
        k(   29) = (  -0.5000000  -0.5000000   0.0000000), wk =   0.0277778
        k(   30) = (  -0.5000000  -0.5000000   0.1666667), wk =   0.0555556
        k(   31) = (  -0.5000000  -0.5000000   0.3333333), wk =   0.0555556
        k(   32) = (  -0.5000000  -0.5000000  -0.5000000), wk =   0.0277778

     Dense  grid:     8475 G-vectors     FFT dimensions: (  50,  18,  20)

     Smooth grid:     2147 G-vectors     FFT dimensions: (  32,  12,  12)

     Dynamical RAM for                 wfc:       0.21 MB

     Dynamical RAM for     wfc (w. buffer):       1.85 MB

     Dynamical RAM for           str. fact:       0.26 MB

     Dynamical RAM for           local pot:       0.00 MB

     Dynamical RAM for          nlocal pot:       0.59 MB

     Dynamical RAM for                qrad:       1.14 MB

     Dynamical RAM for          rho,v,vnew:       0.80 MB

     Dynamical RAM for               rhoin:       0.27 MB

     Dynamical RAM for            rho*nmix:       2.07 MB

     Dynamical RAM for           G-vectors:       0.50 MB

     Dynamical RAM for          h,s,v(r/c):       0.46 MB

     Dynamical RAM for          <psi|beta>:       0.11 MB

     Dynamical RAM for                 psi:       0.41 MB

     Dynamical RAM for                hpsi:       0.41 MB

     Dynamical RAM for                spsi:       0.41 MB

     Dynamical RAM for      wfcinit/wfcrot:       0.49 MB

     Dynamical RAM for           addusdens:       6.24 MB

     Dynamical RAM for          addusforce:       6.41 MB

     Estimated static dynamical RAM per process >       8.55 MB

     Estimated max dynamical RAM per process >      14.96 MB

     Estimated total dynamical RAM >      59.85 MB

     Check: negative core charge=   -0.001629

     Initial potential from superposition of free atoms

     starting charge   75.99954, renormalised to   80.00000

     negative rho (up, down):  1.219E-03 0.000E+00
     Starting wfcs are   52 randomized atomic wfcs

     total cpu time spent up to now is        0.8 secs

     Self-consistent Calculation

     iteration #  1     ecut=     5.00 Ry     beta= 0.70
     Davidson diagonalization with overlap
     ethr =  1.00E-02,  avg # of iterations =  5.6

     total cpu time spent up to now is        3.9 secs

     total energy              =    -597.50909995 Ry
     estimated scf accuracy    <     200.81432890 Ry

     iteration #  2     ecut=     5.00 Ry     beta= 0.70
     Davidson diagonalization with overlap
     ethr =  1.00E-02,  avg # of iterations =  4.1

     negative rho (up, down):  1.026E-03 0.000E+00

     total cpu time spent up to now is        6.3 secs

     total energy              =    -663.96578707 Ry
     estimated scf accuracy    <      96.93854786 Ry

     iteration #  3     ecut=     5.00 Ry     beta= 0.70
     Davidson diagonalization with overlap
     ethr =  1.00E-02,  avg # of iterations =  5.0

     negative rho (up, down):  6.595E-05 0.000E+00

     total cpu time spent up to now is        8.7 secs

     total energy              =    -678.79987935 Ry
     estimated scf accuracy    <       5.66433050 Ry

     iteration #  4     ecut=     5.00 Ry     beta= 0.70
     Davidson diagonalization with overlap
     ethr =  7.08E-03,  avg # of iterations =  2.0

     negative rho (up, down):  2.896E-04 0.000E+00

     total cpu time spent up to now is       10.2 secs

     total energy              =    -679.78235682 Ry
     estimated scf accuracy    <       2.19450678 Ry

     iteration #  5     ecut=     5.00 Ry     beta= 0.70
     Davidson diagonalization with overlap
     ethr =  2.74E-03,  avg # of iterations =  2.0

     negative rho (up, down):  9.446E-04 0.000E+00

     total cpu time spent up to now is       11.2 secs

     total energy              =    -680.29115461 Ry
     estimated scf accuracy    <       0.20706678 Ry

     iteration #  6     ecut=     5.00 Ry     beta= 0.70
     Davidson diagonalization with overlap
     ethr =  2.59E-04,  avg # of iterations =  2.0

     negative rho (up, down):  9.417E-04 0.000E+00

     total cpu time spent up to now is       12.1 secs

     total energy              =    -680.30501868 Ry
     estimated scf accuracy    <       0.04556658 Ry

     iteration #  7     ecut=     5.00 Ry     beta= 0.70
     Davidson diagonalization with overlap
     ethr =  5.70E-05,  avg # of iterations =  2.2

     negative rho (up, down):  9.760E-04 0.000E+00

     total cpu time spent up to now is       13.2 secs

     total energy              =    -680.31538374 Ry
     estimated scf accuracy    <       0.00285780 Ry

     iteration #  8     ecut=     5.00 Ry     beta= 0.70
     Davidson diagonalization with overlap
     ethr =  3.57E-06,  avg # of iterations =  4.9

     negative rho (up, down):  1.098E-03 0.000E+00

     total cpu time spent up to now is       14.5 secs

     total energy              =    -680.31594412 Ry
     estimated scf accuracy    <       0.00005116 Ry

     iteration #  9     ecut=     5.00 Ry     beta= 0.70
     Davidson diagonalization with overlap
     ethr =  6.40E-08,  avg # of iterations =  2.6

     negative rho (up, down):  1.114E-03 0.000E+00

     total cpu time spent up to now is       15.7 secs

     total energy              =    -680.31595857 Ry
     estimated scf accuracy    <       0.00001668 Ry

     iteration # 10     ecut=     5.00 Ry     beta= 0.70
     Davidson diagonalization with overlap
     ethr =  2.08E-08,  avg # of iterations =  2.1

     negative rho (up, down):  1.117E-03 0.000E+00

     total cpu time spent up to now is       16.9 secs

     total energy              =    -680.31596258 Ry
     estimated scf accuracy    <       0.00000272 Ry

     iteration # 11     ecut=     5.00 Ry     beta= 0.70
     Davidson diagonalization with overlap
     ethr =  3.40E-09,  avg # of iterations =  1.8

     negative rho (up, down):  1.119E-03 0.000E+00

     total cpu time spent up to now is       18.0 secs

     End of self-consistent calculation

          k = 0.0000 0.0000 0.0000 (   255 PWs)   bands (ev):

   -28.7847 -28.5969 -28.5666 -28.3391  -3.7860  -3.6518  -3.4467  -2.9238
    -1.9361  -1.8060  -1.7981  -1.5292  -1.2630  -1.2536  -1.0716  -0.9681
    -0.8314  -0.6125  -0.2391  -0.0202   4.7316   5.4630   7.0469   8.0657
     8.1505   8.8058   8.9727   8.9777   8.9792   9.0551   9.2062   9.3711
     9.5581   9.9309  10.0739  10.5877  10.8257  10.8813  11.1280  11.2277
    11.3147  11.3458  11.4415  11.4692  11.5833  12.4034  12.5552  12.5742
    12.8039  12.8912

     occupation numbers 
     1.0000   1.0000   1.0000   1.0000   1.0000   1.0000   1.0000   1.0000
     1.0000   1.0000   1.0000   1.0000   1.0000   1.0000   1.0000   1.0000
     1.0000   1.0000   1.0000   1.0000   1.0000   1.0000   1.0000   1.0000
     1.0000   1.0000   1.0000   1.0000   1.0000   1.0000   1.0000   1.0000
     1.0000   1.0000   1.0000   1.0000   1.0000   1.0000   1.0000   1.0000
     0.0000   0.0000   0.0000   0.0000   0.0000   0.0000   0.0000   0.0000
     0.0000   0.0000

          k = 0.0000 0.0000 0.4269 (   264 PWs)   bands (ev):

   -29.1864 -28.6650 -28.5765 -28.4715  -3.8884  -3.7576  -3.6726  -3.1603
    -2.0576  -1.8012  -1.6744  -1.4361  -1.4232  -1.3153  -1.1303  -0.9850
    -0.6153  -0.5210  -0.1386  -0.0044   3.8124   4.9753   6.0920   7.0971
     7.2146   7.3554   7.8448   8.1902   8.4476   8.6697   8.8815   9.1108
     9.1109   9.3089   9.3993   9.4113  10.0507  10.7584  10.8243  11.0480
    11.3611  11.5876  11.6471  12.0848  12.1739  12.4149  12.6509  12.8903
    13.3911  13.5129

     occupation numbers 
     1.0000   1.0000   1.0000   1.0000   1.0000   1.0000   1.0000   1.0000
     1.0000   1.0000   1.0000   1.0000   1.0000   1.0000   1.0000   1.0000
     1.0000   1.0000   1.0000   1.0000   1.0000   1.0000   1.0000   1.0000
     1.0000   1.0000   1.0000   1.0000   1.0000   1.0000   1.0000   1.0000
     1.0000   1.0000   1.0000   1.0000   1.0000   1.0000   1.0000   1.0000
     0.0000   0.0000   0.0000   0.0000   0.0000   0.0000   0.0000   0.0000
     0.0000   0.0000

          k = 0.0000 0.0000 0.8538 (   276 PWs)   bands (ev):

   -29.2131 -28.8991 -28.8342 -28.7183  -4.0694  -3.9751  -3.7981  -3.5269
    -2.0717  -1.9020  -1.7304  -1.4892  -1.4637  -1.3804  -1.2226  -1.1944
    -0.1592  -0.1562   0.1699   0.2076   3.8453   4.8713   5.4367   6.2523
     6.4082   6.4846   6.7010   6.7178   6.7339   7.0187   7.6022   8.0772
     8.2664   8.4684   8.7904   8.8164   8.9980   9.6876   9.9357  10.0179
    10.8169  10.9416  11.5608  11.6616  12.3111  12.6268  13.1079  13.1180
    13.1932  13.4422

     occupation numbers 
     1.0000   1.0000   1.0000   1.0000   1.0000   1.0000   1.0000   1.0000
     1.0000   1.0000   1.0000   1.0000   1.0000   1.0000   1.0000   1.0000
     1.0000   1.0000   1.0000   1.0000   1.0000   1.0000   1.0000   1.0000
     1.0000   1.0000   1.0000   1.0000   1.0000   1.0000   1.0000   1.0000
     1.0000   1.0000   1.0000   1.0000   1.0000   1.0000   1.0000   1.0000
     0.0000   0.0000   0.0000   0.0000   0.0000   0.0000   0.0000   0.0000
     0.0000   0.0000

          k = 0.0000 0.0000-1.2807 (   286 PWs)   bands (ev):

   -29.2098 -29.2098 -29.0253 -29.0253  -4.1671  -4.1671  -3.7787  -3.7787
    -2.0391  -2.0391  -1.5525  -1.5525  -1.4624  -1.4624  -1.2935  -1.2935
    -0.0078  -0.0078   0.2241   0.2241   4.5438   4.5438   4.6488   4.6488
     5.7125   5.7125   6.2346   6.2346   6.7100   6.7100   6.8332   6.8332
     7.5672   7.5672   7.6404   7.6404   8.7390   8.7390   8.8797   8.8797
    10.1503  10.1503  10.5960  10.5960  12.1528  12.1528  12.8891  12.8891
    13.1348  13.1348

     occupation numbers 
     1.0000   1.0000   1.0000   1.0000   1.0000   1.0000   1.0000   1.0000
     1.0000   1.0000   1.0000   1.0000   1.0000   1.0000   1.0000   1.0000
     1.0000   1.0000   1.0000   1.0000   1.0000   1.0000   1.0000   1.0000
     1.0000   1.0000   1.0000   1.0000   1.0000   1.0000   1.0000   1.0000
     1.0000   1.0000   1.0000   1.0000   1.0000   1.0000   1.0000   1.0000
     0.0000   0.0000   0.0000   0.0000   0.0000   0.0000   0.0000   0.0000
     0.0000   0.0000

          k = 0.0000 0.4527 0.0000 (   257 PWs)   bands (ev):

   -28.7798 -28.6202 -28.4935 -28.4360  -3.8901  -3.7054  -3.6035  -3.1958
    -2.1015  -1.6815  -1.6450  -1.4167  -1.3695  -1.2107  -1.1439  -1.0609
    -0.4629  -0.4150  -0.0607   0.0433   6.0637   6.1270   7.1873   7.9124
     7.9615   8.1098   8.4082   8.5294   8.6499   8.9373   8.9933   9.1189
     9.1550   9.4032   9.5221   9.7703   9.8155  10.2846  10.6763  10.7490
    11.0040  11.2781  11.6853  11.9570  12.0377  13.1144  13.3890  13.5461
    13.5627  13.7699

     occupation numbers 
     1.0000   1.0000   1.0000   1.0000   1.0000   1.0000   1.0000   1.0000
     1.0000   1.0000   1.0000   1.0000   1.0000   1.0000   1.0000   1.0000
     1.0000   1.0000   1.0000   1.0000   1.0000   1.0000   1.0000   1.0000
     1.0000   1.0000   1.0000   1.0000   1.0000   1.0000   1.0000   1.0000
     1.0000   1.0000   1.0000   1.0000   1.0000   1.0000   1.0000   1.0000
     0.0000   0.0000   0.0000   0.0000   0.0000   0.0000   0.0000   0.0000
     0.0000   0.0000

          k = 0.0000 0.4527 0.4269 (   264 PWs)   bands (ev):

   -28.7786 -28.7646 -28.7054 -28.5416  -3.8918  -3.7924  -3.7019  -3.2561
    -2.1302  -1.9303  -1.6138  -1.4820  -1.3939  -1.2952  -1.1871  -1.1570
    -0.4591  -0.3301  -0.0036   0.0443   5.9615   6.3385   6.6185   6.8348
     7.1622   7.3767   7.4079   7.7456   8.2241   8.5686   8.8558   9.0510
     9.1526   9.2988   9.5726   9.7543   9.9786  10.1841  10.5402  10.6617
    11.1530  11.4374  11.5363  11.8405  12.0805  12.3728  12.3806  12.6668
    13.1167  13.5662

     occupation numbers 
     1.0000   1.0000   1.0000   1.0000   1.0000   1.0000   1.0000   1.0000
     1.0000   1.0000   1.0000   1.0000   1.0000   1.0000   1.0000   1.0000
     1.0000   1.0000   1.0000   1.0000   1.0000   1.0000   1.0000   1.0000
     1.0000   1.0000   1.0000   1.0000   1.0000   1.0000   1.0000   1.0000
     1.0000   1.0000   1.0000   1.0000   1.0000   1.0000   1.0000   1.0000
     0.0000   0.0000   0.0000   0.0000   0.0000   0.0000   0.0000   0.0000
     0.0000   0.0000

          k = 0.0000 0.4527 0.8538 (   268 PWs)   bands (ev):

   -28.9602 -28.8050 -28.6707 -28.6243  -3.9803  -3.8876  -3.7503  -3.4180
    -2.0523  -2.0042  -1.7460  -1.5775  -1.3957  -1.3693  -1.3490  -1.2224
    -0.1574  -0.1247   0.1285   0.1718   5.7136   5.7249   6.1507   6.5037
     6.6328   6.6703   7.1196   7.4090   7.5471   8.0067   8.5510   8.5541
     8.6504   8.6969   9.1071   9.6865   9.9674  10.0101  10.3725  10.7236
    11.0135  11.5778  12.0104  12.2564  12.3706  12.7338  13.0014  13.0591
    13.2002  13.5264

     occupation numbers 
     1.0000   1.0000   1.0000   1.0000   1.0000   1.0000   1.0000   1.0000
     1.0000   1.0000   1.0000   1.0000   1.0000   1.0000   1.0000   1.0000
     1.0000   1.0000   1.0000   1.0000   1.0000   1.0000   1.0000   1.0000
     1.0000   1.0000   1.0000   1.0000   1.0000   1.0000   1.0000   1.0000
     1.0000   1.0000   1.0000   1.0000   1.0000   1.0000   1.0000   1.0000
     0.0000   0.0000   0.0000   0.0000   0.0000   0.0000   0.0000   0.0000
     0.0000   0.0000

          k = 0.0000 0.4527-1.2807 (   274 PWs)   bands (ev):

   -28.9286 -28.9286 -28.8432 -28.8432  -3.9973  -3.9973  -3.6595  -3.6595
    -2.0255  -2.0255  -1.6923  -1.6923  -1.4572  -1.4572  -1.3871  -1.3871
     0.0111   0.0111   0.0899   0.0899   5.4094   5.4094   5.6829   5.6829
     6.4929   6.4929   6.8231   6.8231   7.1487   7.1487   8.0221   8.0221
     8.2911   8.2911   8.7691   8.7691   9.2711   9.2711  10.0068  10.0068
    10.7573  10.7573  11.9148  11.9148  12.6868  12.6868  12.9451  12.9451
    13.6207  13.6207

     occupation numbers 
     1.0000   1.0000   1.0000   1.0000   1.0000   1.0000   1.0000   1.0000
     1.0000   1.0000   1.0000   1.0000   1.0000   1.0000   1.0000   1.0000
     1.0000   1.0000   1.0000   1.0000   1.0000   1.0000   1.0000   1.0000
     1.0000   1.0000   1.0000   1.0000   1.0000   1.0000   1.0000   1.0000
     1.0000   1.0000   1.0000   1.0000   1.0000   1.0000   1.0000   1.0000
     0.0000   0.0000   0.0000   0.0000   0.0000   0.0000   0.0000   0.0000
     0.0000   0.0000

          k = 0.0000 0.9054 0.0000 (   264 PWs)   bands (ev):

   -28.8223 -28.7694 -28.7008 -28.4701  -4.0758  -3.9266  -3.8216  -3.6256
    -2.2455  -1.7248  -1.4779  -1.3486  -1.2529  -1.2515  -1.0870  -1.0735
    -0.0190  -0.0183   0.0110   0.1558   5.8381   6.1848   6.2830   6.8034
     6.9851   7.4061   7.5162   7.6316   7.8825   7.9261   7.9806   8.2296
     8.4705   8.5306   8.8351   9.2804   9.4974  10.1187  10.8909  10.8949
    10.9524  11.2531  11.7238  12.2738  12.5487  13.4369  13.5932  13.7223
    14.3886  14.5193

     occupation numbers 
     1.0000   1.0000   1.0000   1.0000   1.0000   1.0000   1.0000   1.0000
     1.0000   1.0000   1.0000   1.0000   1.0000   1.0000   1.0000   1.0000
     1.0000   1.0000   1.0000   1.0000   1.0000   1.0000   1.0000   1.0000
     1.0000   1.0000   1.0000   1.0000   1.0000   1.0000   1.0000   1.0000
     1.0000   1.0000   1.0000   1.0000   1.0000   1.0000   1.0000   1.0000
     0.0000   0.0000   0.0000   0.0000   0.0000   0.0000   0.0000   0.0000
     0.0000   0.0000

          k = 0.0000 0.9054 0.4269 (   269 PWs)   bands (ev):

   -28.9061 -28.8335 -28.6445 -28.6151  -3.9984  -3.8838  -3.8214  -3.5499
    -2.2044  -1.9283  -1.6125  -1.4522  -1.3959  -1.3167  -1.2513  -1.2291
    -0.2972  -0.0468   0.1117   0.1409   5.9051   6.0315   6.0926   6.2151
     6.6839   6.8202   6.8424   7.5528   7.9589   8.0284   8.0440   8.3891
     8.8287   9.2110   9.2566   9.7534   9.8362  10.2021  10.3033  10.9496
    11.1409  11.5570  11.9544  12.0825  12.4077  12.4509  13.0171  13.1052
    13.4399  13.5539

     occupation numbers 
     1.0000   1.0000   1.0000   1.0000   1.0000   1.0000   1.0000   1.0000
     1.0000   1.0000   1.0000   1.0000   1.0000   1.0000   1.0000   1.0000
     1.0000   1.0000   1.0000   1.0000   1.0000   1.0000   1.0000   1.0000
     1.0000   1.0000   1.0000   1.0000   1.0000   1.0000   1.0000   1.0000
     1.0000   1.0000   1.0000   1.0000   1.0000   1.0000   1.0000   1.0000
     0.0000   0.0000   0.0000   0.0000   0.0000   0.0000   0.0000   0.0000
     0.0000   0.0000

          k = 0.0000 0.9054 0.8538 (   274 PWs)   bands (ev):

   -29.0414 -28.8404 -28.8395 -28.5714  -3.8179  -3.7949  -3.7394  -3.3919
    -2.2117  -2.1851  -1.7780  -1.6592  -1.5509  -1.5263  -1.5025  -1.3878
    -0.5464  -0.1791   0.0128   0.0978   5.4232   5.4645   5.9512   6.1419
     6.5137   6.9090   7.0095   7.6519   7.7999   8.0065   8.2958   8.5183
     8.7253   9.3580   9.4600   9.4943   9.8521   9.9284  10.4149  10.4878
    10.6458  10.9887  11.6185  11.6698  11.9215  11.9806  12.0985  12.2070
    12.9002  13.5376

     occupation numbers 
     1.0000   1.0000   1.0000   1.0000   1.0000   1.0000   1.0000   1.0000
     1.0000   1.0000   1.0000   1.0000   1.0000   1.0000   1.0000   1.0000
     1.0000   1.0000   1.0000   1.0000   1.0000   1.0000   1.0000   1.0000
     1.0000   1.0000   1.0000   1.0000   1.0000   1.0000   1.0000   1.0000
     1.0000   1.0000   1.0000   1.0000   1.0000   1.0000   1.0000   1.0000
     0.0000   0.0000   0.0000   0.0000   0.0000   0.0000   0.0000   0.0000
     0.0000   0.0000

          k = 0.0000 0.9054-1.2807 (   280 PWs)   bands (ev):

   -28.9975 -28.9975 -28.8489 -28.8489  -3.7663  -3.7663  -3.5143  -3.5143
    -2.3177  -2.3177  -1.7678  -1.7678  -1.7000  -1.7000  -1.5057  -1.5057
    -0.5653  -0.5653  -0.0161  -0.0161   5.4171   5.4171   5.9264   5.9264
     6.5333   6.5333   7.2002   7.2002   7.4810   7.4810   7.7317   7.7317
     8.8670   8.8670   9.0375   9.0375   9.4457   9.4457   9.5610   9.5610
     9.9506   9.9506  11.1316  11.1316  11.7367  11.7367  12.5514  12.5514
    12.9588  12.9588

     occupation numbers 
     1.0000   1.0000   1.0000   1.0000   1.0000   1.0000   1.0000   1.0000
     1.0000   1.0000   1.0000   1.0000   1.0000   1.0000   1.0000   1.0000
     1.0000   1.0000   1.0000   1.0000   1.0000   1.0000   1.0000   1.0000
     1.0000   1.0000   1.0000   1.0000   1.0000   1.0000   1.0000   1.0000
     1.0000   1.0000   1.0000   1.0000   1.0000   1.0000   1.0000   1.0000
     0.0000   0.0000   0.0000   0.0000   0.0000   0.0000   0.0000   0.0000
     0.0000   0.0000

          k = 0.0000-1.3581 0.0000 (   266 PWs)   bands (ev):

   -28.7852 -28.7852 -28.6140 -28.6140  -4.1311  -4.1311  -3.8309  -3.8309
    -2.0563  -2.0563  -1.2934  -1.2934  -1.2296  -1.2296  -1.0470  -1.0470
     0.0847   0.0847   0.3013   0.3013   5.5888   5.5888   6.0263   6.0263
     6.4589   6.4589   6.8846   6.8846   6.9881   6.9881   7.4978   7.4978
     8.2862   8.2862   8.9152   8.9152   9.1988   9.1988  10.7162  10.7162
    11.4970  11.4970  12.8097  12.8097  13.5039  13.5039  14.1242  14.1242
    14.6854  14.6854

     occupation numbers 
     1.0000   1.0000   1.0000   1.0000   1.0000   1.0000   1.0000   1.0000
     1.0000   1.0000   1.0000   1.0000   1.0000   1.0000   1.0000   1.0000
     1.0000   1.0000   1.0000   1.0000   1.0000   1.0000   1.0000   1.0000
     1.0000   1.0000   1.0000   1.0000   1.0000   1.0000   1.0000   1.0000
     1.0000   1.0000   1.0000   1.0000   1.0000   1.0000   1.0000   1.0000
     0.0000   0.0000   0.0000   0.0000   0.0000   0.0000   0.0000   0.0000
     0.0000   0.0000

          k = 0.0000-1.3581 0.4269 (   272 PWs)   bands (ev):

   -28.8435 -28.8435 -28.7054 -28.7054  -4.0119  -4.0119  -3.7480  -3.7480
    -2.0661  -2.0661  -1.4510  -1.4510  -1.3880  -1.3880  -1.3599  -1.3599
    -0.1406  -0.1406   0.2714   0.2714   5.6757   5.6757   6.3798   6.3798
     6.8456   6.8456   7.1902   7.1902   7.8250   7.8250   7.9467   7.9467
     8.1571   8.1571   8.7900   8.7900   9.4233   9.4233  10.6482  10.6482
    11.0249  11.0249  12.0461  12.0461  12.8964  12.8964  13.3727  13.3727
    13.4490  13.4490

     occupation numbers 
     1.0000   1.0000   1.0000   1.0000   1.0000   1.0000   1.0000   1.0000
     1.0000   1.0000   1.0000   1.0000   1.0000   1.0000   1.0000   1.0000
     1.0000   1.0000   1.0000   1.0000   1.0000   1.0000   1.0000   1.0000
     1.0000   1.0000   1.0000   1.0000   1.0000   1.0000   1.0000   1.0000
     1.0000   1.0000   1.0000   1.0000   1.0000   1.0000   1.0000   1.0000
     0.0000   0.0000   0.0000   0.0000   0.0000   0.0000   0.0000   0.0000
     0.0000   0.0000

          k = 0.0000-1.3581 0.8538 (   276 PWs)   bands (ev):

   -29.0300 -29.0300 -28.6667 -28.6667  -3.7936  -3.7936  -3.5483  -3.5483
    -2.1857  -2.1857  -1.7589  -1.7589  -1.5798  -1.5798  -1.4524  -1.4524
    -0.7258  -0.7258   0.0284   0.0284   5.2826   5.2826   5.7122   5.7122
     6.7360   6.7360   7.3060   7.3060   7.8374   7.8374   8.3872   8.3872
     8.9526   8.9526   9.2932   9.2932   9.6815   9.6815   9.8968   9.8968
    11.0102  11.0102  11.9170  11.9170  11.9549  11.9549  12.1483  12.1483
    12.6547  12.6547

     occupation numbers 
     1.0000   1.0000   1.0000   1.0000   1.0000   1.0000   1.0000   1.0000
     1.0000   1.0000   1.0000   1.0000   1.0000   1.0000   1.0000   1.0000
     1.0000   1.0000   1.0000   1.0000   1.0000   1.0000   1.0000   1.0000
     1.0000   1.0000   1.0000   1.0000   1.0000   1.0000   1.0000   1.0000
     1.0000   1.0000   1.0000   1.0000   1.0000   1.0000   1.0000   1.0000
     0.0000   0.0000   0.0000   0.0000   0.0000   0.0000   0.0000   0.0000
     0.0000   0.0000

          k = 0.0000-1.3581-1.2807 (   268 PWs)   bands (ev):

   -28.7411 -28.7411 -28.6508 -28.6508  -3.5363  -3.5363  -3.5092  -3.5092
    -2.2460  -2.2460  -1.6387  -1.6387  -1.5565  -1.5565  -1.4776  -1.4776
    -0.9777  -0.9777  -0.0422  -0.0422   6.0636   6.0636   6.9016   6.9016
     7.0353   7.0353   8.5328   8.5328   9.0879   9.0879   9.5609   9.5609
     9.7325   9.7325  10.1648  10.1648  10.3232  10.3232  10.3541  10.3541
    10.8478  10.8478  11.3807  11.3807  11.4590  11.4590  12.3406  12.3406
    13.6214  13.6214

     occupation numbers 
     1.0000   1.0000   1.0000   1.0000   1.0000   1.0000   1.0000   1.0000
     1.0000   1.0000   1.0000   1.0000   1.0000   1.0000   1.0000   1.0000
     1.0000   1.0000   1.0000   1.0000   1.0000   1.0000   1.0000   1.0000
     1.0000   1.0000   1.0000   1.0000   1.0000   1.0000   1.0000   1.0000
     1.0000   1.0000   1.0000   1.0000   1.0000   1.0000   1.0000   1.0000
     0.0000   0.0000   0.0000   0.0000   0.0000   0.0000   0.0000   0.0000
     0.0000   0.0000

          k =-0.5000 0.0000 0.0000 (   268 PWs)   bands (ev):

   -28.9112 -28.9112 -28.6239 -28.6239  -3.7909  -3.7909  -3.2655  -3.2655
    -1.8280  -1.8280  -1.7595  -1.7595  -1.3318  -1.3318  -1.2575  -1.2575
    -0.6087  -0.6087  -0.3737  -0.3737   6.3738   6.3738   6.5517   6.5517
     6.8931   6.8931   7.9627   7.9627   8.1830   8.1830   8.6582   8.6582
     8.8878   8.8878   9.4002   9.4002  10.1685  10.1685  10.2530  10.2530
    10.8516  10.8516  10.9740  10.9740  11.7118  11.7118  12.4501  12.4501
    12.6897  12.6897

     occupation numbers 
     1.0000   1.0000   1.0000   1.0000   1.0000   1.0000   1.0000   1.0000
     1.0000   1.0000   1.0000   1.0000   1.0000   1.0000   1.0000   1.0000
     1.0000   1.0000   1.0000   1.0000   1.0000   1.0000   1.0000   1.0000
     1.0000   1.0000   1.0000   1.0000   1.0000   1.0000   1.0000   1.0000
     1.0000   1.0000   1.0000   1.0000   1.0000   1.0000   1.0000   1.0000
     0.0000   0.0000   0.0000   0.0000   0.0000   0.0000   0.0000   0.0000
     0.0000   0.0000

          k =-0.5000 0.0000 0.4269 (   258 PWs)   bands (ev):

   -28.7414 -28.7414 -28.4549 -28.4549  -3.7858  -3.7858  -3.4436  -3.4436
    -1.7099  -1.7099  -1.5979  -1.5979  -1.2894  -1.2894  -1.1826  -1.1826
    -0.4082  -0.4082  -0.1324  -0.1324   6.6955   6.6955   6.8736   6.8736
     7.6225   7.6225   8.0999   8.0999   8.5072   8.5072   8.7834   8.7834
     9.1126   9.1126   9.8688   9.8688  10.7404  10.7404  11.4121  11.4121
    11.5591  11.5591  11.9587  11.9587  12.6070  12.6070  13.1346  13.1346
    13.4880  13.4880

     occupation numbers 
     1.0000   1.0000   1.0000   1.0000   1.0000   1.0000   1.0000   1.0000
     1.0000   1.0000   1.0000   1.0000   1.0000   1.0000   1.0000   1.0000
     1.0000   1.0000   1.0000   1.0000   1.0000   1.0000   1.0000   1.0000
     1.0000   1.0000   1.0000   1.0000   1.0000   1.0000   1.0000   1.0000
     1.0000   1.0000   1.0000   1.0000   1.0000   1.0000   1.0000   1.0000
     0.0000   0.0000   0.0000   0.0000   0.0000   0.0000   0.0000   0.0000
     0.0000   0.0000

          k =-0.5000 0.0000 0.8538 (   268 PWs)   bands (ev):

   -28.9340 -28.9340 -28.6408 -28.6408  -3.9754  -3.9754  -3.6967  -3.6967
    -1.7852  -1.7852  -1.5431  -1.5431  -1.4505  -1.4505  -1.2240  -1.2240
    -0.1234  -0.1234   0.1424   0.1424   5.9967   5.9967   6.0096   6.0096
     6.6180   6.6180   7.1425   7.1425   7.8061   7.8061   8.1662   8.1662
     8.5178   8.5178   9.1128   9.1128   9.6228   9.6228  10.7172  10.7172
    11.5969  11.5969  12.0911  12.0911  13.0798  13.0798  13.3366  13.3366
    13.4151  13.4151

     occupation numbers 
     1.0000   1.0000   1.0000   1.0000   1.0000   1.0000   1.0000   1.0000
     1.0000   1.0000   1.0000   1.0000   1.0000   1.0000   1.0000   1.0000
     1.0000   1.0000   1.0000   1.0000   1.0000   1.0000   1.0000   1.0000
     1.0000   1.0000   1.0000   1.0000   1.0000   1.0000   1.0000   1.0000
     1.0000   1.0000   1.0000   1.0000   1.0000   1.0000   1.0000   1.0000
     0.0000   0.0000   0.0000   0.0000   0.0000   0.0000   0.0000   0.0000
     0.0000   0.0000

          k =-0.5000 0.0000-1.2807 (   276 PWs)   bands (ev):

   -28.9973 -28.9973 -28.8742 -28.8742  -4.0461  -4.0461  -3.8293  -3.8293
    -1.8599  -1.8599  -1.5745  -1.5745  -1.5415  -1.5415  -1.2617  -1.2617
    -0.0646  -0.0646   0.3623   0.3623   5.3557   5.3557   5.9988   5.9988
     6.1384   6.1384   6.2096   6.2096   6.7318   6.7318   7.0439   7.0439
     8.5525   8.5525   9.1441   9.1441   9.1696   9.1696  10.7857  10.7857
    10.8103  10.8103  10.9819  10.9819  12.5391  12.5391  12.7476  12.7476
    13.5781  13.5781

     occupation numbers 
     1.0000   1.0000   1.0000   1.0000   1.0000   1.0000   1.0000   1.0000
     1.0000   1.0000   1.0000   1.0000   1.0000   1.0000   1.0000   1.0000
     1.0000   1.0000   1.0000   1.0000   1.0000   1.0000   1.0000   1.0000
     1.0000   1.0000   1.0000   1.0000   1.0000   1.0000   1.0000   1.0000
     1.0000   1.0000   1.0000   1.0000   1.0000   1.0000   1.0000   1.0000
     0.0000   0.0000   0.0000   0.0000   0.0000   0.0000   0.0000   0.0000
     0.0000   0.0000

          k =-0.5000 0.4527 0.0000 (   258 PWs)   bands (ev):

   -28.7721 -28.7721 -28.4386 -28.4386  -3.8086  -3.8086  -3.4413  -3.4413
    -1.8596  -1.8596  -1.5247  -1.5247  -1.2279  -1.2279  -1.0508  -1.0508
    -0.4697  -0.4697  -0.1434  -0.1434   6.0816   6.0816   7.0305   7.0305
     7.3623   7.3623   7.9453   7.9453   8.0969   8.0969   8.7590   8.7590
     8.9981   8.9981   9.6271   9.6271  10.4857  10.4857  10.7759  10.7759
    11.4782  11.4782  12.4327  12.4327  12.9731  12.9731  13.3286  13.3286
    13.7506  13.7506

     occupation numbers 
     1.0000   1.0000   1.0000   1.0000   1.0000   1.0000   1.0000   1.0000
     1.0000   1.0000   1.0000   1.0000   1.0000   1.0000   1.0000   1.0000
     1.0000   1.0000   1.0000   1.0000   1.0000   1.0000   1.0000   1.0000
     1.0000   1.0000   1.0000   1.0000   1.0000   1.0000   1.0000   1.0000
     1.0000   1.0000   1.0000   1.0000   1.0000   1.0000   1.0000   1.0000
     0.0000   0.0000   0.0000   0.0000   0.0000   0.0000   0.0000   0.0000
     0.0000   0.0000

          k =-0.5000 0.4527 0.4269 (   264 PWs)   bands (ev):

   -28.7598 -28.7598 -28.6156 -28.6156  -3.8373  -3.8373  -3.5219  -3.5219
    -1.8770  -1.8770  -1.5920  -1.5920  -1.3801  -1.3801  -1.1342  -1.1342
    -0.3359  -0.3359  -0.0691  -0.0691   6.0849   6.0849   6.9656   6.9656
     7.1714   7.1714   7.6364   7.6364   8.1369   8.1369   8.9029   8.9029
     9.1656   9.1656   9.8246   9.8246  10.1785  10.1785  10.9774  10.9774
    11.5313  11.5313  11.7758  11.7758  12.1258  12.1258  12.6556  12.6556
    13.3427  13.3427

     occupation numbers 
     1.0000   1.0000   1.0000   1.0000   1.0000   1.0000   1.0000   1.0000
     1.0000   1.0000   1.0000   1.0000   1.0000   1.0000   1.0000   1.0000
     1.0000   1.0000   1.0000   1.0000   1.0000   1.0000   1.0000   1.0000
     1.0000   1.0000   1.0000   1.0000   1.0000   1.0000   1.0000   1.0000
     1.0000   1.0000   1.0000   1.0000   1.0000   1.0000   1.0000   1.0000
     0.0000   0.0000   0.0000   0.0000   0.0000   0.0000   0.0000   0.0000
     0.0000   0.0000

          k =-0.5000 0.4527 0.8538 (   270 PWs)   bands (ev):

   -28.9179 -28.9179 -28.6650 -28.6650  -3.9110  -3.9110  -3.6627  -3.6627
    -1.8683  -1.8683  -1.6302  -1.6302  -1.4792  -1.4792  -1.2672  -1.2672
    -0.1731  -0.1731   0.1204   0.1204   5.4937   5.4937   6.6157   6.6157
     6.7435   6.7435   6.8622   6.8622   7.6328   7.6328   8.1475   8.1475
     8.4463   8.4463   9.3397   9.3397   9.9781   9.9781  10.6734  10.6734
    11.1434  11.1434  11.6999  11.6999  12.7148  12.7148  13.0493  13.0493
    13.3716  13.3716

     occupation numbers 
     1.0000   1.0000   1.0000   1.0000   1.0000   1.0000   1.0000   1.0000
     1.0000   1.0000   1.0000   1.0000   1.0000   1.0000   1.0000   1.0000
     1.0000   1.0000   1.0000   1.0000   1.0000   1.0000   1.0000   1.0000
     1.0000   1.0000   1.0000   1.0000   1.0000   1.0000   1.0000   1.0000
     1.0000   1.0000   1.0000   1.0000   1.0000   1.0000   1.0000   1.0000
     0.0000   0.0000   0.0000   0.0000   0.0000   0.0000   0.0000   0.0000
     0.0000   0.0000

          k =-0.5000 0.4527-1.2807 (   280 PWs)   bands (ev):

   -29.0864 -29.0864 -28.8832 -28.8832  -3.9881  -3.9881  -3.7450  -3.7450
    -1.9573  -1.9573  -1.7308  -1.7308  -1.5110  -1.5110  -1.3917  -1.3917
    -0.1584  -0.1584   0.1116   0.1116   5.2428   5.2428   5.4171   5.4171
     6.4138   6.4138   6.5099   6.5099   7.3427   7.3427   7.4015   7.4015
     8.1115   8.1115   8.6149   8.6149   8.9823   8.9823   9.2574   9.2574
    10.2595  10.2595  10.9112  10.9112  12.5307  12.5307  12.7536  12.7536
    13.0001  13.0001

     occupation numbers 
     1.0000   1.0000   1.0000   1.0000   1.0000   1.0000   1.0000   1.0000
     1.0000   1.0000   1.0000   1.0000   1.0000   1.0000   1.0000   1.0000
     1.0000   1.0000   1.0000   1.0000   1.0000   1.0000   1.0000   1.0000
     1.0000   1.0000   1.0000   1.0000   1.0000   1.0000   1.0000   1.0000
     1.0000   1.0000   1.0000   1.0000   1.0000   1.0000   1.0000   1.0000
     0.0000   0.0000   0.0000   0.0000   0.0000   0.0000   0.0000   0.0000
     0.0000   0.0000

          k =-0.5000 0.9054 0.0000 (   256 PWs)   bands (ev):

   -28.5706 -28.5706 -28.5085 -28.5085  -3.9547  -3.9547  -3.7719  -3.7719
    -1.8575  -1.8575  -1.3847  -1.3847  -1.1736  -1.1736  -1.0066  -1.0066
    -0.0887  -0.0887   0.2742   0.2742   6.5801   6.5801   6.9984   6.9984
     7.3196   7.3196   7.8283   7.8283   8.2711   8.2711   8.4147   8.4147
     9.1091   9.1091   9.5017   9.5017  10.5782  10.5782  11.6067  11.6067
    11.6268  11.6268  12.3497  12.3497  13.7033  13.7033  13.9352  13.9352
    14.4994  14.4994

     occupation numbers 
     1.0000   1.0000   1.0000   1.0000   1.0000   1.0000   1.0000   1.0000
     1.0000   1.0000   1.0000   1.0000   1.0000   1.0000   1.0000   1.0000
     1.0000   1.0000   1.0000   1.0000   1.0000   1.0000   1.0000   1.0000
     1.0000   1.0000   1.0000   1.0000   1.0000   1.0000   1.0000   1.0000
     1.0000   1.0000   1.0000   1.0000   1.0000   1.0000   1.0000   1.0000
     0.0000   0.0000   0.0000   0.0000   0.0000   0.0000   0.0000   0.0000
     0.0000   0.0000

          k =-0.5000 0.9054 0.4269 (   270 PWs)   bands (ev):

   -28.8221 -28.8221 -28.7187 -28.7187  -3.9147  -3.9147  -3.7452  -3.7452
    -1.9230  -1.9230  -1.6253  -1.6253  -1.4084  -1.4084  -1.2437  -1.2437
    -0.2050  -0.2050   0.1376   0.1376   5.9029   5.9029   6.5056   6.5056
     6.7766   6.7766   7.4658   7.4658   7.9959   7.9959   8.2030   8.2030
     8.7162   8.7162   9.1666   9.1666   9.8652   9.8652  10.6872  10.6872
    11.4093  11.4093  11.8345  11.8345  12.6022  12.6022  12.9467  12.9467
    13.2385  13.2385

     occupation numbers 
     1.0000   1.0000   1.0000   1.0000   1.0000   1.0000   1.0000   1.0000
     1.0000   1.0000   1.0000   1.0000   1.0000   1.0000   1.0000   1.0000
     1.0000   1.0000   1.0000   1.0000   1.0000   1.0000   1.0000   1.0000
     1.0000   1.0000   1.0000   1.0000   1.0000   1.0000   1.0000   1.0000
     1.0000   1.0000   1.0000   1.0000   1.0000   1.0000   1.0000   1.0000
     0.0000   0.0000   0.0000   0.0000   0.0000   0.0000   0.0000   0.0000
     0.0000   0.0000

          k =-0.5000 0.9054 0.8538 (   272 PWs)   bands (ev):

   -28.8692 -28.8692 -28.7034 -28.7034  -3.7881  -3.7881  -3.6237  -3.6237
    -2.0454  -2.0454  -1.8132  -1.8132  -1.5059  -1.5059  -1.3959  -1.3959
    -0.3335  -0.3335  -0.0346  -0.0346   5.8302   5.8302   6.6775   6.6775
     6.9909   6.9909   7.4486   7.4486   7.9531   7.9531   8.3097   8.3097
     8.9762   8.9762   9.4255   9.4255  10.2635  10.2635  10.9531  10.9531
    11.2560  11.2560  11.5837  11.5837  11.8056  11.8056  12.3773  12.3773
    12.7962  12.7962

     occupation numbers 
     1.0000   1.0000   1.0000   1.0000   1.0000   1.0000   1.0000   1.0000
     1.0000   1.0000   1.0000   1.0000   1.0000   1.0000   1.0000   1.0000
     1.0000   1.0000   1.0000   1.0000   1.0000   1.0000   1.0000   1.0000
     1.0000   1.0000   1.0000   1.0000   1.0000   1.0000   1.0000   1.0000
     1.0000   1.0000   1.0000   1.0000   1.0000   1.0000   1.0000   1.0000
     0.0000   0.0000   0.0000   0.0000   0.0000   0.0000   0.0000   0.0000
     0.0000   0.0000

          k =-0.5000 0.9054-1.2807 (   276 PWs)   bands (ev):

   -28.8769 -28.8769 -28.7924 -28.7924  -3.7620  -3.7620  -3.5047  -3.5047
    -2.1023  -2.1023  -1.9449  -1.9449  -1.5611  -1.5611  -1.5170  -1.5170
    -0.2914  -0.2914  -0.2159  -0.2159   6.3659   6.3659   6.4656   6.4656
     7.2003   7.2003   7.3181   7.3181   7.7767   7.7767   8.3655   8.3655
     8.6315   8.6315   8.9664   8.9664   9.9662   9.9662  10.4094  10.4094
    11.0556  11.0556  11.6095  11.6095  11.8343  11.8343  12.1694  12.1694
    12.5596  12.5596

     occupation numbers 
     1.0000   1.0000   1.0000   1.0000   1.0000   1.0000   1.0000   1.0000
     1.0000   1.0000   1.0000   1.0000   1.0000   1.0000   1.0000   1.0000
     1.0000   1.0000   1.0000   1.0000   1.0000   1.0000   1.0000   1.0000
     1.0000   1.0000   1.0000   1.0000   1.0000   1.0000   1.0000   1.0000
     1.0000   1.0000   1.0000   1.0000   1.0000   1.0000   1.0000   1.0000
     0.0000   0.0000   0.0000   0.0000   0.0000   0.0000   0.0000   0.0000
     0.0000   0.0000

          k =-0.5000-1.3581 0.0000 (   272 PWs)   bands (ev):

   -28.7885 -28.7885 -28.7885 -28.7885  -3.9963  -3.9963  -3.9963  -3.9963
    -1.7665  -1.7665  -1.7665  -1.7665  -1.1838  -1.1838  -1.1838  -1.1838
     0.2613   0.2613   0.2613   0.2613   5.5116   5.5116   5.5116   5.5116
     6.3422   6.3422   6.3422   6.3422   7.5495   7.5495   7.5495   7.5495
     8.2885   8.2885   8.2885   8.2885   9.6112   9.6112   9.6112   9.6112
    11.6302  11.6302  11.6302  11.6302  13.2825  13.2825  13.2825  13.2825
    14.5886  14.5886

     occupation numbers 
     1.0000   1.0000   1.0000   1.0000   1.0000   1.0000   1.0000   1.0000
     1.0000   1.0000   1.0000   1.0000   1.0000   1.0000   1.0000   1.0000
     1.0000   1.0000   1.0000   1.0000   1.0000   1.0000   1.0000   1.0000
     1.0000   1.0000   1.0000   1.0000   1.0000   1.0000   1.0000   1.0000
     1.0000   1.0000   1.0000   1.0000   1.0000   1.0000   1.0000   1.0000
     0.0000   0.0000   0.0000   0.0000   0.0000   0.0000   0.0000   0.0000
     0.0000   0.0000

          k =-0.5000-1.3581 0.4269 (   272 PWs)   bands (ev):

   -28.7715 -28.7715 -28.7715 -28.7715  -3.9077  -3.9077  -3.9077  -3.9077
    -1.7884  -1.7884  -1.7884  -1.7884  -1.3697  -1.3697  -1.3697  -1.3697
     0.0639   0.0639   0.0639   0.0639   6.1609   6.1609   6.1609   6.1609
     6.7118   6.7118   6.7118   6.7118   7.7311   7.7311   7.7311   7.7311
     9.0241   9.0241   9.0241   9.0241   9.8223   9.8223   9.8223   9.8223
    11.6670  11.6670  11.6670  11.6670  12.9375  12.9375  12.9375  12.9375
    13.9230  13.9230

     occupation numbers 
     1.0000   1.0000   1.0000   1.0000   1.0000   1.0000   1.0000   1.0000
     1.0000   1.0000   1.0000   1.0000   1.0000   1.0000   1.0000   1.0000
     1.0000   1.0000   1.0000   1.0000   1.0000   1.0000   1.0000   1.0000
     1.0000   1.0000   1.0000   1.0000   1.0000   1.0000   1.0000   1.0000
     1.0000   1.0000   1.0000   1.0000   1.0000   1.0000   1.0000   1.0000
     0.0000   0.0000   0.0000   0.0000   0.0000   0.0000   0.0000   0.0000
     0.0000   0.0000

          k =-0.5000-1.3581 0.8538 (   264 PWs)   bands (ev):

   -28.6206 -28.6206 -28.6206 -28.6206  -3.6314  -3.6314  -3.6314  -3.6314
    -1.8711  -1.8711  -1.8711  -1.8711  -1.5202  -1.5202  -1.5202  -1.5202
    -0.1589  -0.1589  -0.1589  -0.1589   7.4396   7.4396   7.4396   7.4396
     7.7293   7.7293   7.7293   7.7293   8.2170   8.2170   8.2170   8.2170
     9.5555   9.5555   9.5555   9.5555  10.4374  10.4374  10.4374  10.4374
    11.8970  11.8970  11.8970  11.8970  12.8019  12.8019  12.8019  12.8019
    13.6538  13.6538

     occupation numbers 
     1.0000   1.0000   1.0000   1.0000   1.0000   1.0000   1.0000   1.0000
     1.0000   1.0000   1.0000   1.0000   1.0000   1.0000   1.0000   1.0000
     1.0000   1.0000   1.0000   1.0000   1.0000   1.0000   1.0000   1.0000
     1.0000   1.0000   1.0000   1.0000   1.0000   1.0000   1.0000   1.0000
     1.0000   1.0000   1.0000   1.0000   1.0000   1.0000   1.0000   1.0000
     0.0000   0.0000   0.0000   0.0000   0.0000   0.0000   0.0000   0.0000
     0.0000   0.0000

          k =-0.5000-1.3581-1.2807 (   256 PWs)   bands (ev):

   -28.4930 -28.4930 -28.4930 -28.4930  -3.4662  -3.4662  -3.4662  -3.4662
    -1.8684  -1.8684  -1.8684  -1.8684  -1.6091  -1.6091  -1.6091  -1.6091
    -0.2541  -0.2541  -0.2541  -0.2541   7.7394   7.7394   7.7394   7.7394
     8.5901   8.5901   8.5901   8.5901   9.2635   9.2635   9.2635   9.2635
    10.1021  10.1021  10.1021  10.1021  10.9548  10.9548  10.9548  10.9548
    11.6301  11.6301  11.6301  11.6301  12.9616  12.9616  12.9616  12.9616
    13.5441  13.5441

     occupation numbers 
     1.0000   1.0000   1.0000   1.0000   1.0000   1.0000   1.0000   1.0000
     1.0000   1.0000   1.0000   1.0000   1.0000   1.0000   1.0000   1.0000
     1.0000   1.0000   1.0000   1.0000   1.0000   1.0000   1.0000   1.0000
     1.0000   1.0000   1.0000   1.0000   1.0000   1.0000   1.0000   1.0000
     1.0000   1.0000   1.0000   1.0000   1.0000   1.0000   1.0000   1.0000
     0.0000   0.0000   0.0000   0.0000   0.0000   0.0000   0.0000   0.0000
     0.0000   0.0000

     highest occupied, lowest unoccupied level (ev):    11.6067    9.9506

!    total energy              =    -680.31596312 Ry
     estimated scf accuracy    <          2.3E-09 Ry

     The total energy is the sum of the following terms:
     one-electron contribution =     -23.21397382 Ry
     hartree contribution      =      65.93201286 Ry
     xc contribution           =    -282.42918588 Ry
     ewald contribution        =    -440.60481627 Ry

     convergence has been achieved in  11 iterations

     negative rho (up, down):  1.119E-03 0.000E+00

     Forces acting on atoms (cartesian axes, Ry/au):

     atom    1 type  2   force =     0.08751633   -0.00000000   -0.02358128
     atom    2 type  1   force =     0.02344324    0.00000000   -0.00737278
     atom    3 type  2   force =    -0.08751633    0.00000000   -0.02358128
     atom    4 type  1   force =    -0.02344324    0.00000000   -0.00737278
     atom    5 type  2   force =     0.08751633    0.00000000    0.02358128
     atom    6 type  1   force =     0.02344324   -0.00000000    0.00737278
     atom    7 type  2   force =    -0.08751633   -0.00000000    0.02358128
     atom    8 type  1   force =    -0.02344324    0.00000000    0.00737278
     The non-local contrib.  to forces
     atom    1 type  2   force =    -0.11781054    0.00000000    0.10137413
     atom    2 type  1   force =     0.05253226    0.00000000   -0.00881146
     atom    3 type  2   force =     0.11781054    0.00000000    0.10137413
     atom    4 type  1   force =    -0.05253226    0.00000000   -0.00881146
     atom    5 type  2   force =    -0.11781054    0.00000000   -0.10137413
     atom    6 type  1   force =     0.05253226    0.00000000    0.00881146
     atom    7 type  2   force =     0.11781054    0.00000000   -0.10137413
     atom    8 type  1   force =    -0.05253226    0.00000000    0.00881146
     The ionic contribution  to forces
     atom    1 type  2   force =     1.53473236    0.00000000   -1.05154455
     atom    2 type  1   force =    -1.03769719    0.00000000   -0.57506129
     atom    3 type  2   force =    -1.53473236   -0.00000000   -1.05154455
     atom    4 type  1   force =     1.03769719   -0.00000000   -0.57506129
     atom    5 type  2   force =     1.53473236   -0.00000000    1.05154455
     atom    6 type  1   force =    -1.03769719   -0.00000000    0.57506129
     atom    7 type  2   force =    -1.53473236   -0.00000000    1.05154455
     atom    8 type  1   force =     1.03769719    0.00000000    0.57506129
     The local contribution  to forces
     atom    1 type  2   force =    -1.40070411   -0.00000000    0.91503490
     atom    2 type  1   force =     0.99923646   -0.00000000    0.56013023
     atom    3 type  2   force =     1.40070411   -0.00000000    0.91503490
     atom    4 type  1   force =    -0.99923646    0.00000000    0.56013023
     atom    5 type  2   force =    -1.40070411    0.00000000   -0.91503490
     atom    6 type  1   force =     0.99923646    0.00000000   -0.56013023
     atom    7 type  2   force =     1.40070411    0.00000000   -0.91503490
     atom    8 type  1   force =    -0.99923646    0.00000000   -0.56013023
     The core correction contribution to forces
     atom    1 type  2   force =     0.07128819   -0.00000000    0.01155788
     atom    2 type  1   force =     0.00944104   -0.00000000    0.01640181
     atom    3 type  2   force =    -0.07128819    0.00000000    0.01155788
     atom    4 type  1   force =    -0.00944104    0.00000000    0.01640181
     atom    5 type  2   force =     0.07128819   -0.00000000   -0.01155788
     atom    6 type  1   force =     0.00944104   -0.00000000   -0.01640181
     atom    7 type  2   force =    -0.07128819   -0.00000000   -0.01155788
     atom    8 type  1   force =    -0.00944104    0.00000000   -0.01640181
     The Hubbard contrib.    to forces
     atom    1 type  2   force =     0.00000000    0.00000000    0.00000000
     atom    2 type  1   force =     0.00000000    0.00000000    0.00000000
     atom    3 type  2   force =     0.00000000    0.00000000    0.00000000
     atom    4 type  1   force =     0.00000000    0.00000000    0.00000000
     atom    5 type  2   force =     0.00000000    0.00000000    0.00000000
     atom    6 type  1   force =     0.00000000    0.00000000    0.00000000
     atom    7 type  2   force =     0.00000000    0.00000000    0.00000000
     atom    8 type  1   force =     0.00000000    0.00000000    0.00000000
     The SCF correction term to forces
     atom    1 type  2   force =     0.00001044   -0.00000000   -0.00000363
     atom    2 type  1   force =    -0.00006932   -0.00000000   -0.00003208
     atom    3 type  2   force =    -0.00001044    0.00000000   -0.00000363
     atom    4 type  1   force =     0.00006932    0.00000000   -0.00003208
     atom    5 type  2   force =     0.00001044    0.00000000    0.00000363
     atom    6 type  1   force =    -0.00006932   -0.00000000    0.00003208
     atom    7 type  2   force =    -0.00001044    0.00000000    0.00000363
     atom    8 type  1   force =     0.00006932   -0.00000000    0.00003208

     Total force =     0.187820     Total SCF correction =     0.000154

     Writing output data file ./tmp/SnSe_pnma.save/

     init_run     :      0.54s CPU      0.63s WALL (       1 calls)
     electrons    :     18.29s CPU     17.21s WALL (       1 calls)
     forces       :      0.36s CPU      0.28s WALL (       1 calls)

     Called by init_run:
     wfcinit      :      0.32s CPU      0.37s WALL (       1 calls)
     wfcinit:atom :      0.00s CPU      0.00s WALL (       8 calls)
     wfcinit:wfcr :      0.30s CPU      0.36s WALL (       8 calls)
     potinit      :      0.03s CPU      0.03s WALL (       1 calls)
     hinit0       :      0.16s CPU      0.16s WALL (       1 calls)

     Called by electrons:
     c_bands      :     16.80s CPU     15.95s WALL (      11 calls)
     sum_band     :      0.88s CPU      0.68s WALL (      11 calls)
     v_of_rho     :      0.13s CPU      0.10s WALL (      12 calls)
     v_h          :      0.01s CPU      0.00s WALL (      12 calls)
     v_xc         :      0.13s CPU      0.11s WALL (      13 calls)
     newd         :      0.48s CPU      0.51s WALL (      12 calls)
     mix_rho      :      0.01s CPU      0.01s WALL (      11 calls)

     Called by c_bands:
     init_us_2    :      0.06s CPU      0.05s WALL (     192 calls)
     cegterg      :      6.81s CPU      7.87s WALL (      88 calls)

     Called by sum_band:
     sum_band:wei :      0.00s CPU      0.00s WALL (      11 calls)
     sum_band:loo :      0.33s CPU      0.27s WALL (      11 calls)
     sum_band:buf :      0.01s CPU      0.00s WALL (      88 calls)
     sum_band:ini :      0.03s CPU      0.02s WALL (      88 calls)
     sum_band:cal :      0.10s CPU      0.10s WALL (      88 calls)
     sum_band:bec :      0.01s CPU      0.01s WALL (      88 calls)
     addusdens    :      0.32s CPU      0.22s WALL (      11 calls)
     addusd:skk   :      0.00s CPU      0.00s WALL (      22 calls)
     addusd:dgemm :      0.16s CPU      0.09s WALL (      22 calls)
     addusd:qvan2 :      0.11s CPU      0.08s WALL (      22 calls)

     Called by *egterg:
     cdiaghg      :      3.56s CPU      4.60s WALL (     373 calls)
     cegterg:over :      0.48s CPU      0.59s WALL (     285 calls)
     cegterg:upda :      0.25s CPU      0.36s WALL (     285 calls)
     cegterg:last :      0.48s CPU      0.53s WALL (     205 calls)
     h_psi        :      1.67s CPU      1.54s WALL (     381 calls)
     s_psi        :      0.37s CPU      0.33s WALL (     381 calls)
     g_psi        :      0.02s CPU      0.02s WALL (     285 calls)

     Called by h_psi:
     h_psi:calbec :      0.42s CPU      0.49s WALL (     381 calls)
     vloc_psi     :      0.86s CPU      0.70s WALL (     381 calls)
     add_vuspsi   :      0.37s CPU      0.34s WALL (     381 calls)

     General routines
     calbec       :      0.55s CPU      0.61s WALL (     501 calls)
     fft          :      0.06s CPU      0.04s WALL (     165 calls)
     ffts         :      0.00s CPU      0.00s WALL (      23 calls)
     fftw         :      0.70s CPU      0.57s WALL (   29406 calls)
     interpolate  :      0.01s CPU      0.00s WALL (      12 calls)

     Parallel routines

     PWSCF        :     19.33s CPU     18.30s WALL


   This run was terminated on:  19:18:33   5May2026            

=------------------------------------------------------------------------------=
   JOB DONE.
=------------------------------------------------------------------------------=
