
     Program PWSCF v.6.7MaX starts on 19May2026 at 11: 1:29 

     This program is part of the open-source Quantum ESPRESSO suite
     for quantum simulation of materials; please cite
         "P. Giannozzi et al., J. Phys.:Condens. Matter 21 395502 (2009);
         "P. Giannozzi et al., J. Phys.:Condens. Matter 29 465901 (2017);
          URL http://www.quantum-espresso.org", 
     in publications or presentations arising from this work. More details at
     http://www.quantum-espresso.org/quote

     Parallel version (MPI), running on     6 processors

     MPI processes distributed on     1 nodes
     K-points division:     npool     =       3
     R & G space division:  proc/nbgrp/npool/nimage =       2
     Waiting for input...
     Reading input from standard input

     Current dimensions of program PWSCF are:
     Max number of different atomic species (ntypx) = 10
     Max number of k-points (npk) =  40000
     Max angular momentum in pseudopotentials (lmaxx) =  3

     Subspace diagonalization in iterative solution of the eigenvalue problem:
     a serial algorithm will be used


     Parallelization info
     --------------------
     sticks:   dense  smooth     PW     G-vecs:    dense   smooth      PW
     Min        4741    1890    541               222996    56406    8580
     Max        4742    1891    542               222997    56407    8581
     Sum        9483    3781   1083               445993   112813   17161



     bravais-lattice index     =            8
     lattice parameter (alat)  =      21.4862  a.u.
     unit-cell volume          =    1425.7436 (a.u.)^3
     number of atoms/cell      =            8
     number of atomic types    =            2
     number of electrons       =        80.00
     number of Kohn-Sham states=           50
     kinetic-energy cutoff     =      70.0000  Ry
     charge density cutoff     =     700.0000  Ry
     scf convergence threshold =      1.0E-08
     mixing beta               =       0.7000
     number of iterations used =            8  plain     mixing
     Exchange-correlation= SLA  PW   PBE  PBE
                           (   1   4   3   4   0   0   0)

     celldm(1)=  21.486186  celldm(2)=   0.368162  celldm(3)=   0.390413
     celldm(4)=   0.000000  celldm(5)=   0.000000  celldm(6)=   0.000000

     crystal axes: (cart. coord. in units of alat)
               a(1) = (   1.000000   0.000000   0.000000 )  
               a(2) = (   0.000000   0.368162   0.000000 )  
               a(3) = (   0.000000   0.000000   0.390413 )  

     reciprocal axes: (cart. coord. in units 2 pi/alat)
               b(1) = (  1.000000  0.000000  0.000000 )  
               b(2) = (  0.000000  2.716197  0.000000 )  
               b(3) = (  0.000000  0.000000  2.561388 )  


     PseudoPot. # 1 for Sn read from file:
     ../pseudo/Sn_pbe_v1.uspp.F.UPF
     MD5 check sum: 4cf58ce39ec5d5d420df3dd08604eb00
     Pseudo is Ultrasoft + core correction, Zval = 14.0
     Generated by new atomic code, or converted to UPF format
     Using radial grid of  891 points,  6 beta functions with: 
                l(1) =   0
                l(2) =   0
                l(3) =   1
                l(4) =   1
                l(5) =   2
                l(6) =   2
     Q(r) pseudized with  6 coefficients,  rinner =    1.200   1.200   1.200
                                                       1.200   1.200

     PseudoPot. # 2 for Se read from file:
     ../pseudo/Se_pbe_v1.uspp.F.UPF
     MD5 check sum: 1b3568f3a8ae88f9a2a0ad0698632c85
     Pseudo is Ultrasoft + core correction, Zval =  6.0
     Generated by new atomic code, or converted to UPF format
     Using radial grid of  877 points,  6 beta functions with: 
                l(1) =   0
                l(2) =   0
                l(3) =   1
                l(4) =   1
                l(5) =   2
                l(6) =   2
     Q(r) pseudized with  8 coefficients,  rinner =    1.300   1.300   1.300
                                                       1.300   1.300

     atomic species   valence    mass     pseudopotential
        Sn            14.00   118.71000     Sn( 1.00)
        Se             6.00    78.97100     Se( 1.00)

      8 Sym. Ops., with inversion, found ( 6 have fractional translation)


                                    s                        frac. trans.

      isym =  1     identity                                     

 cryst.   s( 1) = (     1          0          0      )
                  (     0          1          0      )
                  (     0          0          1      )

 cart.    s( 1) = (  1.0000000  0.0000000  0.0000000 )
                  (  0.0000000  1.0000000  0.0000000 )
                  (  0.0000000  0.0000000  1.0000000 )


      isym =  2     180 deg rotation - cart. axis [0,0,1]        

 cryst.   s( 2) = (    -1          0          0      )    f =(  0.5000000 )
                  (     0         -1          0      )       (  0.0000000 )
                  (     0          0          1      )       (  0.5000000 )

 cart.    s( 2) = ( -1.0000000  0.0000000  0.0000000 )    f =(  0.5000000 )
                  (  0.0000000 -1.0000000  0.0000000 )       (  0.0000000 )
                  (  0.0000000  0.0000000  1.0000000 )       (  0.1952067 )


      isym =  3     180 deg rotation - cart. axis [0,1,0]        

 cryst.   s( 3) = (    -1          0          0      )    f =(  0.0000000 )
                  (     0          1          0      )       ( -0.5000000 )
                  (     0          0         -1      )       (  0.0000000 )

 cart.    s( 3) = ( -1.0000000  0.0000000  0.0000000 )    f =(  0.0000000 )
                  (  0.0000000  1.0000000  0.0000000 )       ( -0.1840809 )
                  (  0.0000000  0.0000000 -1.0000000 )       (  0.0000000 )


      isym =  4     180 deg rotation - cart. axis [1,0,0]        

 cryst.   s( 4) = (     1          0          0      )    f =(  0.5000000 )
                  (     0         -1          0      )       (  0.5000000 )
                  (     0          0         -1      )       (  0.5000000 )

 cart.    s( 4) = (  1.0000000  0.0000000  0.0000000 )    f =(  0.5000000 )
                  (  0.0000000 -1.0000000  0.0000000 )       (  0.1840809 )
                  (  0.0000000  0.0000000 -1.0000000 )       (  0.1952067 )


      isym =  5     inversion                                    

 cryst.   s( 5) = (    -1          0          0      )
                  (     0         -1          0      )
                  (     0          0         -1      )

 cart.    s( 5) = ( -1.0000000  0.0000000  0.0000000 )
                  (  0.0000000 -1.0000000  0.0000000 )
                  (  0.0000000  0.0000000 -1.0000000 )


      isym =  6     inv. 180 deg rotation - cart. axis [0,0,1]   

 cryst.   s( 6) = (     1          0          0      )    f =(  0.5000000 )
                  (     0          1          0      )       (  0.0000000 )
                  (     0          0         -1      )       (  0.5000000 )

 cart.    s( 6) = (  1.0000000  0.0000000  0.0000000 )    f =(  0.5000000 )
                  (  0.0000000  1.0000000  0.0000000 )       (  0.0000000 )
                  (  0.0000000  0.0000000 -1.0000000 )       (  0.1952067 )


      isym =  7     inv. 180 deg rotation - cart. axis [0,1,0]   

 cryst.   s( 7) = (     1          0          0      )    f =(  0.0000000 )
                  (     0         -1          0      )       (  0.5000000 )
                  (     0          0          1      )       (  0.0000000 )

 cart.    s( 7) = (  1.0000000  0.0000000  0.0000000 )    f =(  0.0000000 )
                  (  0.0000000 -1.0000000  0.0000000 )       (  0.1840809 )
                  (  0.0000000  0.0000000  1.0000000 )       (  0.0000000 )


      isym =  8     inv. 180 deg rotation - cart. axis [1,0,0]   

 cryst.   s( 8) = (    -1          0          0      )    f =(  0.5000000 )
                  (     0          1          0      )       ( -0.5000000 )
                  (     0          0          1      )       (  0.5000000 )

 cart.    s( 8) = ( -1.0000000  0.0000000  0.0000000 )    f =(  0.5000000 )
                  (  0.0000000  1.0000000  0.0000000 )       ( -0.1840809 )
                  (  0.0000000  0.0000000  1.0000000 )       (  0.1952067 )


     point group D_2h (mmm) 
     there are  8 classes
     the character table:

       E     C2    C2'   C2''  i     s_v   s_v'  s_v''
A_g    1.00  1.00  1.00  1.00  1.00  1.00  1.00  1.00
B_1g   1.00  1.00 -1.00 -1.00  1.00  1.00 -1.00 -1.00
B_2g   1.00 -1.00  1.00 -1.00  1.00 -1.00  1.00 -1.00
B_3g   1.00 -1.00 -1.00  1.00  1.00 -1.00 -1.00  1.00
A_u    1.00  1.00  1.00  1.00 -1.00 -1.00 -1.00 -1.00
B_1u   1.00  1.00 -1.00 -1.00 -1.00 -1.00  1.00  1.00
B_2u   1.00 -1.00  1.00 -1.00 -1.00  1.00 -1.00  1.00
B_3u   1.00 -1.00 -1.00  1.00 -1.00  1.00  1.00 -1.00

     the symmetry operations in each class and the name of the first element:

     E        1
          identity                                               
     C2       2
          180 deg rotation - cart. axis [0,0,1]                  
     C2'      4
          180 deg rotation - cart. axis [1,0,0]                  
     C2''     3
          180 deg rotation - cart. axis [0,1,0]                  
     i        5
          inversion                                              
     s_v      6
          inv. 180 deg rotation - cart. axis [0,0,1]             
     s_v'     8
          inv. 180 deg rotation - cart. axis [1,0,0]             
     s_v''    7
          inv. 180 deg rotation - cart. axis [0,1,0]             

   Cartesian axes

     site n.     atom                  positions (alat units)
         1           Se  tau(   1) = (   0.8555000   0.0920405   0.1884916  )
         2           Sn  tau(   2) = (   0.1187000   0.0920405   0.0385728  )
         3           Se  tau(   3) = (   0.6445000   0.2761214   0.3836983  )
         4           Sn  tau(   4) = (   0.3813000   0.2761214   0.2337795  )
         5           Se  tau(   5) = (   0.3555000   0.0920405   0.0067151  )
         6           Sn  tau(   6) = (   0.6187000   0.0920405   0.1566338  )
         7           Se  tau(   7) = (   0.1445000   0.2761214   0.2019218  )
         8           Sn  tau(   8) = (   0.8813000   0.2761214   0.3518405  )

   Crystallographic axes

     site n.     atom                  positions (cryst. coord.)
         1           Se  tau(   1) = (  0.8555000  0.2500000  0.4828000  )
         2           Sn  tau(   2) = (  0.1187000  0.2500000  0.0988000  )
         3           Se  tau(   3) = (  0.6445000  0.7500000  0.9828000  )
         4           Sn  tau(   4) = (  0.3813000  0.7500000  0.5988000  )
         5           Se  tau(   5) = (  0.3555000  0.2500000  0.0172000  )
         6           Sn  tau(   6) = (  0.6187000  0.2500000  0.4012000  )
         7           Se  tau(   7) = (  0.1445000  0.7500000  0.5172000  )
         8           Sn  tau(   8) = (  0.8813000  0.7500000  0.9012000  )

     number of k points=    32
                       cart. coord. in units 2pi/alat
        k(    1) = (   0.0000000   0.0000000   0.0000000), wk =   0.0277778
        k(    2) = (   0.0000000   0.0000000   0.4268979), wk =   0.0555556
        k(    3) = (   0.0000000   0.0000000   0.8537959), wk =   0.0555556
        k(    4) = (   0.0000000   0.0000000  -1.2806938), wk =   0.0277778
        k(    5) = (   0.0000000   0.4526995   0.0000000), wk =   0.0555556
        k(    6) = (   0.0000000   0.4526995   0.4268979), wk =   0.1111111
        k(    7) = (   0.0000000   0.4526995   0.8537959), wk =   0.1111111
        k(    8) = (   0.0000000   0.4526995  -1.2806938), wk =   0.0555556
        k(    9) = (   0.0000000   0.9053989   0.0000000), wk =   0.0555556
        k(   10) = (   0.0000000   0.9053989   0.4268979), wk =   0.1111111
        k(   11) = (   0.0000000   0.9053989   0.8537959), wk =   0.1111111
        k(   12) = (   0.0000000   0.9053989  -1.2806938), wk =   0.0555556
        k(   13) = (   0.0000000  -1.3580984   0.0000000), wk =   0.0277778
        k(   14) = (   0.0000000  -1.3580984   0.4268979), wk =   0.0555556
        k(   15) = (   0.0000000  -1.3580984   0.8537959), wk =   0.0555556
        k(   16) = (   0.0000000  -1.3580984  -1.2806938), wk =   0.0277778
        k(   17) = (  -0.5000000   0.0000000   0.0000000), wk =   0.0277778
        k(   18) = (  -0.5000000   0.0000000   0.4268979), wk =   0.0555556
        k(   19) = (  -0.5000000   0.0000000   0.8537959), wk =   0.0555556
        k(   20) = (  -0.5000000   0.0000000  -1.2806938), wk =   0.0277778
        k(   21) = (  -0.5000000   0.4526995   0.0000000), wk =   0.0555556
        k(   22) = (  -0.5000000   0.4526995   0.4268979), wk =   0.1111111
        k(   23) = (  -0.5000000   0.4526995   0.8537959), wk =   0.1111111
        k(   24) = (  -0.5000000   0.4526995  -1.2806938), wk =   0.0555556
        k(   25) = (  -0.5000000   0.9053989   0.0000000), wk =   0.0555556
        k(   26) = (  -0.5000000   0.9053989   0.4268979), wk =   0.1111111
        k(   27) = (  -0.5000000   0.9053989   0.8537959), wk =   0.1111111
        k(   28) = (  -0.5000000   0.9053989  -1.2806938), wk =   0.0555556
        k(   29) = (  -0.5000000  -1.3580984   0.0000000), wk =   0.0277778
        k(   30) = (  -0.5000000  -1.3580984   0.4268979), wk =   0.0555556
        k(   31) = (  -0.5000000  -1.3580984   0.8537959), wk =   0.0555556
        k(   32) = (  -0.5000000  -1.3580984  -1.2806938), wk =   0.0277778

                       cryst. coord.
        k(    1) = (   0.0000000   0.0000000   0.0000000), wk =   0.0277778
        k(    2) = (   0.0000000   0.0000000   0.1666667), wk =   0.0555556
        k(    3) = (   0.0000000   0.0000000   0.3333333), wk =   0.0555556
        k(    4) = (   0.0000000   0.0000000  -0.5000000), wk =   0.0277778
        k(    5) = (   0.0000000   0.1666667   0.0000000), wk =   0.0555556
        k(    6) = (   0.0000000   0.1666667   0.1666667), wk =   0.1111111
        k(    7) = (   0.0000000   0.1666667   0.3333333), wk =   0.1111111
        k(    8) = (   0.0000000   0.1666667  -0.5000000), wk =   0.0555556
        k(    9) = (   0.0000000   0.3333333   0.0000000), wk =   0.0555556
        k(   10) = (   0.0000000   0.3333333   0.1666667), wk =   0.1111111
        k(   11) = (   0.0000000   0.3333333   0.3333333), wk =   0.1111111
        k(   12) = (   0.0000000   0.3333333  -0.5000000), wk =   0.0555556
        k(   13) = (   0.0000000  -0.5000000   0.0000000), wk =   0.0277778
        k(   14) = (   0.0000000  -0.5000000   0.1666667), wk =   0.0555556
        k(   15) = (   0.0000000  -0.5000000   0.3333333), wk =   0.0555556
        k(   16) = (   0.0000000  -0.5000000  -0.5000000), wk =   0.0277778
        k(   17) = (  -0.5000000   0.0000000   0.0000000), wk =   0.0277778
        k(   18) = (  -0.5000000   0.0000000   0.1666667), wk =   0.0555556
        k(   19) = (  -0.5000000   0.0000000   0.3333333), wk =   0.0555556
        k(   20) = (  -0.5000000   0.0000000  -0.5000000), wk =   0.0277778
        k(   21) = (  -0.5000000   0.1666667   0.0000000), wk =   0.0555556
        k(   22) = (  -0.5000000   0.1666667   0.1666667), wk =   0.1111111
        k(   23) = (  -0.5000000   0.1666667   0.3333333), wk =   0.1111111
        k(   24) = (  -0.5000000   0.1666667  -0.5000000), wk =   0.0555556
        k(   25) = (  -0.5000000   0.3333333   0.0000000), wk =   0.0555556
        k(   26) = (  -0.5000000   0.3333333   0.1666667), wk =   0.1111111
        k(   27) = (  -0.5000000   0.3333333   0.3333333), wk =   0.1111111
        k(   28) = (  -0.5000000   0.3333333  -0.5000000), wk =   0.0555556
        k(   29) = (  -0.5000000  -0.5000000   0.0000000), wk =   0.0277778
        k(   30) = (  -0.5000000  -0.5000000   0.1666667), wk =   0.0555556
        k(   31) = (  -0.5000000  -0.5000000   0.3333333), wk =   0.0555556
        k(   32) = (  -0.5000000  -0.5000000  -0.5000000), wk =   0.0277778

     Dense  grid:   445993 G-vectors     FFT dimensions: ( 192,  72,  72)

     Smooth grid:   112813 G-vectors     FFT dimensions: ( 120,  48,  48)

     Dynamical RAM for                 wfc:       5.38 MB

     Dynamical RAM for     wfc (w. buffer):      64.54 MB

     Dynamical RAM for           str. fact:       6.81 MB

     Dynamical RAM for           local pot:       0.00 MB

     Dynamical RAM for          nlocal pot:      15.49 MB

     Dynamical RAM for                qrad:       4.24 MB

     Dynamical RAM for          rho,v,vnew:      21.60 MB

     Dynamical RAM for               rhoin:       7.20 MB

     Dynamical RAM for            rho*nmix:      54.44 MB

     Dynamical RAM for           G-vectors:      13.19 MB

     Dynamical RAM for          h,s,v(r/c):       0.46 MB

     Dynamical RAM for          <psi|beta>:       0.11 MB

     Dynamical RAM for                 psi:      10.76 MB

     Dynamical RAM for                hpsi:      10.76 MB

     Dynamical RAM for                spsi:      10.76 MB

     Dynamical RAM for      wfcinit/wfcrot:      11.25 MB

     Dynamical RAM for           addusdens:     217.77 MB

     Dynamical RAM for          addusforce:     224.02 MB

     Estimated static dynamical RAM per process >     216.71 MB

     Estimated max dynamical RAM per process >     440.73 MB

     Estimated total dynamical RAM >       2.58 GB

     Initial potential from superposition of free atoms

     starting charge   75.99954, renormalised to   80.00000
     Starting wfcs are   52 randomized atomic wfcs

     total cpu time spent up to now is       37.3 secs

     Self-consistent Calculation

     iteration #  1     ecut=    70.00 Ry     beta= 0.70
     Davidson diagonalization with overlap
     ethr =  1.00E-02,  avg # of iterations =  3.6

     total cpu time spent up to now is      135.3 secs

     total energy              =    -826.55335942 Ry
     estimated scf accuracy    <       2.62990123 Ry

     iteration #  2     ecut=    70.00 Ry     beta= 0.70
     Davidson diagonalization with overlap
     ethr =  3.29E-03,  avg # of iterations =  2.0

     total cpu time spent up to now is      219.3 secs

     total energy              =    -827.33736093 Ry
     estimated scf accuracy    <       1.09532570 Ry

     iteration #  3     ecut=    70.00 Ry     beta= 0.70
     Davidson diagonalization with overlap
     ethr =  1.37E-03,  avg # of iterations =  2.0

     total cpu time spent up to now is      292.1 secs

     total energy              =    -827.60981707 Ry
     estimated scf accuracy    <       0.06097135 Ry

     iteration #  4     ecut=    70.00 Ry     beta= 0.70
     Davidson diagonalization with overlap
     ethr =  7.62E-05,  avg # of iterations =  3.4

     total cpu time spent up to now is      384.7 secs

     total energy              =    -827.62089679 Ry
     estimated scf accuracy    <       0.00303664 Ry

     iteration #  5     ecut=    70.00 Ry     beta= 0.70
     Davidson diagonalization with overlap
     ethr =  3.80E-06,  avg # of iterations =  5.0

     total cpu time spent up to now is      491.7 secs

     total energy              =    -827.62157077 Ry
     estimated scf accuracy    <       0.00081066 Ry

     iteration #  6     ecut=    70.00 Ry     beta= 0.70
     Davidson diagonalization with overlap
     ethr =  1.01E-06,  avg # of iterations =  2.2

     total cpu time spent up to now is      575.9 secs

     total energy              =    -827.62174578 Ry
     estimated scf accuracy    <       0.00004499 Ry

     iteration #  7     ecut=    70.00 Ry     beta= 0.70
     Davidson diagonalization with overlap
     ethr =  5.62E-08,  avg # of iterations =  5.0

     total cpu time spent up to now is      688.4 secs

     total energy              =    -827.62177457 Ry
     estimated scf accuracy    <       0.00000271 Ry

     iteration #  8     ecut=    70.00 Ry     beta= 0.70
     Davidson diagonalization with overlap
     ethr =  3.39E-09,  avg # of iterations =  3.2

     total cpu time spent up to now is      787.3 secs

     total energy              =    -827.62177564 Ry
     estimated scf accuracy    <       0.00000043 Ry

     iteration #  9     ecut=    70.00 Ry     beta= 0.70
     Davidson diagonalization with overlap
     ethr =  5.40E-10,  avg # of iterations =  3.2

     total cpu time spent up to now is      896.5 secs

     End of self-consistent calculation

          k = 0.0000 0.0000 0.0000 ( 14103 PWs)   bands (ev):

   -13.2682 -13.2563 -13.2532 -13.2506 -13.2505 -13.2465 -13.2435 -13.2396
   -13.2353 -13.2344 -13.2338 -13.2267 -13.2193 -13.2129 -13.1983 -13.1932
   -13.1884 -13.1846 -13.1768 -13.1675  -5.7459  -5.3957  -4.6587  -4.1588
     0.8110   1.9490   2.5400   3.0754   3.2304   4.6637   4.7021   4.7768
     5.1824   5.2389   5.8113   6.3114   6.5362   6.9890   7.4008   7.5698
     8.8493  10.9514  11.0996  11.1322  11.3569  11.4506  12.3343  12.6291
    12.7023  12.7423

     occupation numbers 
     1.0000   1.0000   1.0000   1.0000   1.0000   1.0000   1.0000   1.0000
     1.0000   1.0000   1.0000   1.0000   1.0000   1.0000   1.0000   1.0000
     1.0000   1.0000   1.0000   1.0000   1.0000   1.0000   1.0000   1.0000
     1.0000   1.0000   1.0000   1.0000   1.0000   1.0000   1.0000   1.0000
     1.0000   1.0000   1.0000   1.0000   1.0000   1.0000   1.0000   1.0000
     0.0000   0.0000   0.0000   0.0000   0.0000   0.0000   0.0000   0.0000
     0.0000   0.0000

          k = 0.0000 0.0000 0.4269 ( 14131 PWs)   bands (ev):

   -13.2666 -13.2550 -13.2534 -13.2519 -13.2497 -13.2485 -13.2441 -13.2405
   -13.2347 -13.2326 -13.2302 -13.2271 -13.2184 -13.2136 -13.1984 -13.1925
   -13.1895 -13.1853 -13.1762 -13.1681  -5.6277  -5.2875  -4.6452  -4.1906
     0.4464   1.7107   1.9313   2.6886   3.2164   4.8187   4.8446   5.3354
     5.3457   5.9062   5.9281   6.5183   6.5923   7.0991   7.4475   7.5870
     8.9713  10.0940  10.7256  10.9022  11.1415  11.4571  11.9009  12.0692
    12.5320  12.7679

     occupation numbers 
     1.0000   1.0000   1.0000   1.0000   1.0000   1.0000   1.0000   1.0000
     1.0000   1.0000   1.0000   1.0000   1.0000   1.0000   1.0000   1.0000
     1.0000   1.0000   1.0000   1.0000   1.0000   1.0000   1.0000   1.0000
     1.0000   1.0000   1.0000   1.0000   1.0000   1.0000   1.0000   1.0000
     1.0000   1.0000   1.0000   1.0000   1.0000   1.0000   1.0000   1.0000
     0.0000   0.0000   0.0000   0.0000   0.0000   0.0000   0.0000   0.0000
     0.0000   0.0000

          k = 0.0000 0.0000 0.8538 ( 14118 PWs)   bands (ev):

   -13.2626 -13.2547 -13.2542 -13.2523 -13.2521 -13.2487 -13.2451 -13.2428
   -13.2328 -13.2283 -13.2264 -13.2238 -13.2176 -13.2155 -13.1976 -13.1920
   -13.1908 -13.1871 -13.1744 -13.1698  -5.3120  -4.9961  -4.6888  -4.3310
    -0.0227   0.8106   1.3649   1.9824   3.6441   5.0243   5.3388   5.7839
     6.1138   6.1245   6.3715   6.6085   6.8450   7.4418   7.5930   8.1000
     8.9969   9.5559   9.5821   9.7386  10.4722  10.5767  11.0917  11.2231
    11.9935  12.1193

     occupation numbers 
     1.0000   1.0000   1.0000   1.0000   1.0000   1.0000   1.0000   1.0000
     1.0000   1.0000   1.0000   1.0000   1.0000   1.0000   1.0000   1.0000
     1.0000   1.0000   1.0000   1.0000   1.0000   1.0000   1.0000   1.0000
     1.0000   1.0000   1.0000   1.0000   1.0000   1.0000   1.0000   1.0000
     1.0000   1.0000   1.0000   1.0000   1.0000   1.0000   1.0000   1.0000
     0.0000   0.0000   0.0000   0.0000   0.0000   0.0000   0.0000   0.0000
     0.0000   0.0000

          k = 0.0000 0.0000-1.2807 ( 14138 PWs)   bands (ev):

   -13.2580 -13.2580 -13.2547 -13.2547 -13.2496 -13.2496 -13.2449 -13.2449
   -13.2303 -13.2303 -13.2201 -13.2201 -13.2188 -13.2188 -13.1951 -13.1951
   -13.1889 -13.1889 -13.1720 -13.1720  -4.9315  -4.9315  -4.6268  -4.6268
     0.0662   0.0662   1.4336   1.4336   4.3909   4.3909   5.9299   5.9299
     6.3069   6.3069   6.6793   6.6793   7.2609   7.2609   7.7977   7.7977
     9.3222   9.3222   9.6518   9.6518   9.7892   9.7892  10.7609  10.7609
    11.2253  11.2253

     occupation numbers 
     1.0000   1.0000   1.0000   1.0000   1.0000   1.0000   1.0000   1.0000
     1.0000   1.0000   1.0000   1.0000   1.0000   1.0000   1.0000   1.0000
     1.0000   1.0000   1.0000   1.0000   1.0000   1.0000   1.0000   1.0000
     1.0000   1.0000   1.0000   1.0000   1.0000   1.0000   1.0000   1.0000
     1.0000   1.0000   1.0000   1.0000   1.0000   1.0000   1.0000   1.0000
     0.0000   0.0000   0.0000   0.0000   0.0000   0.0000   0.0000   0.0000
     0.0000   0.0000

          k = 0.0000 0.4527 0.0000 ( 14113 PWs)   bands (ev):

   -13.2621 -13.2543 -13.2527 -13.2498 -13.2483 -13.2478 -13.2475 -13.2423
   -13.2381 -13.2318 -13.2305 -13.2289 -13.2155 -13.2140 -13.1954 -13.1948
   -13.1879 -13.1864 -13.1769 -13.1697  -5.5977  -5.2703  -4.5968  -4.1702
     0.6098   1.5564   2.3404   2.3702   3.2407   4.6343   4.9623   5.0880
     5.1740   5.3992   6.1251   6.3946   6.5251   7.4129   7.4275   7.4283
     9.0702   9.9278  10.8647  11.1285  11.2210  11.4501  11.8179  11.8710
    12.5546  13.1373

     occupation numbers 
     1.0000   1.0000   1.0000   1.0000   1.0000   1.0000   1.0000   1.0000
     1.0000   1.0000   1.0000   1.0000   1.0000   1.0000   1.0000   1.0000
     1.0000   1.0000   1.0000   1.0000   1.0000   1.0000   1.0000   1.0000
     1.0000   1.0000   1.0000   1.0000   1.0000   1.0000   1.0000   1.0000
     1.0000   1.0000   1.0000   1.0000   1.0000   1.0000   1.0000   1.0000
     0.0000   0.0000   0.0000   0.0000   0.0000   0.0000   0.0000   0.0000
     0.0000   0.0000

          k = 0.0000 0.4527 0.4269 ( 14113 PWs)   bands (ev):

   -13.2618 -13.2544 -13.2541 -13.2494 -13.2488 -13.2483 -13.2467 -13.2444
   -13.2374 -13.2306 -13.2290 -13.2264 -13.2162 -13.2132 -13.1958 -13.1938
   -13.1885 -13.1874 -13.1763 -13.1701  -5.4840  -5.1672  -4.5820  -4.1923
     0.4174   1.5348   1.8464   2.2901   3.3521   4.1006   4.3249   5.4218
     5.5920   5.9099   6.0303   6.3504   7.0706   7.2022   7.5513   7.6539
     9.1843   9.6440  10.1416  10.1806  11.1821  11.3137  11.8771  12.0785
    12.5643  12.9657

     occupation numbers 
     1.0000   1.0000   1.0000   1.0000   1.0000   1.0000   1.0000   1.0000
     1.0000   1.0000   1.0000   1.0000   1.0000   1.0000   1.0000   1.0000
     1.0000   1.0000   1.0000   1.0000   1.0000   1.0000   1.0000   1.0000
     1.0000   1.0000   1.0000   1.0000   1.0000   1.0000   1.0000   1.0000
     1.0000   1.0000   1.0000   1.0000   1.0000   1.0000   1.0000   1.0000
     0.0000   0.0000   0.0000   0.0000   0.0000   0.0000   0.0000   0.0000
     0.0000   0.0000

          k = 0.0000 0.4527 0.8538 ( 14097 PWs)   bands (ev):

   -13.2615 -13.2580 -13.2535 -13.2509 -13.2491 -13.2484 -13.2475 -13.2454
   -13.2351 -13.2314 -13.2235 -13.2208 -13.2169 -13.2134 -13.1951 -13.1923
   -13.1903 -13.1891 -13.1748 -13.1712  -5.1837  -4.8936  -4.6153  -4.3030
     0.1283   0.9282   1.4481   1.9230   3.7924   4.0946   4.2789   5.3098
     5.4677   5.8005   6.2082   6.6193   7.0333   7.3114   7.3992   7.6187
     9.1862   9.4904   9.9483  10.2728  10.7641  11.1139  11.3041  12.3507
    12.6214  12.9036

     occupation numbers 
     1.0000   1.0000   1.0000   1.0000   1.0000   1.0000   1.0000   1.0000
     1.0000   1.0000   1.0000   1.0000   1.0000   1.0000   1.0000   1.0000
     1.0000   1.0000   1.0000   1.0000   1.0000   1.0000   1.0000   1.0000
     1.0000   1.0000   1.0000   1.0000   1.0000   1.0000   1.0000   1.0000
     1.0000   1.0000   1.0000   1.0000   1.0000   1.0000   1.0000   1.0000
     0.0000   0.0000   0.0000   0.0000   0.0000   0.0000   0.0000   0.0000
     0.0000   0.0000

          k = 0.0000 0.4527-1.2807 ( 14110 PWs)   bands (ev):

   -13.2607 -13.2607 -13.2520 -13.2520 -13.2504 -13.2504 -13.2458 -13.2458
   -13.2329 -13.2329 -13.2189 -13.2189 -13.2158 -13.2158 -13.1928 -13.1928
   -13.1907 -13.1907 -13.1729 -13.1729  -4.8311  -4.8311  -4.5577  -4.5577
     0.2529   0.2529   1.5394   1.5394   4.3061   4.3061   4.7839   4.7839
     5.3258   5.3258   6.2945   6.2945   7.1472   7.1472   7.5547   7.5547
     9.2791   9.2791  10.0900  10.0900  11.2584  11.2584  11.7208  11.7208
    12.2936  12.2936

     occupation numbers 
     1.0000   1.0000   1.0000   1.0000   1.0000   1.0000   1.0000   1.0000
     1.0000   1.0000   1.0000   1.0000   1.0000   1.0000   1.0000   1.0000
     1.0000   1.0000   1.0000   1.0000   1.0000   1.0000   1.0000   1.0000
     1.0000   1.0000   1.0000   1.0000   1.0000   1.0000   1.0000   1.0000
     1.0000   1.0000   1.0000   1.0000   1.0000   1.0000   1.0000   1.0000
     0.0000   0.0000   0.0000   0.0000   0.0000   0.0000   0.0000   0.0000
     0.0000   0.0000

          k = 0.0000 0.9054 0.0000 ( 14091 PWs)   bands (ev):

   -13.2588 -13.2562 -13.2555 -13.2535 -13.2451 -13.2449 -13.2432 -13.2391
   -13.2369 -13.2345 -13.2296 -13.2203 -13.2183 -13.2101 -13.1995 -13.1977
   -13.1884 -13.1820 -13.1765 -13.1742  -5.1947  -4.9498  -4.5094  -4.3006
     0.2652   1.0180   1.1503   1.6788   3.7023   4.9707   5.3120   5.4420
     5.5129   5.7669   6.3568   6.5062   6.8482   7.1975   7.3277   7.9128
     8.6727   9.5500   9.8458   9.8694  10.1033  10.6274  10.6759  11.5174
    11.8987  12.2761

     occupation numbers 
     1.0000   1.0000   1.0000   1.0000   1.0000   1.0000   1.0000   1.0000
     1.0000   1.0000   1.0000   1.0000   1.0000   1.0000   1.0000   1.0000
     1.0000   1.0000   1.0000   1.0000   1.0000   1.0000   1.0000   1.0000
     1.0000   1.0000   1.0000   1.0000   1.0000   1.0000   1.0000   1.0000
     1.0000   1.0000   1.0000   1.0000   1.0000   1.0000   1.0000   1.0000
     0.0000   0.0000   0.0000   0.0000   0.0000   0.0000   0.0000   0.0000
     0.0000   0.0000

          k = 0.0000 0.9054 0.4269 ( 14068 PWs)   bands (ev):

   -13.2622 -13.2593 -13.2569 -13.2550 -13.2458 -13.2425 -13.2423 -13.2389
   -13.2356 -13.2341 -13.2276 -13.2189 -13.2184 -13.2101 -13.1988 -13.1972
   -13.1884 -13.1829 -13.1761 -13.1740  -5.0979  -4.8649  -4.4851  -4.2895
     0.3399   1.1587   1.2316   1.6070   3.8359   3.9313   4.2974   5.1342
     5.5222   5.8398   6.1376   6.4902   6.6520   7.1562   7.2957   7.3762
     9.1183   9.5070   9.6885  10.0184  10.8082  11.3535  11.5174  12.0197
    12.4950  12.8354

     occupation numbers 
     1.0000   1.0000   1.0000   1.0000   1.0000   1.0000   1.0000   1.0000
     1.0000   1.0000   1.0000   1.0000   1.0000   1.0000   1.0000   1.0000
     1.0000   1.0000   1.0000   1.0000   1.0000   1.0000   1.0000   1.0000
     1.0000   1.0000   1.0000   1.0000   1.0000   1.0000   1.0000   1.0000
     1.0000   1.0000   1.0000   1.0000   1.0000   1.0000   1.0000   1.0000
     0.0000   0.0000   0.0000   0.0000   0.0000   0.0000   0.0000   0.0000
     0.0000   0.0000

          k = 0.0000 0.9054 0.8538 ( 14112 PWs)   bands (ev):

   -13.2674 -13.2653 -13.2602 -13.2592 -13.2446 -13.2414 -13.2400 -13.2387
   -13.2337 -13.2333 -13.2233 -13.2184 -13.2153 -13.2107 -13.1974 -13.1964
   -13.1879 -13.1845 -13.1752 -13.1739  -4.8541  -4.6523  -4.4746  -4.3033
     0.5075   1.1416   1.4846   1.5841   3.2529   3.6312   4.0729   4.3202
     4.8125   5.2017   5.5150   5.9060   6.2218   6.4862   6.9817   7.2679
     9.0692  10.7093  11.0505  11.2262  11.7011  11.7017  12.5119  12.6808
    13.0206  13.1334

     occupation numbers 
     1.0000   1.0000   1.0000   1.0000   1.0000   1.0000   1.0000   1.0000
     1.0000   1.0000   1.0000   1.0000   1.0000   1.0000   1.0000   1.0000
     1.0000   1.0000   1.0000   1.0000   1.0000   1.0000   1.0000   1.0000
     1.0000   1.0000   1.0000   1.0000   1.0000   1.0000   1.0000   1.0000
     1.0000   1.0000   1.0000   1.0000   1.0000   1.0000   1.0000   1.0000
     0.0000   0.0000   0.0000   0.0000   0.0000   0.0000   0.0000   0.0000
     0.0000   0.0000

          k = 0.0000 0.9054-1.2807 ( 14124 PWs)   bands (ev):

   -13.2689 -13.2689 -13.2616 -13.2616 -13.2427 -13.2427 -13.2388 -13.2388
   -13.2328 -13.2328 -13.2197 -13.2197 -13.2122 -13.2122 -13.1963 -13.1963
   -13.1863 -13.1863 -13.1743 -13.1743  -4.5975  -4.5975  -4.4263  -4.4263
     0.7590   0.7590   1.6657   1.6657   3.4402   3.4402   3.8580   3.8580
     4.7520   4.7520   5.4196   5.4196   6.0374   6.0374   6.9413   6.9413
    10.0426  10.0426  11.6695  11.6695  12.7847  12.7847  12.8411  12.8411
    12.9941  12.9941

     occupation numbers 
     1.0000   1.0000   1.0000   1.0000   1.0000   1.0000   1.0000   1.0000
     1.0000   1.0000   1.0000   1.0000   1.0000   1.0000   1.0000   1.0000
     1.0000   1.0000   1.0000   1.0000   1.0000   1.0000   1.0000   1.0000
     1.0000   1.0000   1.0000   1.0000   1.0000   1.0000   1.0000   1.0000
     1.0000   1.0000   1.0000   1.0000   1.0000   1.0000   1.0000   1.0000
     0.0000   0.0000   0.0000   0.0000   0.0000   0.0000   0.0000   0.0000
     0.0000   0.0000

          k = 0.0000-1.3581 0.0000 ( 14046 PWs)   bands (ev):

   -13.2605 -13.2605 -13.2565 -13.2565 -13.2417 -13.2417 -13.2398 -13.2398
   -13.2309 -13.2309 -13.2272 -13.2272 -13.2096 -13.2096 -13.2049 -13.2049
   -13.1805 -13.1805 -13.1779 -13.1779  -4.6818  -4.6818  -4.6184  -4.6184
     0.3600   0.3600   1.0566   1.0566   4.4851   4.4851   5.8498   5.8498
     5.8649   5.8649   6.3773   6.3773   7.1084   7.1084   7.3077   7.3077
     9.1101   9.1101   9.5457   9.5457   9.8205   9.8205  10.6270  10.6270
    11.3364  11.3364

     occupation numbers 
     1.0000   1.0000   1.0000   1.0000   1.0000   1.0000   1.0000   1.0000
     1.0000   1.0000   1.0000   1.0000   1.0000   1.0000   1.0000   1.0000
     1.0000   1.0000   1.0000   1.0000   1.0000   1.0000   1.0000   1.0000
     1.0000   1.0000   1.0000   1.0000   1.0000   1.0000   1.0000   1.0000
     1.0000   1.0000   1.0000   1.0000   1.0000   1.0000   1.0000   1.0000
     0.0000   0.0000   0.0000   0.0000   0.0000   0.0000   0.0000   0.0000
     0.0000   0.0000

          k = 0.0000-1.3581 0.4269 ( 14058 PWs)   bands (ev):

   -13.2638 -13.2638 -13.2589 -13.2589 -13.2416 -13.2416 -13.2380 -13.2380
   -13.2305 -13.2305 -13.2259 -13.2259 -13.2105 -13.2105 -13.2030 -13.2030
   -13.1813 -13.1813 -13.1771 -13.1771  -4.6219  -4.6219  -4.5658  -4.5658
     0.5228   0.5228   1.1559   1.1559   4.3388   4.3388   4.6826   4.6826
     5.3957   5.3957   6.2247   6.2247   6.5242   6.5242   7.4495   7.4495
     8.9829   8.9829  10.1633  10.1633  11.0841  11.0841  11.6277  11.6277
    12.2880  12.2880

     occupation numbers 
     1.0000   1.0000   1.0000   1.0000   1.0000   1.0000   1.0000   1.0000
     1.0000   1.0000   1.0000   1.0000   1.0000   1.0000   1.0000   1.0000
     1.0000   1.0000   1.0000   1.0000   1.0000   1.0000   1.0000   1.0000
     1.0000   1.0000   1.0000   1.0000   1.0000   1.0000   1.0000   1.0000
     1.0000   1.0000   1.0000   1.0000   1.0000   1.0000   1.0000   1.0000
     0.0000   0.0000   0.0000   0.0000   0.0000   0.0000   0.0000   0.0000
     0.0000   0.0000

          k = 0.0000-1.3581 0.8538 ( 14086 PWs)   bands (ev):

   -13.2702 -13.2702 -13.2637 -13.2637 -13.2411 -13.2411 -13.2354 -13.2354
   -13.2296 -13.2296 -13.2238 -13.2238 -13.2106 -13.2106 -13.2002 -13.2002
   -13.1821 -13.1821 -13.1762 -13.1762  -4.4927  -4.4927  -4.4583  -4.4583
     0.9506   0.9506   1.3627   1.3627   3.4448   3.4448   3.9823   3.9823
     4.6938   4.6938   5.5265   5.5265   5.7397   5.7397   6.9351   6.9351
    10.0274  10.0274  11.5333  11.5333  12.5150  12.5150  12.6265  12.6265
    12.8941  12.8941

     occupation numbers 
     1.0000   1.0000   1.0000   1.0000   1.0000   1.0000   1.0000   1.0000
     1.0000   1.0000   1.0000   1.0000   1.0000   1.0000   1.0000   1.0000
     1.0000   1.0000   1.0000   1.0000   1.0000   1.0000   1.0000   1.0000
     1.0000   1.0000   1.0000   1.0000   1.0000   1.0000   1.0000   1.0000
     1.0000   1.0000   1.0000   1.0000   1.0000   1.0000   1.0000   1.0000
     0.0000   0.0000   0.0000   0.0000   0.0000   0.0000   0.0000   0.0000
     0.0000   0.0000

          k = 0.0000-1.3581-1.2807 ( 14104 PWs)   bands (ev):

   -13.2732 -13.2732 -13.2661 -13.2661 -13.2410 -13.2410 -13.2343 -13.2343
   -13.2290 -13.2290 -13.2231 -13.2231 -13.2101 -13.2101 -13.1991 -13.1991
   -13.1822 -13.1822 -13.1758 -13.1758  -4.4180  -4.4180  -4.4081  -4.4081
     1.2910   1.2910   1.4410   1.4410   3.0376   3.0376   3.5536   3.5536
     4.4685   4.4685   4.9499   4.9499   5.8017   5.8017   6.6436   6.6436
    10.8676  10.8676  11.1755  11.1755  12.8453  12.8453  12.9778  12.9778
    13.7127  13.7127

     occupation numbers 
     1.0000   1.0000   1.0000   1.0000   1.0000   1.0000   1.0000   1.0000
     1.0000   1.0000   1.0000   1.0000   1.0000   1.0000   1.0000   1.0000
     1.0000   1.0000   1.0000   1.0000   1.0000   1.0000   1.0000   1.0000
     1.0000   1.0000   1.0000   1.0000   1.0000   1.0000   1.0000   1.0000
     1.0000   1.0000   1.0000   1.0000   1.0000   1.0000   1.0000   1.0000
     0.0000   0.0000   0.0000   0.0000   0.0000   0.0000   0.0000   0.0000
     0.0000   0.0000

          k =-0.5000 0.0000 0.0000 ( 14146 PWs)   bands (ev):

   -13.2625 -13.2625 -13.2525 -13.2525 -13.2492 -13.2492 -13.2408 -13.2408
   -13.2333 -13.2333 -13.2315 -13.2315 -13.2161 -13.2161 -13.1957 -13.1957
   -13.1863 -13.1863 -13.1718 -13.1718  -5.6062  -5.6062  -4.3737  -4.3737
     1.1513   1.1513   3.0235   3.0235   4.0128   4.0128   4.8553   4.8553
     5.2131   5.2131   6.0080   6.0080   6.2392   6.2392   7.5330   7.5330
    10.6758  10.6758  10.8762  10.8762  11.7681  11.7681  11.9992  11.9992
    13.0948  13.0948

     occupation numbers 
     1.0000   1.0000   1.0000   1.0000   1.0000   1.0000   1.0000   1.0000
     1.0000   1.0000   1.0000   1.0000   1.0000   1.0000   1.0000   1.0000
     1.0000   1.0000   1.0000   1.0000   1.0000   1.0000   1.0000   1.0000
     1.0000   1.0000   1.0000   1.0000   1.0000   1.0000   1.0000   1.0000
     1.0000   1.0000   1.0000   1.0000   1.0000   1.0000   1.0000   1.0000
     0.0000   0.0000   0.0000   0.0000   0.0000   0.0000   0.0000   0.0000
     0.0000   0.0000

          k =-0.5000 0.0000 0.4269 ( 14070 PWs)   bands (ev):

   -13.2615 -13.2615 -13.2515 -13.2515 -13.2504 -13.2504 -13.2422 -13.2422
   -13.2310 -13.2310 -13.2307 -13.2307 -13.2162 -13.2162 -13.1956 -13.1956
   -13.1870 -13.1870 -13.1719 -13.1719  -5.4930  -5.4930  -4.3824  -4.3824
     0.8266   0.8266   2.4655   2.4655   4.2523   4.2523   5.0298   5.0298
     5.4494   5.4494   6.3244   6.3244   6.5532   6.5532   7.4483   7.4483
    10.3856  10.3856  11.0375  11.0375  11.0717  11.0717  11.5706  11.5706
    12.9461  12.9462

     occupation numbers 
     1.0000   1.0000   1.0000   1.0000   1.0000   1.0000   1.0000   1.0000
     1.0000   1.0000   1.0000   1.0000   1.0000   1.0000   1.0000   1.0000
     1.0000   1.0000   1.0000   1.0000   1.0000   1.0000   1.0000   1.0000
     1.0000   1.0000   1.0000   1.0000   1.0000   1.0000   1.0000   1.0000
     1.0000   1.0000   1.0000   1.0000   1.0000   1.0000   1.0000   1.0000
     0.0000   0.0000   0.0000   0.0000   0.0000   0.0000   0.0000   0.0000
     0.0000   0.0000

          k =-0.5000 0.0000 0.8538 ( 14104 PWs)   bands (ev):

   -13.2592 -13.2592 -13.2528 -13.2528 -13.2501 -13.2501 -13.2448 -13.2448
   -13.2302 -13.2302 -13.2247 -13.2247 -13.2169 -13.2169 -13.1951 -13.1951
   -13.1885 -13.1885 -13.1720 -13.1720  -5.1952  -5.1952  -4.4692  -4.4692
     0.3276   0.3276   1.6294   1.6294   4.6958   4.6958   5.4994   5.4994
     5.8610   5.8610   6.4270   6.4270   6.9830   6.9830   7.7561   7.7561
     9.5835   9.5835  10.0723  10.0723  10.4131  10.4131  11.5178  11.5178
    11.7114  11.7114

     occupation numbers 
     1.0000   1.0000   1.0000   1.0000   1.0000   1.0000   1.0000   1.0000
     1.0000   1.0000   1.0000   1.0000   1.0000   1.0000   1.0000   1.0000
     1.0000   1.0000   1.0000   1.0000   1.0000   1.0000   1.0000   1.0000
     1.0000   1.0000   1.0000   1.0000   1.0000   1.0000   1.0000   1.0000
     1.0000   1.0000   1.0000   1.0000   1.0000   1.0000   1.0000   1.0000
     0.0000   0.0000   0.0000   0.0000   0.0000   0.0000   0.0000   0.0000
     0.0000   0.0000

          k =-0.5000 0.0000-1.2807 ( 14092 PWs)   bands (ev):

   -13.2578 -13.2578 -13.2540 -13.2540 -13.2499 -13.2499 -13.2461 -13.2461
   -13.2298 -13.2298 -13.2197 -13.2197 -13.2191 -13.2191 -13.1947 -13.1947
   -13.1892 -13.1892 -13.1721 -13.1721  -4.9284  -4.9284  -4.6313  -4.6313
     0.1460   0.1460   1.2469   1.2469   5.2431   5.2431   5.4906   5.4906
     5.9432   5.9432   6.2873   6.2873   7.5414   7.5414   7.8130   7.8130
     9.3020   9.3020   9.7149   9.7149   9.7706   9.7706  11.1182  11.1182
    11.4683  11.4683

     occupation numbers 
     1.0000   1.0000   1.0000   1.0000   1.0000   1.0000   1.0000   1.0000
     1.0000   1.0000   1.0000   1.0000   1.0000   1.0000   1.0000   1.0000
     1.0000   1.0000   1.0000   1.0000   1.0000   1.0000   1.0000   1.0000
     1.0000   1.0000   1.0000   1.0000   1.0000   1.0000   1.0000   1.0000
     1.0000   1.0000   1.0000   1.0000   1.0000   1.0000   1.0000   1.0000
     0.0000   0.0000   0.0000   0.0000   0.0000   0.0000   0.0000   0.0000
     0.0000   0.0000

          k =-0.5000 0.4527 0.0000 ( 14100 PWs)   bands (ev):

   -13.2581 -13.2581 -13.2514 -13.2514 -13.2495 -13.2495 -13.2440 -13.2440
   -13.2344 -13.2344 -13.2297 -13.2297 -13.2150 -13.2150 -13.1945 -13.1945
   -13.1876 -13.1876 -13.1731 -13.1731  -5.4663  -5.4663  -4.3504  -4.3504
     0.9297   0.9297   2.4353   2.4353   4.1471   4.1471   4.8573   4.8573
     5.5296   5.5296   6.1243   6.1243   6.3948   6.3948   7.5913   7.5913
    10.3742  10.3742  10.8679  10.8679  11.3496  11.3496  11.5974  11.5974
    12.8757  12.8757

     occupation numbers 
     1.0000   1.0000   1.0000   1.0000   1.0000   1.0000   1.0000   1.0000
     1.0000   1.0000   1.0000   1.0000   1.0000   1.0000   1.0000   1.0000
     1.0000   1.0000   1.0000   1.0000   1.0000   1.0000   1.0000   1.0000
     1.0000   1.0000   1.0000   1.0000   1.0000   1.0000   1.0000   1.0000
     1.0000   1.0000   1.0000   1.0000   1.0000   1.0000   1.0000   1.0000
     0.0000   0.0000   0.0000   0.0000   0.0000   0.0000   0.0000   0.0000
     0.0000   0.0000

          k =-0.5000 0.4527 0.4269 ( 14104 PWs)   bands (ev):

   -13.2582 -13.2582 -13.2525 -13.2525 -13.2487 -13.2487 -13.2450 -13.2450
   -13.2338 -13.2338 -13.2274 -13.2274 -13.2151 -13.2151 -13.1943 -13.1943
   -13.1884 -13.1884 -13.1729 -13.1729  -5.3578  -5.3578  -4.3543  -4.3543
     0.7833   0.7833   2.1682   2.1682   4.1295   4.1295   4.6530   4.6530
     5.4438   5.4438   6.2615   6.2615   7.0748   7.0748   7.5529   7.5529
     9.6830   9.6830  10.7542  10.7542  11.2321  11.2321  11.6446  11.6446
    12.4769  12.4769

     occupation numbers 
     1.0000   1.0000   1.0000   1.0000   1.0000   1.0000   1.0000   1.0000
     1.0000   1.0000   1.0000   1.0000   1.0000   1.0000   1.0000   1.0000
     1.0000   1.0000   1.0000   1.0000   1.0000   1.0000   1.0000   1.0000
     1.0000   1.0000   1.0000   1.0000   1.0000   1.0000   1.0000   1.0000
     1.0000   1.0000   1.0000   1.0000   1.0000   1.0000   1.0000   1.0000
     0.0000   0.0000   0.0000   0.0000   0.0000   0.0000   0.0000   0.0000
     0.0000   0.0000

          k =-0.5000 0.4527 0.8538 ( 14120 PWs)   bands (ev):

   -13.2589 -13.2589 -13.2549 -13.2549 -13.2478 -13.2478 -13.2456 -13.2456
   -13.2329 -13.2329 -13.2224 -13.2224 -13.2152 -13.2152 -13.1935 -13.1935
   -13.1903 -13.1903 -13.1726 -13.1726  -5.0757  -5.0757  -4.4224  -4.4224
     0.4682   0.4682   1.6533   1.6533   4.1805   4.1805   4.9873   4.9873
     5.2396   5.2396   6.4365   6.4365   6.8969   6.8969   7.5441   7.5441
     9.7396   9.7396  10.3756  10.3756  10.9204  10.9204  11.5649  11.5649
    12.5061  12.5061

     occupation numbers 
     1.0000   1.0000   1.0000   1.0000   1.0000   1.0000   1.0000   1.0000
     1.0000   1.0000   1.0000   1.0000   1.0000   1.0000   1.0000   1.0000
     1.0000   1.0000   1.0000   1.0000   1.0000   1.0000   1.0000   1.0000
     1.0000   1.0000   1.0000   1.0000   1.0000   1.0000   1.0000   1.0000
     1.0000   1.0000   1.0000   1.0000   1.0000   1.0000   1.0000   1.0000
     0.0000   0.0000   0.0000   0.0000   0.0000   0.0000   0.0000   0.0000
     0.0000   0.0000

          k =-0.5000 0.4527-1.2807 ( 14116 PWs)   bands (ev):

   -13.2596 -13.2596 -13.2559 -13.2559 -13.2477 -13.2477 -13.2454 -13.2454
   -13.2325 -13.2325 -13.2195 -13.2195 -13.2156 -13.2156 -13.1923 -13.1923
   -13.1919 -13.1919 -13.1725 -13.1725  -4.8283  -4.8283  -4.5615  -4.5615
     0.3228   0.3228   1.3809   1.3809   4.5925   4.5925   4.7883   4.7883
     5.5556   5.5556   5.9749   5.9749   6.8248   6.8248   7.3415   7.3415
    10.2018  10.2018  10.2589  10.2589  10.7878  10.7878  11.5273  11.5273
    12.4447  12.4447

     occupation numbers 
     1.0000   1.0000   1.0000   1.0000   1.0000   1.0000   1.0000   1.0000
     1.0000   1.0000   1.0000   1.0000   1.0000   1.0000   1.0000   1.0000
     1.0000   1.0000   1.0000   1.0000   1.0000   1.0000   1.0000   1.0000
     1.0000   1.0000   1.0000   1.0000   1.0000   1.0000   1.0000   1.0000
     1.0000   1.0000   1.0000   1.0000   1.0000   1.0000   1.0000   1.0000
     0.0000   0.0000   0.0000   0.0000   0.0000   0.0000   0.0000   0.0000
     0.0000   0.0000

          k =-0.5000 0.9054 0.0000 ( 14088 PWs)   bands (ev):

   -13.2583 -13.2583 -13.2537 -13.2537 -13.2441 -13.2441 -13.2428 -13.2428
   -13.2350 -13.2350 -13.2263 -13.2263 -13.2128 -13.2128 -13.1989 -13.1989
   -13.1849 -13.1849 -13.1754 -13.1754  -5.0938  -5.0938  -4.3824  -4.3824
     0.5646   0.5646   1.4043   1.4043   4.6050   4.6050   5.2261   5.2261
     5.9041   5.9041   6.2320   6.2320   6.5489   6.5489   7.6367   7.6367
     9.2243   9.2243  10.1308  10.1308  10.8905  10.8905  11.2854  11.2854
    11.6733  11.6733

     occupation numbers 
     1.0000   1.0000   1.0000   1.0000   1.0000   1.0000   1.0000   1.0000
     1.0000   1.0000   1.0000   1.0000   1.0000   1.0000   1.0000   1.0000
     1.0000   1.0000   1.0000   1.0000   1.0000   1.0000   1.0000   1.0000
     1.0000   1.0000   1.0000   1.0000   1.0000   1.0000   1.0000   1.0000
     1.0000   1.0000   1.0000   1.0000   1.0000   1.0000   1.0000   1.0000
     0.0000   0.0000   0.0000   0.0000   0.0000   0.0000   0.0000   0.0000
     0.0000   0.0000

          k =-0.5000 0.9054 0.4269 ( 14078 PWs)   bands (ev):

   -13.2607 -13.2607 -13.2563 -13.2563 -13.2433 -13.2433 -13.2418 -13.2418
   -13.2342 -13.2342 -13.2249 -13.2249 -13.2124 -13.2124 -13.1988 -13.1988
   -13.1851 -13.1851 -13.1751 -13.1751  -5.0026  -5.0026  -4.3655  -4.3655
     0.6610   0.6610   1.4305   1.4305   4.0804   4.0804   4.9037   4.9037
     5.3408   5.3408   6.3178   6.3178   6.6193   6.6193   7.3885   7.3885
     9.7133   9.7133  10.0893  10.0893  11.1651  11.1651  11.5644  11.5644
    12.0992  12.0992

     occupation numbers 
     1.0000   1.0000   1.0000   1.0000   1.0000   1.0000   1.0000   1.0000
     1.0000   1.0000   1.0000   1.0000   1.0000   1.0000   1.0000   1.0000
     1.0000   1.0000   1.0000   1.0000   1.0000   1.0000   1.0000   1.0000
     1.0000   1.0000   1.0000   1.0000   1.0000   1.0000   1.0000   1.0000
     1.0000   1.0000   1.0000   1.0000   1.0000   1.0000   1.0000   1.0000
     0.0000   0.0000   0.0000   0.0000   0.0000   0.0000   0.0000   0.0000
     0.0000   0.0000

          k =-0.5000 0.9054 0.8538 ( 14098 PWs)   bands (ev):

   -13.2653 -13.2653 -13.2610 -13.2610 -13.2423 -13.2423 -13.2401 -13.2401
   -13.2326 -13.2326 -13.2226 -13.2226 -13.2109 -13.2109 -13.1985 -13.1985
   -13.1854 -13.1854 -13.1746 -13.1746  -4.7767  -4.7767  -4.3656  -4.3656
     0.7960   0.7960   1.5061   1.5061   3.4926   3.4926   4.3746   4.3746
     4.9024   4.9024   5.5643   5.5643   6.3440   6.3440   7.0946   7.0946
    10.4143  10.4143  11.0014  11.0014  11.1978  11.1978  12.4974  12.4974
    12.6820  12.6820

     occupation numbers 
     1.0000   1.0000   1.0000   1.0000   1.0000   1.0000   1.0000   1.0000
     1.0000   1.0000   1.0000   1.0000   1.0000   1.0000   1.0000   1.0000
     1.0000   1.0000   1.0000   1.0000   1.0000   1.0000   1.0000   1.0000
     1.0000   1.0000   1.0000   1.0000   1.0000   1.0000   1.0000   1.0000
     1.0000   1.0000   1.0000   1.0000   1.0000   1.0000   1.0000   1.0000
     0.0000   0.0000   0.0000   0.0000   0.0000   0.0000   0.0000   0.0000
     0.0000   0.0000

          k =-0.5000 0.9054-1.2807 ( 14092 PWs)   bands (ev):

   -13.2675 -13.2675 -13.2634 -13.2634 -13.2419 -13.2419 -13.2395 -13.2395
   -13.2319 -13.2319 -13.2215 -13.2215 -13.2098 -13.2098 -13.1982 -13.1982
   -13.1855 -13.1855 -13.1743 -13.1743  -4.5957  -4.5957  -4.4285  -4.4285
     0.7945   0.7945   1.5956   1.5956   3.6149   3.6149   3.7071   3.7071
     4.9712   4.9712   5.0529   5.0529   6.3812   6.3812   6.7347   6.7347
    10.4912  10.4912  11.2695  11.2695  12.1368  12.1368  12.2362  12.2362
    13.5859  13.5859

     occupation numbers 
     1.0000   1.0000   1.0000   1.0000   1.0000   1.0000   1.0000   1.0000
     1.0000   1.0000   1.0000   1.0000   1.0000   1.0000   1.0000   1.0000
     1.0000   1.0000   1.0000   1.0000   1.0000   1.0000   1.0000   1.0000
     1.0000   1.0000   1.0000   1.0000   1.0000   1.0000   1.0000   1.0000
     1.0000   1.0000   1.0000   1.0000   1.0000   1.0000   1.0000   1.0000
     0.0000   0.0000   0.0000   0.0000   0.0000   0.0000   0.0000   0.0000
     0.0000   0.0000

          k =-0.5000-1.3581 0.0000 ( 14072 PWs)   bands (ev):

   -13.2587 -13.2587 -13.2587 -13.2587 -13.2409 -13.2409 -13.2409 -13.2409
   -13.2288 -13.2288 -13.2288 -13.2288 -13.2073 -13.2073 -13.2073 -13.2073
   -13.1792 -13.1792 -13.1792 -13.1792  -4.6507  -4.6507  -4.6507  -4.6507
     0.6675   0.6675   0.6675   0.6675   5.3020   5.3020   5.3020   5.3020
     5.9772   5.9772   5.9772   5.9772   7.0678   7.0678   7.0678   7.0678
     9.5793   9.5793   9.5793   9.5793  10.2421  10.2421  10.2421  10.2421
    12.0010  12.0010

     occupation numbers 
     1.0000   1.0000   1.0000   1.0000   1.0000   1.0000   1.0000   1.0000
     1.0000   1.0000   1.0000   1.0000   1.0000   1.0000   1.0000   1.0000
     1.0000   1.0000   1.0000   1.0000   1.0000   1.0000   1.0000   1.0000
     1.0000   1.0000   1.0000   1.0000   1.0000   1.0000   1.0000   1.0000
     1.0000   1.0000   1.0000   1.0000   1.0000   1.0000   1.0000   1.0000
     0.0000   0.0000   0.0000   0.0000   0.0000   0.0000   0.0000   0.0000
     0.0000   0.0000

          k =-0.5000-1.3581 0.4269 ( 14056 PWs)   bands (ev):

   -13.2615 -13.2615 -13.2615 -13.2615 -13.2401 -13.2401 -13.2401 -13.2401
   -13.2281 -13.2281 -13.2281 -13.2281 -13.2066 -13.2066 -13.2066 -13.2066
   -13.1791 -13.1791 -13.1791 -13.1791  -4.5943  -4.5943  -4.5943  -4.5943
     0.8046   0.8046   0.8046   0.8046   4.6671   4.6671   4.6671   4.6671
     5.6438   5.6438   5.6438   5.6438   6.8402   6.8402   6.8402   6.8402
     9.9098   9.9098   9.9098   9.9098  11.3276  11.3276  11.3276  11.3276
    12.2336  12.2336

     occupation numbers 
     1.0000   1.0000   1.0000   1.0000   1.0000   1.0000   1.0000   1.0000
     1.0000   1.0000   1.0000   1.0000   1.0000   1.0000   1.0000   1.0000
     1.0000   1.0000   1.0000   1.0000   1.0000   1.0000   1.0000   1.0000
     1.0000   1.0000   1.0000   1.0000   1.0000   1.0000   1.0000   1.0000
     1.0000   1.0000   1.0000   1.0000   1.0000   1.0000   1.0000   1.0000
     0.0000   0.0000   0.0000   0.0000   0.0000   0.0000   0.0000   0.0000
     0.0000   0.0000

          k =-0.5000-1.3581 0.8538 ( 14104 PWs)   bands (ev):

   -13.2670 -13.2670 -13.2670 -13.2670 -13.2389 -13.2389 -13.2389 -13.2389
   -13.2267 -13.2267 -13.2267 -13.2267 -13.2050 -13.2050 -13.2050 -13.2050
   -13.1789 -13.1789 -13.1789 -13.1789  -4.4757  -4.4757  -4.4757  -4.4757
     1.1366   1.1366   1.1366   1.1366   3.7644   3.7644   3.7644   3.7644
     4.8584   4.8584   4.8584   4.8584   6.5649   6.5649   6.5649   6.5649
    10.7492  10.7492  10.7492  10.7492  11.9950  11.9950  11.9950  11.9950
    13.7593  13.7593

     occupation numbers 
     1.0000   1.0000   1.0000   1.0000   1.0000   1.0000   1.0000   1.0000
     1.0000   1.0000   1.0000   1.0000   1.0000   1.0000   1.0000   1.0000
     1.0000   1.0000   1.0000   1.0000   1.0000   1.0000   1.0000   1.0000
     1.0000   1.0000   1.0000   1.0000   1.0000   1.0000   1.0000   1.0000
     1.0000   1.0000   1.0000   1.0000   1.0000   1.0000   1.0000   1.0000
     0.0000   0.0000   0.0000   0.0000   0.0000   0.0000   0.0000   0.0000
     0.0000   0.0000

          k =-0.5000-1.3581-1.2807 ( 14112 PWs)   bands (ev):

   -13.2696 -13.2696 -13.2696 -13.2696 -13.2386 -13.2386 -13.2386 -13.2386
   -13.2259 -13.2259 -13.2259 -13.2259 -13.2041 -13.2041 -13.2041 -13.2041
   -13.1787 -13.1787 -13.1787 -13.1787  -4.4130  -4.4130  -4.4130  -4.4130
     1.3470   1.3470   1.3470   1.3470   3.4562   3.4562   3.4562   3.4562
     4.3159   4.3159   4.3159   4.3159   6.5957   6.5957   6.5957   6.5957
    10.6247  10.6247  10.6247  10.6247  12.8395  12.8395  12.8395  12.8395
    14.6046  14.6046

     occupation numbers 
     1.0000   1.0000   1.0000   1.0000   1.0000   1.0000   1.0000   1.0000
     1.0000   1.0000   1.0000   1.0000   1.0000   1.0000   1.0000   1.0000
     1.0000   1.0000   1.0000   1.0000   1.0000   1.0000   1.0000   1.0000
     1.0000   1.0000   1.0000   1.0000   1.0000   1.0000   1.0000   1.0000
     1.0000   1.0000   1.0000   1.0000   1.0000   1.0000   1.0000   1.0000
     0.0000   0.0000   0.0000   0.0000   0.0000   0.0000   0.0000   0.0000
     0.0000   0.0000

     highest occupied, lowest unoccupied level (ev):     8.1000    8.6727

!    total energy              =    -827.62177581 Ry
     estimated scf accuracy    <          1.1E-09 Ry

     The total energy is the sum of the following terms:
     one-electron contribution =    -257.00599154 Ry
     hartree contribution      =     179.11133107 Ry
     xc contribution           =    -309.12229915 Ry
     ewald contribution        =    -440.60481620 Ry

     convergence has been achieved in   9 iterations

     Forces acting on atoms (cartesian axes, Ry/au):

     atom    1 type  2   force =     0.00805208    0.00000000   -0.00035979
     atom    2 type  1   force =    -0.00736205    0.00000000   -0.00105886
     atom    3 type  2   force =    -0.00805208    0.00000000   -0.00035979
     atom    4 type  1   force =     0.00736205   -0.00000000   -0.00105886
     atom    5 type  2   force =     0.00805208    0.00000000    0.00035979
     atom    6 type  1   force =    -0.00736205    0.00000000    0.00105886
     atom    7 type  2   force =    -0.00805208   -0.00000000    0.00035979
     atom    8 type  1   force =     0.00736205    0.00000000    0.00105886
     The non-local contrib.  to forces
     atom    1 type  2   force =    -0.11831696    0.00000000    0.09594220
     atom    2 type  1   force =     0.37324085    0.00000000    0.26604747
     atom    3 type  2   force =     0.11831696    0.00000000    0.09594220
     atom    4 type  1   force =    -0.37324085    0.00000000    0.26604747
     atom    5 type  2   force =    -0.11831696    0.00000000   -0.09594220
     atom    6 type  1   force =     0.37324085    0.00000000   -0.26604747
     atom    7 type  2   force =     0.11831696    0.00000000   -0.09594220
     atom    8 type  1   force =    -0.37324085    0.00000000   -0.26604747
     The ionic contribution  to forces
     atom    1 type  2   force =     1.53473235   -0.00000000   -1.05154455
     atom    2 type  1   force =    -1.03769718    0.00000000   -0.57506129
     atom    3 type  2   force =    -1.53473235   -0.00000000   -1.05154455
     atom    4 type  1   force =     1.03769718    0.00000000   -0.57506129
     atom    5 type  2   force =     1.53473235    0.00000000    1.05154455
     atom    6 type  1   force =    -1.03769718   -0.00000000    0.57506129
     atom    7 type  2   force =    -1.53473235   -0.00000000    1.05154455
     atom    8 type  1   force =     1.03769718    0.00000000    0.57506129
     The local contribution  to forces
     atom    1 type  2   force =    -1.42138514   -0.00000000    0.96583243
     atom    2 type  1   force =     0.66290250    0.00000000    0.31227726
     atom    3 type  2   force =     1.42138514   -0.00000000    0.96583243
     atom    4 type  1   force =    -0.66290250    0.00000000    0.31227726
     atom    5 type  2   force =    -1.42138514    0.00000000   -0.96583243
     atom    6 type  1   force =     0.66290250    0.00000000   -0.31227726
     atom    7 type  2   force =     1.42138514    0.00000000   -0.96583243
     atom    8 type  1   force =    -0.66290250    0.00000000   -0.31227726
     The core correction contribution to forces
     atom    1 type  2   force =     0.01299192    0.00000000   -0.01058984
     atom    2 type  1   force =    -0.00574829   -0.00000000   -0.00435244
     atom    3 type  2   force =    -0.01299192    0.00000000   -0.01058984
     atom    4 type  1   force =     0.00574829    0.00000000   -0.00435244
     atom    5 type  2   force =     0.01299192    0.00000000    0.01058984
     atom    6 type  1   force =    -0.00574829    0.00000000    0.00435244
     atom    7 type  2   force =    -0.01299192   -0.00000000    0.01058984
     atom    8 type  1   force =     0.00574829    0.00000000    0.00435244
     The Hubbard contrib.    to forces
     atom    1 type  2   force =     0.00000000    0.00000000    0.00000000
     atom    2 type  1   force =     0.00000000    0.00000000    0.00000000
     atom    3 type  2   force =     0.00000000    0.00000000    0.00000000
     atom    4 type  1   force =     0.00000000    0.00000000    0.00000000
     atom    5 type  2   force =     0.00000000    0.00000000    0.00000000
     atom    6 type  1   force =     0.00000000    0.00000000    0.00000000
     atom    7 type  2   force =     0.00000000    0.00000000    0.00000000
     atom    8 type  1   force =     0.00000000    0.00000000    0.00000000
     The SCF correction term to forces
     atom    1 type  2   force =     0.00002991   -0.00000000   -0.00000003
     atom    2 type  1   force =    -0.00005993    0.00000000    0.00003014
     atom    3 type  2   force =    -0.00002991    0.00000000   -0.00000003
     atom    4 type  1   force =     0.00005993    0.00000000    0.00003014
     atom    5 type  2   force =     0.00002991   -0.00000000    0.00000003
     atom    6 type  1   force =    -0.00005993   -0.00000000   -0.00003014
     atom    7 type  2   force =    -0.00002991   -0.00000000    0.00000003
     atom    8 type  1   force =     0.00005993    0.00000000   -0.00003014

     Total force =     0.021935     Total SCF correction =     0.000147

     Writing output data file ./tmp/SnSe_pnma.save/

     init_run     :     20.54s CPU     36.59s WALL (       1 calls)
     electrons    :    464.38s CPU    859.36s WALL (       1 calls)
     forces       :     14.18s CPU     34.34s WALL (       1 calls)

     Called by init_run:
     wfcinit      :     10.93s CPU     20.42s WALL (       1 calls)
     wfcinit:atom :      0.07s CPU      0.11s WALL (      11 calls)
     wfcinit:wfcr :     10.31s CPU     19.44s WALL (      11 calls)
     potinit      :      2.65s CPU      3.11s WALL (       1 calls)
     hinit0       :      4.17s CPU      5.23s WALL (       1 calls)

     Called by electrons:
     c_bands      :    376.10s CPU    698.41s WALL (       9 calls)
     sum_band     :     54.34s CPU     89.86s WALL (       9 calls)
     v_of_rho     :      7.74s CPU     10.20s WALL (      10 calls)
     v_h          :      0.59s CPU      0.83s WALL (      10 calls)
     v_xc         :      7.80s CPU     10.20s WALL (      11 calls)
     newd         :     26.80s CPU     66.00s WALL (      10 calls)
     mix_rho      :      1.00s CPU      1.18s WALL (       9 calls)

     Called by c_bands:
     init_us_2    :      2.43s CPU      3.89s WALL (     220 calls)
     cegterg      :    296.72s CPU    561.60s WALL (      99 calls)

     Called by sum_band:
     sum_band:wei :      0.13s CPU      0.18s WALL (       9 calls)
     sum_band:loo :     38.90s CPU     64.12s WALL (       9 calls)
     sum_band:buf :      0.21s CPU      0.24s WALL (      99 calls)
     sum_band:ini :      1.12s CPU      1.63s WALL (      99 calls)
     sum_band:cal :     10.23s CPU     20.84s WALL (      99 calls)
     sum_band:bec :      0.01s CPU      0.01s WALL (      99 calls)
     addusdens    :      9.78s CPU     17.69s WALL (       9 calls)
     addusd:skk   :      0.03s CPU      0.10s WALL (      18 calls)
     addusd:dgemm :      1.93s CPU      3.97s WALL (      18 calls)
     addusd:qvan2 :      5.94s CPU      9.72s WALL (      18 calls)

     Called by *egterg:
     cdiaghg      :     16.69s CPU     70.51s WALL (     445 calls)
     cegterg:over :     40.94s CPU     99.61s WALL (     346 calls)
     cegterg:upda :      5.38s CPU      6.63s WALL (     346 calls)
     cegterg:last :      9.46s CPU      8.05s WALL (     209 calls)
     h_psi        :    191.60s CPU    304.27s WALL (     456 calls)
     s_psi        :     10.14s CPU      8.76s WALL (     456 calls)
     g_psi        :      0.79s CPU      0.99s WALL (     346 calls)

     Called by h_psi:
     h_psi:calbec :     37.04s CPU     80.37s WALL (     456 calls)
     vloc_psi     :    143.39s CPU    213.77s WALL (     456 calls)
     add_vuspsi   :     10.58s CPU      9.00s WALL (     456 calls)

     General routines
     calbec       :     50.80s CPU    112.05s WALL (     599 calls)
     fft          :      6.45s CPU      8.11s WALL (     139 calls)
     ffts         :      0.32s CPU      0.48s WALL (      19 calls)
     fftw         :    150.00s CPU    224.36s WALL (   31998 calls)
     interpolate  :      0.63s CPU      0.80s WALL (      10 calls)

     Parallel routines
     fft_scatt_xy :     28.88s CPU     41.02s WALL (   32156 calls)
     fft_scatt_yz :     59.30s CPU     91.63s WALL (   32156 calls)

     PWSCF        :   8m20.04s CPU  15m31.97s WALL


   This run was terminated on:  11:17: 1  19May2026            

=------------------------------------------------------------------------------=
   JOB DONE.
=------------------------------------------------------------------------------=
