
     Program PWSCF v.6.7MaX starts on  5May2026 at 18:56:11 

     This program is part of the open-source Quantum ESPRESSO suite
     for quantum simulation of materials; please cite
         "P. Giannozzi et al., J. Phys.:Condens. Matter 21 395502 (2009);
         "P. Giannozzi et al., J. Phys.:Condens. Matter 29 465901 (2017);
          URL http://www.quantum-espresso.org", 
     in publications or presentations arising from this work. More details at
     http://www.quantum-espresso.org/quote

     Parallel version (MPI), running on     4 processors

     MPI processes distributed on     1 nodes
     K-points division:     npool     =       4
     Waiting for input...
     Reading input from standard input

     Current dimensions of program PWSCF are:
     Max number of different atomic species (ntypx) = 10
     Max number of k-points (npk) =  40000
     Max angular momentum in pseudopotentials (lmaxx) =  3

     Subspace diagonalization in iterative solution of the eigenvalue problem:
     a serial algorithm will be used


     G-vector sticks info
     --------------------
     sticks:   dense  smooth     PW     G-vecs:    dense   smooth      PW
     Sum        6765    2711    787               269075    68055   10687



     bravais-lattice index     =            8
     lattice parameter (alat)  =      21.4862  a.u.
     unit-cell volume          =    1425.7436 (a.u.)^3
     number of atoms/cell      =            8
     number of atomic types    =            2
     number of electrons       =        80.00
     number of Kohn-Sham states=           50
     kinetic-energy cutoff     =      50.0000  Ry
     charge density cutoff     =     500.0000  Ry
     scf convergence threshold =      1.0E-08
     mixing beta               =       0.7000
     number of iterations used =            8  plain     mixing
     Exchange-correlation= SLA  PW   PBE  PBE
                           (   1   4   3   4   0   0   0)

     celldm(1)=  21.486186  celldm(2)=   0.368162  celldm(3)=   0.390413
     celldm(4)=   0.000000  celldm(5)=   0.000000  celldm(6)=   0.000000

     crystal axes: (cart. coord. in units of alat)
               a(1) = (   1.000000   0.000000   0.000000 )  
               a(2) = (   0.000000   0.368162   0.000000 )  
               a(3) = (   0.000000   0.000000   0.390413 )  

     reciprocal axes: (cart. coord. in units 2 pi/alat)
               b(1) = (  1.000000  0.000000  0.000000 )  
               b(2) = (  0.000000  2.716197  0.000000 )  
               b(3) = (  0.000000  0.000000  2.561388 )  


     PseudoPot. # 1 for Sn read from file:
     ../pseudo/Sn_pbe_v1.uspp.F.UPF
     MD5 check sum: 4cf58ce39ec5d5d420df3dd08604eb00
     Pseudo is Ultrasoft + core correction, Zval = 14.0
     Generated by new atomic code, or converted to UPF format
     Using radial grid of  891 points,  6 beta functions with: 
                l(1) =   0
                l(2) =   0
                l(3) =   1
                l(4) =   1
                l(5) =   2
                l(6) =   2
     Q(r) pseudized with  6 coefficients,  rinner =    1.200   1.200   1.200
                                                       1.200   1.200

     PseudoPot. # 2 for Se read from file:
     ../pseudo/Se_pbe_v1.uspp.F.UPF
     MD5 check sum: 1b3568f3a8ae88f9a2a0ad0698632c85
     Pseudo is Ultrasoft + core correction, Zval =  6.0
     Generated by new atomic code, or converted to UPF format
     Using radial grid of  877 points,  6 beta functions with: 
                l(1) =   0
                l(2) =   0
                l(3) =   1
                l(4) =   1
                l(5) =   2
                l(6) =   2
     Q(r) pseudized with  8 coefficients,  rinner =    1.300   1.300   1.300
                                                       1.300   1.300

     atomic species   valence    mass     pseudopotential
        Sn            14.00   118.71000     Sn( 1.00)
        Se             6.00    78.97100     Se( 1.00)

      8 Sym. Ops., with inversion, found ( 6 have fractional translation)


                                    s                        frac. trans.

      isym =  1     identity                                     

 cryst.   s( 1) = (     1          0          0      )
                  (     0          1          0      )
                  (     0          0          1      )

 cart.    s( 1) = (  1.0000000  0.0000000  0.0000000 )
                  (  0.0000000  1.0000000  0.0000000 )
                  (  0.0000000  0.0000000  1.0000000 )


      isym =  2     180 deg rotation - cart. axis [0,0,1]        

 cryst.   s( 2) = (    -1          0          0      )    f =(  0.5000000 )
                  (     0         -1          0      )       (  0.0000000 )
                  (     0          0          1      )       (  0.5000000 )

 cart.    s( 2) = ( -1.0000000  0.0000000  0.0000000 )    f =(  0.5000000 )
                  (  0.0000000 -1.0000000  0.0000000 )       (  0.0000000 )
                  (  0.0000000  0.0000000  1.0000000 )       (  0.1952067 )


      isym =  3     180 deg rotation - cart. axis [0,1,0]        

 cryst.   s( 3) = (    -1          0          0      )    f =(  0.0000000 )
                  (     0          1          0      )       ( -0.5000000 )
                  (     0          0         -1      )       (  0.0000000 )

 cart.    s( 3) = ( -1.0000000  0.0000000  0.0000000 )    f =(  0.0000000 )
                  (  0.0000000  1.0000000  0.0000000 )       ( -0.1840809 )
                  (  0.0000000  0.0000000 -1.0000000 )       (  0.0000000 )


      isym =  4     180 deg rotation - cart. axis [1,0,0]        

 cryst.   s( 4) = (     1          0          0      )    f =(  0.5000000 )
                  (     0         -1          0      )       (  0.5000000 )
                  (     0          0         -1      )       (  0.5000000 )

 cart.    s( 4) = (  1.0000000  0.0000000  0.0000000 )    f =(  0.5000000 )
                  (  0.0000000 -1.0000000  0.0000000 )       (  0.1840809 )
                  (  0.0000000  0.0000000 -1.0000000 )       (  0.1952067 )


      isym =  5     inversion                                    

 cryst.   s( 5) = (    -1          0          0      )
                  (     0         -1          0      )
                  (     0          0         -1      )

 cart.    s( 5) = ( -1.0000000  0.0000000  0.0000000 )
                  (  0.0000000 -1.0000000  0.0000000 )
                  (  0.0000000  0.0000000 -1.0000000 )


      isym =  6     inv. 180 deg rotation - cart. axis [0,0,1]   

 cryst.   s( 6) = (     1          0          0      )    f =(  0.5000000 )
                  (     0          1          0      )       (  0.0000000 )
                  (     0          0         -1      )       (  0.5000000 )

 cart.    s( 6) = (  1.0000000  0.0000000  0.0000000 )    f =(  0.5000000 )
                  (  0.0000000  1.0000000  0.0000000 )       (  0.0000000 )
                  (  0.0000000  0.0000000 -1.0000000 )       (  0.1952067 )


      isym =  7     inv. 180 deg rotation - cart. axis [0,1,0]   

 cryst.   s( 7) = (     1          0          0      )    f =(  0.0000000 )
                  (     0         -1          0      )       (  0.5000000 )
                  (     0          0          1      )       (  0.0000000 )

 cart.    s( 7) = (  1.0000000  0.0000000  0.0000000 )    f =(  0.0000000 )
                  (  0.0000000 -1.0000000  0.0000000 )       (  0.1840809 )
                  (  0.0000000  0.0000000  1.0000000 )       (  0.0000000 )


      isym =  8     inv. 180 deg rotation - cart. axis [1,0,0]   

 cryst.   s( 8) = (    -1          0          0      )    f =(  0.5000000 )
                  (     0          1          0      )       ( -0.5000000 )
                  (     0          0          1      )       (  0.5000000 )

 cart.    s( 8) = ( -1.0000000  0.0000000  0.0000000 )    f =(  0.5000000 )
                  (  0.0000000  1.0000000  0.0000000 )       ( -0.1840809 )
                  (  0.0000000  0.0000000  1.0000000 )       (  0.1952067 )


     point group D_2h (mmm) 
     there are  8 classes
     the character table:

       E     C2    C2'   C2''  i     s_v   s_v'  s_v''
A_g    1.00  1.00  1.00  1.00  1.00  1.00  1.00  1.00
B_1g   1.00  1.00 -1.00 -1.00  1.00  1.00 -1.00 -1.00
B_2g   1.00 -1.00  1.00 -1.00  1.00 -1.00  1.00 -1.00
B_3g   1.00 -1.00 -1.00  1.00  1.00 -1.00 -1.00  1.00
A_u    1.00  1.00  1.00  1.00 -1.00 -1.00 -1.00 -1.00
B_1u   1.00  1.00 -1.00 -1.00 -1.00 -1.00  1.00  1.00
B_2u   1.00 -1.00  1.00 -1.00 -1.00  1.00 -1.00  1.00
B_3u   1.00 -1.00 -1.00  1.00 -1.00  1.00  1.00 -1.00

     the symmetry operations in each class and the name of the first element:

     E        1
          identity                                               
     C2       2
          180 deg rotation - cart. axis [0,0,1]                  
     C2'      4
          180 deg rotation - cart. axis [1,0,0]                  
     C2''     3
          180 deg rotation - cart. axis [0,1,0]                  
     i        5
          inversion                                              
     s_v      6
          inv. 180 deg rotation - cart. axis [0,0,1]             
     s_v'     8
          inv. 180 deg rotation - cart. axis [1,0,0]             
     s_v''    7
          inv. 180 deg rotation - cart. axis [0,1,0]             

   Cartesian axes

     site n.     atom                  positions (alat units)
         1           Se  tau(   1) = (   0.8555000   0.0920405   0.1884916  )
         2           Sn  tau(   2) = (   0.1187000   0.0920405   0.0385728  )
         3           Se  tau(   3) = (   0.6445000   0.2761214   0.3836983  )
         4           Sn  tau(   4) = (   0.3813000   0.2761214   0.2337795  )
         5           Se  tau(   5) = (   0.3555000   0.0920405   0.0067151  )
         6           Sn  tau(   6) = (   0.6187000   0.0920405   0.1566338  )
         7           Se  tau(   7) = (   0.1445000   0.2761214   0.2019218  )
         8           Sn  tau(   8) = (   0.8813000   0.2761214   0.3518405  )

   Crystallographic axes

     site n.     atom                  positions (cryst. coord.)
         1           Se  tau(   1) = (  0.8555000  0.2500000  0.4828000  )
         2           Sn  tau(   2) = (  0.1187000  0.2500000  0.0988000  )
         3           Se  tau(   3) = (  0.6445000  0.7500000  0.9828000  )
         4           Sn  tau(   4) = (  0.3813000  0.7500000  0.5988000  )
         5           Se  tau(   5) = (  0.3555000  0.2500000  0.0172000  )
         6           Sn  tau(   6) = (  0.6187000  0.2500000  0.4012000  )
         7           Se  tau(   7) = (  0.1445000  0.7500000  0.5172000  )
         8           Sn  tau(   8) = (  0.8813000  0.7500000  0.9012000  )

     number of k points=    32
                       cart. coord. in units 2pi/alat
        k(    1) = (   0.0000000   0.0000000   0.0000000), wk =   0.0277778
        k(    2) = (   0.0000000   0.0000000   0.4268979), wk =   0.0555556
        k(    3) = (   0.0000000   0.0000000   0.8537959), wk =   0.0555556
        k(    4) = (   0.0000000   0.0000000  -1.2806938), wk =   0.0277778
        k(    5) = (   0.0000000   0.4526995   0.0000000), wk =   0.0555556
        k(    6) = (   0.0000000   0.4526995   0.4268979), wk =   0.1111111
        k(    7) = (   0.0000000   0.4526995   0.8537959), wk =   0.1111111
        k(    8) = (   0.0000000   0.4526995  -1.2806938), wk =   0.0555556
        k(    9) = (   0.0000000   0.9053989   0.0000000), wk =   0.0555556
        k(   10) = (   0.0000000   0.9053989   0.4268979), wk =   0.1111111
        k(   11) = (   0.0000000   0.9053989   0.8537959), wk =   0.1111111
        k(   12) = (   0.0000000   0.9053989  -1.2806938), wk =   0.0555556
        k(   13) = (   0.0000000  -1.3580984   0.0000000), wk =   0.0277778
        k(   14) = (   0.0000000  -1.3580984   0.4268979), wk =   0.0555556
        k(   15) = (   0.0000000  -1.3580984   0.8537959), wk =   0.0555556
        k(   16) = (   0.0000000  -1.3580984  -1.2806938), wk =   0.0277778
        k(   17) = (  -0.5000000   0.0000000   0.0000000), wk =   0.0277778
        k(   18) = (  -0.5000000   0.0000000   0.4268979), wk =   0.0555556
        k(   19) = (  -0.5000000   0.0000000   0.8537959), wk =   0.0555556
        k(   20) = (  -0.5000000   0.0000000  -1.2806938), wk =   0.0277778
        k(   21) = (  -0.5000000   0.4526995   0.0000000), wk =   0.0555556
        k(   22) = (  -0.5000000   0.4526995   0.4268979), wk =   0.1111111
        k(   23) = (  -0.5000000   0.4526995   0.8537959), wk =   0.1111111
        k(   24) = (  -0.5000000   0.4526995  -1.2806938), wk =   0.0555556
        k(   25) = (  -0.5000000   0.9053989   0.0000000), wk =   0.0555556
        k(   26) = (  -0.5000000   0.9053989   0.4268979), wk =   0.1111111
        k(   27) = (  -0.5000000   0.9053989   0.8537959), wk =   0.1111111
        k(   28) = (  -0.5000000   0.9053989  -1.2806938), wk =   0.0555556
        k(   29) = (  -0.5000000  -1.3580984   0.0000000), wk =   0.0277778
        k(   30) = (  -0.5000000  -1.3580984   0.4268979), wk =   0.0555556
        k(   31) = (  -0.5000000  -1.3580984   0.8537959), wk =   0.0555556
        k(   32) = (  -0.5000000  -1.3580984  -1.2806938), wk =   0.0277778

                       cryst. coord.
        k(    1) = (   0.0000000   0.0000000   0.0000000), wk =   0.0277778
        k(    2) = (   0.0000000   0.0000000   0.1666667), wk =   0.0555556
        k(    3) = (   0.0000000   0.0000000   0.3333333), wk =   0.0555556
        k(    4) = (   0.0000000   0.0000000  -0.5000000), wk =   0.0277778
        k(    5) = (   0.0000000   0.1666667   0.0000000), wk =   0.0555556
        k(    6) = (   0.0000000   0.1666667   0.1666667), wk =   0.1111111
        k(    7) = (   0.0000000   0.1666667   0.3333333), wk =   0.1111111
        k(    8) = (   0.0000000   0.1666667  -0.5000000), wk =   0.0555556
        k(    9) = (   0.0000000   0.3333333   0.0000000), wk =   0.0555556
        k(   10) = (   0.0000000   0.3333333   0.1666667), wk =   0.1111111
        k(   11) = (   0.0000000   0.3333333   0.3333333), wk =   0.1111111
        k(   12) = (   0.0000000   0.3333333  -0.5000000), wk =   0.0555556
        k(   13) = (   0.0000000  -0.5000000   0.0000000), wk =   0.0277778
        k(   14) = (   0.0000000  -0.5000000   0.1666667), wk =   0.0555556
        k(   15) = (   0.0000000  -0.5000000   0.3333333), wk =   0.0555556
        k(   16) = (   0.0000000  -0.5000000  -0.5000000), wk =   0.0277778
        k(   17) = (  -0.5000000   0.0000000   0.0000000), wk =   0.0277778
        k(   18) = (  -0.5000000   0.0000000   0.1666667), wk =   0.0555556
        k(   19) = (  -0.5000000   0.0000000   0.3333333), wk =   0.0555556
        k(   20) = (  -0.5000000   0.0000000  -0.5000000), wk =   0.0277778
        k(   21) = (  -0.5000000   0.1666667   0.0000000), wk =   0.0555556
        k(   22) = (  -0.5000000   0.1666667   0.1666667), wk =   0.1111111
        k(   23) = (  -0.5000000   0.1666667   0.3333333), wk =   0.1111111
        k(   24) = (  -0.5000000   0.1666667  -0.5000000), wk =   0.0555556
        k(   25) = (  -0.5000000   0.3333333   0.0000000), wk =   0.0555556
        k(   26) = (  -0.5000000   0.3333333   0.1666667), wk =   0.1111111
        k(   27) = (  -0.5000000   0.3333333   0.3333333), wk =   0.1111111
        k(   28) = (  -0.5000000   0.3333333  -0.5000000), wk =   0.0555556
        k(   29) = (  -0.5000000  -0.5000000   0.0000000), wk =   0.0277778
        k(   30) = (  -0.5000000  -0.5000000   0.1666667), wk =   0.0555556
        k(   31) = (  -0.5000000  -0.5000000   0.3333333), wk =   0.0555556
        k(   32) = (  -0.5000000  -0.5000000  -0.5000000), wk =   0.0277778

     Dense  grid:   269075 G-vectors     FFT dimensions: ( 160,  60,  60)

     Smooth grid:    68055 G-vectors     FFT dimensions: ( 100,  36,  40)

     Dynamical RAM for                 wfc:       6.49 MB

     Dynamical RAM for     wfc (w. buffer):      58.45 MB

     Dynamical RAM for           str. fact:       8.21 MB

     Dynamical RAM for           local pot:       0.00 MB

     Dynamical RAM for          nlocal pot:      18.70 MB

     Dynamical RAM for                qrad:       3.59 MB

     Dynamical RAM for          rho,v,vnew:      25.50 MB

     Dynamical RAM for               rhoin:       8.50 MB

     Dynamical RAM for            rho*nmix:      65.69 MB

     Dynamical RAM for           G-vectors:      15.92 MB

     Dynamical RAM for          h,s,v(r/c):       0.46 MB

     Dynamical RAM for          <psi|beta>:       0.11 MB

     Dynamical RAM for                 psi:      12.99 MB

     Dynamical RAM for                hpsi:      12.99 MB

     Dynamical RAM for                spsi:      12.99 MB

     Dynamical RAM for      wfcinit/wfcrot:      13.57 MB

     Dynamical RAM for           addusdens:     198.10 MB

     Dynamical RAM for          addusforce:     203.25 MB

     Estimated static dynamical RAM per process >     238.85 MB

     Estimated max dynamical RAM per process >     442.10 MB

     Estimated total dynamical RAM >       1.73 GB

     Initial potential from superposition of free atoms

     starting charge   75.99954, renormalised to   80.00000
     Starting wfcs are   52 randomized atomic wfcs

     total cpu time spent up to now is        9.5 secs

     Self-consistent Calculation

     iteration #  1     ecut=    50.00 Ry     beta= 0.70
     Davidson diagonalization with overlap
     ethr =  1.00E-02,  avg # of iterations =  3.7

     total cpu time spent up to now is       31.4 secs

     total energy              =    -826.55030908 Ry
     estimated scf accuracy    <       2.63121705 Ry

     iteration #  2     ecut=    50.00 Ry     beta= 0.70
     Davidson diagonalization with overlap
     ethr =  3.29E-03,  avg # of iterations =  2.0

     total cpu time spent up to now is       51.7 secs

     total energy              =    -827.33544671 Ry
     estimated scf accuracy    <       1.08986944 Ry

     iteration #  3     ecut=    50.00 Ry     beta= 0.70
     Davidson diagonalization with overlap
     ethr =  1.36E-03,  avg # of iterations =  2.0

     total cpu time spent up to now is       71.1 secs

     total energy              =    -827.60664389 Ry
     estimated scf accuracy    <       0.06111489 Ry

     iteration #  4     ecut=    50.00 Ry     beta= 0.70
     Davidson diagonalization with overlap
     ethr =  7.64E-05,  avg # of iterations =  3.5

     total cpu time spent up to now is       90.2 secs

     total energy              =    -827.61773359 Ry
     estimated scf accuracy    <       0.00300128 Ry

     iteration #  5     ecut=    50.00 Ry     beta= 0.70
     Davidson diagonalization with overlap
     ethr =  3.75E-06,  avg # of iterations =  5.1

     total cpu time spent up to now is      111.5 secs

     total energy              =    -827.61840012 Ry
     estimated scf accuracy    <       0.00081176 Ry

     iteration #  6     ecut=    50.00 Ry     beta= 0.70
     Davidson diagonalization with overlap
     ethr =  1.01E-06,  avg # of iterations =  2.3

     total cpu time spent up to now is      128.7 secs

     total energy              =    -827.61857551 Ry
     estimated scf accuracy    <       0.00004542 Ry

     iteration #  7     ecut=    50.00 Ry     beta= 0.70
     Davidson diagonalization with overlap
     ethr =  5.68E-08,  avg # of iterations =  4.9

     total cpu time spent up to now is      152.4 secs

     total energy              =    -827.61860392 Ry
     estimated scf accuracy    <       0.00000271 Ry

     iteration #  8     ecut=    50.00 Ry     beta= 0.70
     Davidson diagonalization with overlap
     ethr =  3.39E-09,  avg # of iterations =  3.5

     total cpu time spent up to now is      172.6 secs

     total energy              =    -827.61860502 Ry
     estimated scf accuracy    <       0.00000045 Ry

     iteration #  9     ecut=    50.00 Ry     beta= 0.70
     Davidson diagonalization with overlap
     ethr =  5.59E-10,  avg # of iterations =  3.0

     total cpu time spent up to now is      193.7 secs

     End of self-consistent calculation

          k = 0.0000 0.0000 0.0000 (  8475 PWs)   bands (ev):

   -13.2679 -13.2561 -13.2528 -13.2502 -13.2502 -13.2462 -13.2433 -13.2394
   -13.2352 -13.2341 -13.2336 -13.2265 -13.2190 -13.2126 -13.1979 -13.1929
   -13.1881 -13.1844 -13.1765 -13.1673  -5.7458  -5.3957  -4.6586  -4.1586
     0.8108   1.9488   2.5399   3.0753   3.2305   4.6640   4.7023   4.7770
     5.1828   5.2391   5.8116   6.3117   6.5365   6.9892   7.4010   7.5701
     8.8496  10.9518  11.0998  11.1324  11.3574  11.4511  12.3346  12.6296
    12.7030  12.7427

     occupation numbers 
     1.0000   1.0000   1.0000   1.0000   1.0000   1.0000   1.0000   1.0000
     1.0000   1.0000   1.0000   1.0000   1.0000   1.0000   1.0000   1.0000
     1.0000   1.0000   1.0000   1.0000   1.0000   1.0000   1.0000   1.0000
     1.0000   1.0000   1.0000   1.0000   1.0000   1.0000   1.0000   1.0000
     1.0000   1.0000   1.0000   1.0000   1.0000   1.0000   1.0000   1.0000
     0.0000   0.0000   0.0000   0.0000   0.0000   0.0000   0.0000   0.0000
     0.0000   0.0000

          k = 0.0000 0.0000 0.4269 (  8495 PWs)   bands (ev):

   -13.2663 -13.2547 -13.2531 -13.2516 -13.2494 -13.2482 -13.2438 -13.2402
   -13.2345 -13.2323 -13.2300 -13.2269 -13.2182 -13.2133 -13.1981 -13.1922
   -13.1892 -13.1851 -13.1758 -13.1679  -5.6276  -5.2874  -4.6450  -4.1905
     0.4462   1.7105   1.9312   2.6885   3.2166   4.8189   4.8449   5.3357
     5.3460   5.9065   5.9284   6.5186   6.5926   7.0993   7.4477   7.5873
     8.9716  10.0944  10.7261  10.9026  11.1418  11.4574  11.9014  12.0697
    12.5323  12.7682

     occupation numbers 
     1.0000   1.0000   1.0000   1.0000   1.0000   1.0000   1.0000   1.0000
     1.0000   1.0000   1.0000   1.0000   1.0000   1.0000   1.0000   1.0000
     1.0000   1.0000   1.0000   1.0000   1.0000   1.0000   1.0000   1.0000
     1.0000   1.0000   1.0000   1.0000   1.0000   1.0000   1.0000   1.0000
     1.0000   1.0000   1.0000   1.0000   1.0000   1.0000   1.0000   1.0000
     0.0000   0.0000   0.0000   0.0000   0.0000   0.0000   0.0000   0.0000
     0.0000   0.0000

          k = 0.0000 0.0000 0.8538 (  8495 PWs)   bands (ev):

   -13.2623 -13.2544 -13.2539 -13.2521 -13.2518 -13.2484 -13.2449 -13.2426
   -13.2326 -13.2281 -13.2262 -13.2236 -13.2174 -13.2153 -13.1973 -13.1918
   -13.1905 -13.1868 -13.1740 -13.1695  -5.3119  -4.9960  -4.6887  -4.3309
    -0.0229   0.8105   1.3647   1.9822   3.6443   5.0246   5.3392   5.7842
     6.1141   6.1249   6.3718   6.6089   6.8452   7.4420   7.5931   8.1002
     8.9973   9.5563   9.5823   9.7390  10.4725  10.5771  11.0921  11.2236
    11.9939  12.1198

     occupation numbers 
     1.0000   1.0000   1.0000   1.0000   1.0000   1.0000   1.0000   1.0000
     1.0000   1.0000   1.0000   1.0000   1.0000   1.0000   1.0000   1.0000
     1.0000   1.0000   1.0000   1.0000   1.0000   1.0000   1.0000   1.0000
     1.0000   1.0000   1.0000   1.0000   1.0000   1.0000   1.0000   1.0000
     1.0000   1.0000   1.0000   1.0000   1.0000   1.0000   1.0000   1.0000
     0.0000   0.0000   0.0000   0.0000   0.0000   0.0000   0.0000   0.0000
     0.0000   0.0000

          k = 0.0000 0.0000-1.2807 (  8454 PWs)   bands (ev):

   -13.2577 -13.2577 -13.2545 -13.2545 -13.2493 -13.2493 -13.2446 -13.2446
   -13.2301 -13.2301 -13.2198 -13.2198 -13.2185 -13.2185 -13.1948 -13.1948
   -13.1886 -13.1886 -13.1717 -13.1717  -4.9314  -4.9314  -4.6267  -4.6267
     0.0660   0.0660   1.4335   1.4335   4.3911   4.3911   5.9302   5.9302
     6.3073   6.3073   6.6796   6.6796   7.2611   7.2611   7.7977   7.7977
     9.3225   9.3225   9.6522   9.6522   9.7895   9.7895  10.7613  10.7613
    11.2257  11.2257

     occupation numbers 
     1.0000   1.0000   1.0000   1.0000   1.0000   1.0000   1.0000   1.0000
     1.0000   1.0000   1.0000   1.0000   1.0000   1.0000   1.0000   1.0000
     1.0000   1.0000   1.0000   1.0000   1.0000   1.0000   1.0000   1.0000
     1.0000   1.0000   1.0000   1.0000   1.0000   1.0000   1.0000   1.0000
     1.0000   1.0000   1.0000   1.0000   1.0000   1.0000   1.0000   1.0000
     0.0000   0.0000   0.0000   0.0000   0.0000   0.0000   0.0000   0.0000
     0.0000   0.0000

          k = 0.0000 0.4527 0.0000 (  8530 PWs)   bands (ev):

   -13.2619 -13.2540 -13.2524 -13.2496 -13.2481 -13.2476 -13.2473 -13.2420
   -13.2379 -13.2315 -13.2303 -13.2287 -13.2153 -13.2137 -13.1950 -13.1946
   -13.1878 -13.1861 -13.1766 -13.1694  -5.5976  -5.2702  -4.5967  -4.1701
     0.6096   1.5562   2.3403   2.3700   3.2409   4.6345   4.9626   5.0882
     5.1743   5.3994   6.1255   6.3949   6.5254   7.4131   7.4276   7.4285
     9.0705   9.9282  10.8650  11.1290  11.2214  11.4504  11.8184  11.8714
    12.5549  13.1373

     occupation numbers 
     1.0000   1.0000   1.0000   1.0000   1.0000   1.0000   1.0000   1.0000
     1.0000   1.0000   1.0000   1.0000   1.0000   1.0000   1.0000   1.0000
     1.0000   1.0000   1.0000   1.0000   1.0000   1.0000   1.0000   1.0000
     1.0000   1.0000   1.0000   1.0000   1.0000   1.0000   1.0000   1.0000
     1.0000   1.0000   1.0000   1.0000   1.0000   1.0000   1.0000   1.0000
     0.0000   0.0000   0.0000   0.0000   0.0000   0.0000   0.0000   0.0000
     0.0000   0.0000

          k = 0.0000 0.4527 0.4269 (  8513 PWs)   bands (ev):

   -13.2615 -13.2541 -13.2538 -13.2491 -13.2486 -13.2480 -13.2465 -13.2441
   -13.2372 -13.2304 -13.2287 -13.2261 -13.2160 -13.2130 -13.1955 -13.1935
   -13.1883 -13.1871 -13.1760 -13.1698  -5.4839  -5.1671  -4.5819  -4.1922
     0.4172   1.5345   1.8462   2.2899   3.3524   4.1009   4.3252   5.4220
     5.5923   5.9102   6.0307   6.3508   7.0709   7.2024   7.5515   7.6540
     9.1846   9.6443  10.1419  10.1810  11.1825  11.3141  11.8775  12.0789
    12.5645  12.9662

     occupation numbers 
     1.0000   1.0000   1.0000   1.0000   1.0000   1.0000   1.0000   1.0000
     1.0000   1.0000   1.0000   1.0000   1.0000   1.0000   1.0000   1.0000
     1.0000   1.0000   1.0000   1.0000   1.0000   1.0000   1.0000   1.0000
     1.0000   1.0000   1.0000   1.0000   1.0000   1.0000   1.0000   1.0000
     1.0000   1.0000   1.0000   1.0000   1.0000   1.0000   1.0000   1.0000
     0.0000   0.0000   0.0000   0.0000   0.0000   0.0000   0.0000   0.0000
     0.0000   0.0000

          k = 0.0000 0.4527 0.8538 (  8513 PWs)   bands (ev):

   -13.2612 -13.2578 -13.2532 -13.2506 -13.2488 -13.2482 -13.2473 -13.2451
   -13.2349 -13.2312 -13.2233 -13.2206 -13.2167 -13.2131 -13.1948 -13.1920
   -13.1900 -13.1889 -13.1745 -13.1709  -5.1836  -4.8935  -4.6152  -4.3029
     0.1282   0.9280   1.4479   1.9228   3.7926   4.0948   4.2791   5.3101
     5.4680   5.8008   6.2085   6.6196   7.0335   7.3116   7.3993   7.6189
     9.1864   9.4908   9.9486  10.2731  10.7645  11.1143  11.3045  12.3511
    12.6219  12.9040

     occupation numbers 
     1.0000   1.0000   1.0000   1.0000   1.0000   1.0000   1.0000   1.0000
     1.0000   1.0000   1.0000   1.0000   1.0000   1.0000   1.0000   1.0000
     1.0000   1.0000   1.0000   1.0000   1.0000   1.0000   1.0000   1.0000
     1.0000   1.0000   1.0000   1.0000   1.0000   1.0000   1.0000   1.0000
     1.0000   1.0000   1.0000   1.0000   1.0000   1.0000   1.0000   1.0000
     0.0000   0.0000   0.0000   0.0000   0.0000   0.0000   0.0000   0.0000
     0.0000   0.0000

          k = 0.0000 0.4527-1.2807 (  8510 PWs)   bands (ev):

   -13.2605 -13.2605 -13.2517 -13.2517 -13.2501 -13.2501 -13.2455 -13.2455
   -13.2327 -13.2327 -13.2187 -13.2187 -13.2156 -13.2156 -13.1926 -13.1926
   -13.1904 -13.1904 -13.1726 -13.1726  -4.8310  -4.8310  -4.5576  -4.5576
     0.2527   0.2527   1.5393   1.5393   4.3064   4.3064   4.7842   4.7842
     5.3261   5.3261   6.2947   6.2947   7.1474   7.1474   7.5549   7.5549
     9.2794   9.2794  10.0904  10.0904  11.2588  11.2588  11.7213  11.7213
    12.2940  12.2941

     occupation numbers 
     1.0000   1.0000   1.0000   1.0000   1.0000   1.0000   1.0000   1.0000
     1.0000   1.0000   1.0000   1.0000   1.0000   1.0000   1.0000   1.0000
     1.0000   1.0000   1.0000   1.0000   1.0000   1.0000   1.0000   1.0000
     1.0000   1.0000   1.0000   1.0000   1.0000   1.0000   1.0000   1.0000
     1.0000   1.0000   1.0000   1.0000   1.0000   1.0000   1.0000   1.0000
     0.0000   0.0000   0.0000   0.0000   0.0000   0.0000   0.0000   0.0000
     0.0000   0.0000

          k = 0.0000 0.9054 0.0000 (  8550 PWs)   bands (ev):

   -13.2586 -13.2560 -13.2553 -13.2533 -13.2448 -13.2447 -13.2430 -13.2390
   -13.2367 -13.2343 -13.2293 -13.2201 -13.2180 -13.2099 -13.1992 -13.1975
   -13.1881 -13.1817 -13.1762 -13.1740  -5.1946  -4.9497  -4.5092  -4.3004
     0.2650   1.0179   1.1502   1.6786   3.7025   4.9710   5.3123   5.4423
     5.5132   5.7672   6.3571   6.5065   6.8485   7.1976   7.3279   7.9129
     8.6729   9.5503   9.8460   9.8697  10.1036  10.6277  10.6763  11.5178
    11.8991  12.2765

     occupation numbers 
     1.0000   1.0000   1.0000   1.0000   1.0000   1.0000   1.0000   1.0000
     1.0000   1.0000   1.0000   1.0000   1.0000   1.0000   1.0000   1.0000
     1.0000   1.0000   1.0000   1.0000   1.0000   1.0000   1.0000   1.0000
     1.0000   1.0000   1.0000   1.0000   1.0000   1.0000   1.0000   1.0000
     1.0000   1.0000   1.0000   1.0000   1.0000   1.0000   1.0000   1.0000
     0.0000   0.0000   0.0000   0.0000   0.0000   0.0000   0.0000   0.0000
     0.0000   0.0000

          k = 0.0000 0.9054 0.4269 (  8530 PWs)   bands (ev):

   -13.2620 -13.2591 -13.2566 -13.2548 -13.2456 -13.2423 -13.2421 -13.2386
   -13.2354 -13.2339 -13.2274 -13.2186 -13.2182 -13.2099 -13.1986 -13.1970
   -13.1881 -13.1826 -13.1759 -13.1738  -5.0979  -4.8648  -4.4849  -4.2894
     0.3397   1.1585   1.2315   1.6068   3.8362   3.9315   4.2977   5.1344
     5.5224   5.8401   6.1379   6.4905   6.6522   7.1563   7.2958   7.3764
     9.1185   9.5074   9.6888  10.0187  10.8086  11.3539  11.5178  12.0201
    12.4954  12.8357

     occupation numbers 
     1.0000   1.0000   1.0000   1.0000   1.0000   1.0000   1.0000   1.0000
     1.0000   1.0000   1.0000   1.0000   1.0000   1.0000   1.0000   1.0000
     1.0000   1.0000   1.0000   1.0000   1.0000   1.0000   1.0000   1.0000
     1.0000   1.0000   1.0000   1.0000   1.0000   1.0000   1.0000   1.0000
     1.0000   1.0000   1.0000   1.0000   1.0000   1.0000   1.0000   1.0000
     0.0000   0.0000   0.0000   0.0000   0.0000   0.0000   0.0000   0.0000
     0.0000   0.0000

          k = 0.0000 0.9054 0.8538 (  8499 PWs)   bands (ev):

   -13.2671 -13.2650 -13.2599 -13.2589 -13.2444 -13.2411 -13.2397 -13.2385
   -13.2334 -13.2331 -13.2230 -13.2181 -13.2150 -13.2104 -13.1972 -13.1961
   -13.1876 -13.1843 -13.1749 -13.1736  -4.8540  -4.6522  -4.4744  -4.3032
     0.5073   1.1414   1.4844   1.5840   3.2531   3.6314   4.0732   4.3204
     4.8128   5.2019   5.5153   5.9062   6.2221   6.4864   6.9819   7.2681
     9.0695  10.7096  11.0509  11.2266  11.7015  11.7021  12.5123  12.6812
    13.0209  13.1339

     occupation numbers 
     1.0000   1.0000   1.0000   1.0000   1.0000   1.0000   1.0000   1.0000
     1.0000   1.0000   1.0000   1.0000   1.0000   1.0000   1.0000   1.0000
     1.0000   1.0000   1.0000   1.0000   1.0000   1.0000   1.0000   1.0000
     1.0000   1.0000   1.0000   1.0000   1.0000   1.0000   1.0000   1.0000
     1.0000   1.0000   1.0000   1.0000   1.0000   1.0000   1.0000   1.0000
     0.0000   0.0000   0.0000   0.0000   0.0000   0.0000   0.0000   0.0000
     0.0000   0.0000

          k = 0.0000 0.9054-1.2807 (  8514 PWs)   bands (ev):

   -13.2687 -13.2687 -13.2614 -13.2614 -13.2425 -13.2425 -13.2386 -13.2386
   -13.2326 -13.2326 -13.2195 -13.2195 -13.2119 -13.2119 -13.1961 -13.1961
   -13.1860 -13.1860 -13.1740 -13.1740  -4.5974  -4.5974  -4.4262  -4.4262
     0.7588   0.7588   1.6655   1.6655   3.4404   3.4404   3.8582   3.8582
     4.7522   4.7522   5.4199   5.4199   6.0376   6.0376   6.9415   6.9415
    10.0429  10.0429  11.6699  11.6699  12.7850  12.7850  12.8415  12.8415
    12.9946  12.9946

     occupation numbers 
     1.0000   1.0000   1.0000   1.0000   1.0000   1.0000   1.0000   1.0000
     1.0000   1.0000   1.0000   1.0000   1.0000   1.0000   1.0000   1.0000
     1.0000   1.0000   1.0000   1.0000   1.0000   1.0000   1.0000   1.0000
     1.0000   1.0000   1.0000   1.0000   1.0000   1.0000   1.0000   1.0000
     1.0000   1.0000   1.0000   1.0000   1.0000   1.0000   1.0000   1.0000
     0.0000   0.0000   0.0000   0.0000   0.0000   0.0000   0.0000   0.0000
     0.0000   0.0000

          k = 0.0000-1.3581 0.0000 (  8578 PWs)   bands (ev):

   -13.2603 -13.2603 -13.2563 -13.2563 -13.2415 -13.2415 -13.2396 -13.2396
   -13.2307 -13.2307 -13.2271 -13.2271 -13.2094 -13.2094 -13.2047 -13.2047
   -13.1803 -13.1803 -13.1776 -13.1776  -4.6817  -4.6817  -4.6183  -4.6183
     0.3598   0.3598   1.0565   1.0565   4.4854   4.4854   5.8501   5.8501
     5.8652   5.8652   6.3776   6.3776   7.1086   7.1086   7.3079   7.3079
     9.1104   9.1104   9.5458   9.5458   9.8208   9.8208  10.6273  10.6273
    11.3368  11.3368

     occupation numbers 
     1.0000   1.0000   1.0000   1.0000   1.0000   1.0000   1.0000   1.0000
     1.0000   1.0000   1.0000   1.0000   1.0000   1.0000   1.0000   1.0000
     1.0000   1.0000   1.0000   1.0000   1.0000   1.0000   1.0000   1.0000
     1.0000   1.0000   1.0000   1.0000   1.0000   1.0000   1.0000   1.0000
     1.0000   1.0000   1.0000   1.0000   1.0000   1.0000   1.0000   1.0000
     0.0000   0.0000   0.0000   0.0000   0.0000   0.0000   0.0000   0.0000
     0.0000   0.0000

          k = 0.0000-1.3581 0.4269 (  8536 PWs)   bands (ev):

   -13.2636 -13.2636 -13.2587 -13.2587 -13.2414 -13.2414 -13.2378 -13.2378
   -13.2303 -13.2303 -13.2257 -13.2257 -13.2102 -13.2102 -13.2028 -13.2028
   -13.1810 -13.1810 -13.1769 -13.1769  -4.6218  -4.6218  -4.5657  -4.5657
     0.5226   0.5226   1.1557   1.1557   4.3391   4.3391   4.6829   4.6829
     5.3960   5.3960   6.2248   6.2248   6.5245   6.5245   7.4497   7.4497
     8.9832   8.9832  10.1636  10.1636  11.0844  11.0844  11.6281  11.6281
    12.2884  12.2884

     occupation numbers 
     1.0000   1.0000   1.0000   1.0000   1.0000   1.0000   1.0000   1.0000
     1.0000   1.0000   1.0000   1.0000   1.0000   1.0000   1.0000   1.0000
     1.0000   1.0000   1.0000   1.0000   1.0000   1.0000   1.0000   1.0000
     1.0000   1.0000   1.0000   1.0000   1.0000   1.0000   1.0000   1.0000
     1.0000   1.0000   1.0000   1.0000   1.0000   1.0000   1.0000   1.0000
     0.0000   0.0000   0.0000   0.0000   0.0000   0.0000   0.0000   0.0000
     0.0000   0.0000

          k = 0.0000-1.3581 0.8538 (  8514 PWs)   bands (ev):

   -13.2699 -13.2699 -13.2634 -13.2634 -13.2409 -13.2409 -13.2352 -13.2352
   -13.2294 -13.2294 -13.2236 -13.2236 -13.2103 -13.2103 -13.2000 -13.2000
   -13.1818 -13.1818 -13.1759 -13.1759  -4.4926  -4.4926  -4.4582  -4.4582
     0.9504   0.9504   1.3626   1.3626   3.4450   3.4450   3.9825   3.9825
     4.6941   4.6941   5.5267   5.5267   5.7400   5.7400   6.9353   6.9353
    10.0277  10.0277  11.5337  11.5337  12.5153  12.5153  12.6269  12.6269
    12.8945  12.8945

     occupation numbers 
     1.0000   1.0000   1.0000   1.0000   1.0000   1.0000   1.0000   1.0000
     1.0000   1.0000   1.0000   1.0000   1.0000   1.0000   1.0000   1.0000
     1.0000   1.0000   1.0000   1.0000   1.0000   1.0000   1.0000   1.0000
     1.0000   1.0000   1.0000   1.0000   1.0000   1.0000   1.0000   1.0000
     1.0000   1.0000   1.0000   1.0000   1.0000   1.0000   1.0000   1.0000
     0.0000   0.0000   0.0000   0.0000   0.0000   0.0000   0.0000   0.0000
     0.0000   0.0000

          k = 0.0000-1.3581-1.2807 (  8524 PWs)   bands (ev):

   -13.2730 -13.2730 -13.2658 -13.2658 -13.2408 -13.2408 -13.2341 -13.2341
   -13.2288 -13.2288 -13.2228 -13.2228 -13.2098 -13.2098 -13.1989 -13.1989
   -13.1819 -13.1819 -13.1756 -13.1756  -4.4179  -4.4179  -4.4080  -4.4080
     1.2908   1.2908   1.4408   1.4408   3.0378   3.0378   3.5538   3.5538
     4.4687   4.4687   4.9501   4.9501   5.8020   5.8020   6.6438   6.6438
    10.8680  10.8680  11.1758  11.1758  12.8454  12.8454  12.9782  12.9782
    13.7133  13.7133

     occupation numbers 
     1.0000   1.0000   1.0000   1.0000   1.0000   1.0000   1.0000   1.0000
     1.0000   1.0000   1.0000   1.0000   1.0000   1.0000   1.0000   1.0000
     1.0000   1.0000   1.0000   1.0000   1.0000   1.0000   1.0000   1.0000
     1.0000   1.0000   1.0000   1.0000   1.0000   1.0000   1.0000   1.0000
     1.0000   1.0000   1.0000   1.0000   1.0000   1.0000   1.0000   1.0000
     0.0000   0.0000   0.0000   0.0000   0.0000   0.0000   0.0000   0.0000
     0.0000   0.0000

          k =-0.5000 0.0000 0.0000 (  8480 PWs)   bands (ev):

   -13.2622 -13.2622 -13.2523 -13.2523 -13.2489 -13.2489 -13.2405 -13.2405
   -13.2331 -13.2331 -13.2313 -13.2313 -13.2159 -13.2159 -13.1954 -13.1954
   -13.1861 -13.1861 -13.1715 -13.1715  -5.6061  -5.6061  -4.3735  -4.3735
     1.1511   1.1511   3.0234   3.0234   4.0131   4.0131   4.8557   4.8557
     5.2132   5.2132   6.0083   6.0083   6.2396   6.2396   7.5332   7.5332
    10.6760  10.6760  10.8766  10.8766  11.7686  11.7686  11.9997  11.9998
    13.0951  13.0951

     occupation numbers 
     1.0000   1.0000   1.0000   1.0000   1.0000   1.0000   1.0000   1.0000
     1.0000   1.0000   1.0000   1.0000   1.0000   1.0000   1.0000   1.0000
     1.0000   1.0000   1.0000   1.0000   1.0000   1.0000   1.0000   1.0000
     1.0000   1.0000   1.0000   1.0000   1.0000   1.0000   1.0000   1.0000
     1.0000   1.0000   1.0000   1.0000   1.0000   1.0000   1.0000   1.0000
     0.0000   0.0000   0.0000   0.0000   0.0000   0.0000   0.0000   0.0000
     0.0000   0.0000

          k =-0.5000 0.0000 0.4269 (  8502 PWs)   bands (ev):

   -13.2612 -13.2612 -13.2512 -13.2512 -13.2501 -13.2501 -13.2419 -13.2419
   -13.2309 -13.2309 -13.2304 -13.2304 -13.2160 -13.2160 -13.1953 -13.1953
   -13.1868 -13.1868 -13.1716 -13.1716  -5.4929  -5.4929  -4.3823  -4.3823
     0.8264   0.8264   2.4653   2.4653   4.2525   4.2525   5.0301   5.0301
     5.4496   5.4496   6.3248   6.3248   6.5534   6.5534   7.4485   7.4485
    10.3859  10.3859  11.0379  11.0379  11.0721  11.0721  11.5710  11.5710
    12.9467  12.9467

     occupation numbers 
     1.0000   1.0000   1.0000   1.0000   1.0000   1.0000   1.0000   1.0000
     1.0000   1.0000   1.0000   1.0000   1.0000   1.0000   1.0000   1.0000
     1.0000   1.0000   1.0000   1.0000   1.0000   1.0000   1.0000   1.0000
     1.0000   1.0000   1.0000   1.0000   1.0000   1.0000   1.0000   1.0000
     1.0000   1.0000   1.0000   1.0000   1.0000   1.0000   1.0000   1.0000
     0.0000   0.0000   0.0000   0.0000   0.0000   0.0000   0.0000   0.0000
     0.0000   0.0000

          k =-0.5000 0.0000 0.8538 (  8534 PWs)   bands (ev):

   -13.2589 -13.2589 -13.2526 -13.2526 -13.2498 -13.2498 -13.2446 -13.2446
   -13.2300 -13.2300 -13.2245 -13.2245 -13.2167 -13.2167 -13.1948 -13.1948
   -13.1882 -13.1882 -13.1717 -13.1717  -5.1951  -5.1951  -4.4691  -4.4691
     0.3275   0.3275   1.6293   1.6293   4.6960   4.6960   5.4997   5.4997
     5.8613   5.8613   6.4274   6.4274   6.9832   6.9832   7.7563   7.7563
     9.5838   9.5838  10.0727  10.0727  10.4135  10.4135  11.5181  11.5181
    11.7119  11.7119

     occupation numbers 
     1.0000   1.0000   1.0000   1.0000   1.0000   1.0000   1.0000   1.0000
     1.0000   1.0000   1.0000   1.0000   1.0000   1.0000   1.0000   1.0000
     1.0000   1.0000   1.0000   1.0000   1.0000   1.0000   1.0000   1.0000
     1.0000   1.0000   1.0000   1.0000   1.0000   1.0000   1.0000   1.0000
     1.0000   1.0000   1.0000   1.0000   1.0000   1.0000   1.0000   1.0000
     0.0000   0.0000   0.0000   0.0000   0.0000   0.0000   0.0000   0.0000
     0.0000   0.0000

          k =-0.5000 0.0000-1.2807 (  8512 PWs)   bands (ev):

   -13.2575 -13.2575 -13.2538 -13.2538 -13.2496 -13.2496 -13.2459 -13.2459
   -13.2296 -13.2296 -13.2195 -13.2195 -13.2189 -13.2189 -13.1945 -13.1945
   -13.1890 -13.1890 -13.1718 -13.1718  -4.9283  -4.9283  -4.6312  -4.6312
     0.1458   0.1458   1.2468   1.2468   5.2433   5.2433   5.4909   5.4909
     5.9435   5.9435   6.2877   6.2877   7.5416   7.5416   7.8130   7.8130
     9.3023   9.3023   9.7153   9.7153   9.7709   9.7709  11.1186  11.1186
    11.4686  11.4686

     occupation numbers 
     1.0000   1.0000   1.0000   1.0000   1.0000   1.0000   1.0000   1.0000
     1.0000   1.0000   1.0000   1.0000   1.0000   1.0000   1.0000   1.0000
     1.0000   1.0000   1.0000   1.0000   1.0000   1.0000   1.0000   1.0000
     1.0000   1.0000   1.0000   1.0000   1.0000   1.0000   1.0000   1.0000
     1.0000   1.0000   1.0000   1.0000   1.0000   1.0000   1.0000   1.0000
     0.0000   0.0000   0.0000   0.0000   0.0000   0.0000   0.0000   0.0000
     0.0000   0.0000

          k =-0.5000 0.4527 0.0000 (  8520 PWs)   bands (ev):

   -13.2578 -13.2578 -13.2512 -13.2512 -13.2493 -13.2493 -13.2437 -13.2437
   -13.2342 -13.2342 -13.2294 -13.2294 -13.2148 -13.2148 -13.1942 -13.1942
   -13.1874 -13.1874 -13.1728 -13.1728  -5.4662  -5.4662  -4.3503  -4.3503
     0.9295   0.9295   2.4351   2.4351   4.1473   4.1473   4.8576   4.8576
     5.5298   5.5298   6.1246   6.1246   6.3951   6.3951   7.5915   7.5915
    10.3745  10.3745  10.8683  10.8683  11.3500  11.3500  11.5979  11.5979
    12.8762  12.8763

     occupation numbers 
     1.0000   1.0000   1.0000   1.0000   1.0000   1.0000   1.0000   1.0000
     1.0000   1.0000   1.0000   1.0000   1.0000   1.0000   1.0000   1.0000
     1.0000   1.0000   1.0000   1.0000   1.0000   1.0000   1.0000   1.0000
     1.0000   1.0000   1.0000   1.0000   1.0000   1.0000   1.0000   1.0000
     1.0000   1.0000   1.0000   1.0000   1.0000   1.0000   1.0000   1.0000
     0.0000   0.0000   0.0000   0.0000   0.0000   0.0000   0.0000   0.0000
     0.0000   0.0000

          k =-0.5000 0.4527 0.4269 (  8494 PWs)   bands (ev):

   -13.2579 -13.2579 -13.2523 -13.2523 -13.2484 -13.2484 -13.2447 -13.2447
   -13.2336 -13.2336 -13.2271 -13.2271 -13.2148 -13.2148 -13.1940 -13.1940
   -13.1882 -13.1882 -13.1726 -13.1726  -5.3577  -5.3577  -4.3542  -4.3542
     0.7831   0.7831   2.1681   2.1681   4.1298   4.1298   4.6532   4.6532
     5.4441   5.4441   6.2618   6.2618   7.0751   7.0751   7.5530   7.5530
     9.6833   9.6833  10.7546  10.7546  11.2324  11.2324  11.6450  11.6450
    12.4773  12.4773

     occupation numbers 
     1.0000   1.0000   1.0000   1.0000   1.0000   1.0000   1.0000   1.0000
     1.0000   1.0000   1.0000   1.0000   1.0000   1.0000   1.0000   1.0000
     1.0000   1.0000   1.0000   1.0000   1.0000   1.0000   1.0000   1.0000
     1.0000   1.0000   1.0000   1.0000   1.0000   1.0000   1.0000   1.0000
     1.0000   1.0000   1.0000   1.0000   1.0000   1.0000   1.0000   1.0000
     0.0000   0.0000   0.0000   0.0000   0.0000   0.0000   0.0000   0.0000
     0.0000   0.0000

          k =-0.5000 0.4527 0.8538 (  8500 PWs)   bands (ev):

   -13.2586 -13.2586 -13.2546 -13.2546 -13.2475 -13.2475 -13.2453 -13.2453
   -13.2327 -13.2327 -13.2222 -13.2222 -13.2150 -13.2150 -13.1932 -13.1932
   -13.1900 -13.1900 -13.1723 -13.1723  -5.0756  -5.0756  -4.4223  -4.4223
     0.4680   0.4680   1.6531   1.6531   4.1808   4.1808   4.9876   4.9876
     5.2399   5.2399   6.4368   6.4368   6.8971   6.8971   7.5443   7.5443
     9.7399   9.7399  10.3760  10.3760  10.9207  10.9207  11.5653  11.5653
    12.5065  12.5065

     occupation numbers 
     1.0000   1.0000   1.0000   1.0000   1.0000   1.0000   1.0000   1.0000
     1.0000   1.0000   1.0000   1.0000   1.0000   1.0000   1.0000   1.0000
     1.0000   1.0000   1.0000   1.0000   1.0000   1.0000   1.0000   1.0000
     1.0000   1.0000   1.0000   1.0000   1.0000   1.0000   1.0000   1.0000
     1.0000   1.0000   1.0000   1.0000   1.0000   1.0000   1.0000   1.0000
     0.0000   0.0000   0.0000   0.0000   0.0000   0.0000   0.0000   0.0000
     0.0000   0.0000

          k =-0.5000 0.4527-1.2807 (  8508 PWs)   bands (ev):

   -13.2594 -13.2594 -13.2556 -13.2556 -13.2474 -13.2474 -13.2452 -13.2452
   -13.2323 -13.2323 -13.2192 -13.2192 -13.2154 -13.2154 -13.1920 -13.1920
   -13.1916 -13.1916 -13.1722 -13.1722  -4.8282  -4.8282  -4.5614  -4.5614
     0.3226   0.3226   1.3808   1.3808   4.5928   4.5928   4.7885   4.7885
     5.5559   5.5559   5.9751   5.9751   6.8250   6.8250   7.3417   7.3417
    10.2021  10.2021  10.2593  10.2593  10.7882  10.7882  11.5277  11.5277
    12.4451  12.4451

     occupation numbers 
     1.0000   1.0000   1.0000   1.0000   1.0000   1.0000   1.0000   1.0000
     1.0000   1.0000   1.0000   1.0000   1.0000   1.0000   1.0000   1.0000
     1.0000   1.0000   1.0000   1.0000   1.0000   1.0000   1.0000   1.0000
     1.0000   1.0000   1.0000   1.0000   1.0000   1.0000   1.0000   1.0000
     1.0000   1.0000   1.0000   1.0000   1.0000   1.0000   1.0000   1.0000
     0.0000   0.0000   0.0000   0.0000   0.0000   0.0000   0.0000   0.0000
     0.0000   0.0000

          k =-0.5000 0.9054 0.0000 (  8556 PWs)   bands (ev):

   -13.2581 -13.2581 -13.2535 -13.2535 -13.2439 -13.2439 -13.2426 -13.2426
   -13.2349 -13.2349 -13.2261 -13.2261 -13.2126 -13.2126 -13.1987 -13.1987
   -13.1847 -13.1847 -13.1751 -13.1751  -5.0937  -5.0937  -4.3823  -4.3823
     0.5645   0.5645   1.4042   1.4042   4.6052   4.6052   5.2264   5.2264
     5.9043   5.9043   6.2323   6.2323   6.5491   6.5491   7.6368   7.6368
     9.2246   9.2246  10.1310  10.1310  10.8908  10.8908  11.2858  11.2858
    11.6737  11.6737

     occupation numbers 
     1.0000   1.0000   1.0000   1.0000   1.0000   1.0000   1.0000   1.0000
     1.0000   1.0000   1.0000   1.0000   1.0000   1.0000   1.0000   1.0000
     1.0000   1.0000   1.0000   1.0000   1.0000   1.0000   1.0000   1.0000
     1.0000   1.0000   1.0000   1.0000   1.0000   1.0000   1.0000   1.0000
     1.0000   1.0000   1.0000   1.0000   1.0000   1.0000   1.0000   1.0000
     0.0000   0.0000   0.0000   0.0000   0.0000   0.0000   0.0000   0.0000
     0.0000   0.0000

          k =-0.5000 0.9054 0.4269 (  8534 PWs)   bands (ev):

   -13.2605 -13.2605 -13.2560 -13.2560 -13.2431 -13.2431 -13.2416 -13.2416
   -13.2340 -13.2340 -13.2247 -13.2247 -13.2121 -13.2121 -13.1986 -13.1986
   -13.1848 -13.1848 -13.1748 -13.1748  -5.0025  -5.0025  -4.3654  -4.3654
     0.6608   0.6608   1.4303   1.4303   4.0806   4.0806   4.9040   4.9040
     5.3410   5.3410   6.3181   6.3181   6.6195   6.6195   7.3887   7.3887
     9.7135   9.7135  10.0897  10.0897  11.1654  11.1654  11.5648  11.5648
    12.0996  12.0996

     occupation numbers 
     1.0000   1.0000   1.0000   1.0000   1.0000   1.0000   1.0000   1.0000
     1.0000   1.0000   1.0000   1.0000   1.0000   1.0000   1.0000   1.0000
     1.0000   1.0000   1.0000   1.0000   1.0000   1.0000   1.0000   1.0000
     1.0000   1.0000   1.0000   1.0000   1.0000   1.0000   1.0000   1.0000
     1.0000   1.0000   1.0000   1.0000   1.0000   1.0000   1.0000   1.0000
     0.0000   0.0000   0.0000   0.0000   0.0000   0.0000   0.0000   0.0000
     0.0000   0.0000

          k =-0.5000 0.9054 0.8538 (  8504 PWs)   bands (ev):

   -13.2650 -13.2650 -13.2608 -13.2608 -13.2421 -13.2421 -13.2399 -13.2399
   -13.2324 -13.2324 -13.2223 -13.2223 -13.2106 -13.2106 -13.1982 -13.1982
   -13.1851 -13.1851 -13.1743 -13.1743  -4.7766  -4.7766  -4.3654  -4.3654
     0.7958   0.7958   1.5059   1.5059   3.4928   3.4928   4.3748   4.3748
     4.9026   4.9026   5.5645   5.5645   6.3443   6.3443   7.0948   7.0948
    10.4146  10.4146  11.0017  11.0017  11.1982  11.1982  12.4979  12.4979
    12.6824  12.6824

     occupation numbers 
     1.0000   1.0000   1.0000   1.0000   1.0000   1.0000   1.0000   1.0000
     1.0000   1.0000   1.0000   1.0000   1.0000   1.0000   1.0000   1.0000
     1.0000   1.0000   1.0000   1.0000   1.0000   1.0000   1.0000   1.0000
     1.0000   1.0000   1.0000   1.0000   1.0000   1.0000   1.0000   1.0000
     1.0000   1.0000   1.0000   1.0000   1.0000   1.0000   1.0000   1.0000
     0.0000   0.0000   0.0000   0.0000   0.0000   0.0000   0.0000   0.0000
     0.0000   0.0000

          k =-0.5000 0.9054-1.2807 (  8484 PWs)   bands (ev):

   -13.2672 -13.2672 -13.2631 -13.2631 -13.2417 -13.2417 -13.2393 -13.2393
   -13.2317 -13.2317 -13.2213 -13.2213 -13.2096 -13.2096 -13.1980 -13.1980
   -13.1852 -13.1852 -13.1740 -13.1740  -4.5956  -4.5956  -4.4284  -4.4284
     0.7943   0.7943   1.5955   1.5955   3.6151   3.6151   3.7073   3.7073
     4.9714   4.9714   5.0532   5.0532   6.3814   6.3814   6.7350   6.7350
    10.4915  10.4915  11.2698  11.2698  12.1372  12.1372  12.2367  12.2367
    13.5862  13.5864

     occupation numbers 
     1.0000   1.0000   1.0000   1.0000   1.0000   1.0000   1.0000   1.0000
     1.0000   1.0000   1.0000   1.0000   1.0000   1.0000   1.0000   1.0000
     1.0000   1.0000   1.0000   1.0000   1.0000   1.0000   1.0000   1.0000
     1.0000   1.0000   1.0000   1.0000   1.0000   1.0000   1.0000   1.0000
     1.0000   1.0000   1.0000   1.0000   1.0000   1.0000   1.0000   1.0000
     0.0000   0.0000   0.0000   0.0000   0.0000   0.0000   0.0000   0.0000
     0.0000   0.0000

          k =-0.5000-1.3581 0.0000 (  8560 PWs)   bands (ev):

   -13.2584 -13.2584 -13.2584 -13.2584 -13.2407 -13.2407 -13.2407 -13.2407
   -13.2286 -13.2286 -13.2286 -13.2286 -13.2070 -13.2070 -13.2070 -13.2070
   -13.1789 -13.1789 -13.1789 -13.1789  -4.6506  -4.6506  -4.6506  -4.6506
     0.6674   0.6674   0.6674   0.6674   5.3022   5.3022   5.3022   5.3022
     5.9775   5.9775   5.9775   5.9775   7.0679   7.0679   7.0679   7.0679
     9.5795   9.5795   9.5795   9.5795  10.2425  10.2425  10.2425  10.2425
    12.0014  12.0014

     occupation numbers 
     1.0000   1.0000   1.0000   1.0000   1.0000   1.0000   1.0000   1.0000
     1.0000   1.0000   1.0000   1.0000   1.0000   1.0000   1.0000   1.0000
     1.0000   1.0000   1.0000   1.0000   1.0000   1.0000   1.0000   1.0000
     1.0000   1.0000   1.0000   1.0000   1.0000   1.0000   1.0000   1.0000
     1.0000   1.0000   1.0000   1.0000   1.0000   1.0000   1.0000   1.0000
     0.0000   0.0000   0.0000   0.0000   0.0000   0.0000   0.0000   0.0000
     0.0000   0.0000

          k =-0.5000-1.3581 0.4269 (  8552 PWs)   bands (ev):

   -13.2613 -13.2613 -13.2613 -13.2613 -13.2399 -13.2399 -13.2399 -13.2399
   -13.2279 -13.2279 -13.2279 -13.2279 -13.2063 -13.2063 -13.2063 -13.2063
   -13.1788 -13.1788 -13.1788 -13.1788  -4.5942  -4.5942  -4.5942  -4.5942
     0.8044   0.8044   0.8044   0.8044   4.6674   4.6674   4.6674   4.6674
     5.6440   5.6440   5.6440   5.6440   6.8404   6.8404   6.8404   6.8404
     9.9101   9.9101   9.9101   9.9101  11.3280  11.3280  11.3280  11.3280
    12.2339  12.2339

     occupation numbers 
     1.0000   1.0000   1.0000   1.0000   1.0000   1.0000   1.0000   1.0000
     1.0000   1.0000   1.0000   1.0000   1.0000   1.0000   1.0000   1.0000
     1.0000   1.0000   1.0000   1.0000   1.0000   1.0000   1.0000   1.0000
     1.0000   1.0000   1.0000   1.0000   1.0000   1.0000   1.0000   1.0000
     1.0000   1.0000   1.0000   1.0000   1.0000   1.0000   1.0000   1.0000
     0.0000   0.0000   0.0000   0.0000   0.0000   0.0000   0.0000   0.0000
     0.0000   0.0000

          k =-0.5000-1.3581 0.8538 (  8520 PWs)   bands (ev):

   -13.2667 -13.2667 -13.2667 -13.2667 -13.2387 -13.2387 -13.2387 -13.2387
   -13.2265 -13.2265 -13.2265 -13.2265 -13.2047 -13.2047 -13.2047 -13.2047
   -13.1786 -13.1786 -13.1786 -13.1786  -4.4755  -4.4755  -4.4755  -4.4755
     1.1365   1.1365   1.1365   1.1365   3.7646   3.7646   3.7646   3.7646
     4.8587   4.8587   4.8587   4.8587   6.5651   6.5651   6.5651   6.5651
    10.7495  10.7495  10.7495  10.7495  11.9954  11.9954  11.9954  11.9955
    13.7598  13.7598

     occupation numbers 
     1.0000   1.0000   1.0000   1.0000   1.0000   1.0000   1.0000   1.0000
     1.0000   1.0000   1.0000   1.0000   1.0000   1.0000   1.0000   1.0000
     1.0000   1.0000   1.0000   1.0000   1.0000   1.0000   1.0000   1.0000
     1.0000   1.0000   1.0000   1.0000   1.0000   1.0000   1.0000   1.0000
     1.0000   1.0000   1.0000   1.0000   1.0000   1.0000   1.0000   1.0000
     0.0000   0.0000   0.0000   0.0000   0.0000   0.0000   0.0000   0.0000
     0.0000   0.0000

          k =-0.5000-1.3581-1.2807 (  8472 PWs)   bands (ev):

   -13.2693 -13.2693 -13.2693 -13.2693 -13.2384 -13.2384 -13.2384 -13.2384
   -13.2257 -13.2257 -13.2257 -13.2257 -13.2038 -13.2038 -13.2038 -13.2038
   -13.1784 -13.1784 -13.1784 -13.1784  -4.4129  -4.4129  -4.4129  -4.4129
     1.3468   1.3468   1.3468   1.3468   3.4563   3.4563   3.4563   3.4563
     4.3162   4.3162   4.3162   4.3162   6.5960   6.5960   6.5960   6.5960
    10.6250  10.6250  10.6250  10.6250  12.8400  12.8400  12.8400  12.8400
    14.6052  14.6052

     occupation numbers 
     1.0000   1.0000   1.0000   1.0000   1.0000   1.0000   1.0000   1.0000
     1.0000   1.0000   1.0000   1.0000   1.0000   1.0000   1.0000   1.0000
     1.0000   1.0000   1.0000   1.0000   1.0000   1.0000   1.0000   1.0000
     1.0000   1.0000   1.0000   1.0000   1.0000   1.0000   1.0000   1.0000
     1.0000   1.0000   1.0000   1.0000   1.0000   1.0000   1.0000   1.0000
     0.0000   0.0000   0.0000   0.0000   0.0000   0.0000   0.0000   0.0000
     0.0000   0.0000

     highest occupied, lowest unoccupied level (ev):     8.1002    8.6729

!    total energy              =    -827.61860518 Ry
     estimated scf accuracy    <          9.9E-10 Ry

     The total energy is the sum of the following terms:
     one-electron contribution =    -257.00160565 Ry
     hartree contribution      =     179.10944825 Ry
     xc contribution           =    -309.12163159 Ry
     ewald contribution        =    -440.60481620 Ry

     convergence has been achieved in   9 iterations

     Forces acting on atoms (cartesian axes, Ry/au):

     atom    1 type  2   force =     0.00806638    0.00000000   -0.00036981
     atom    2 type  1   force =    -0.00737123   -0.00000000   -0.00107150
     atom    3 type  2   force =    -0.00806638   -0.00000000   -0.00036981
     atom    4 type  1   force =     0.00737123    0.00000000   -0.00107150
     atom    5 type  2   force =     0.00806638    0.00000000    0.00036981
     atom    6 type  1   force =    -0.00737123   -0.00000000    0.00107150
     atom    7 type  2   force =    -0.00806638    0.00000000    0.00036981
     atom    8 type  1   force =     0.00737123   -0.00000000    0.00107150
     The non-local contrib.  to forces
     atom    1 type  2   force =    -0.11828055    0.00000000    0.09590919
     atom    2 type  1   force =     0.37327451    0.00000000    0.26603378
     atom    3 type  2   force =     0.11828055    0.00000000    0.09590919
     atom    4 type  1   force =    -0.37327451    0.00000000    0.26603378
     atom    5 type  2   force =    -0.11828055    0.00000000   -0.09590919
     atom    6 type  1   force =     0.37327451    0.00000000   -0.26603378
     atom    7 type  2   force =     0.11828055    0.00000000   -0.09590919
     atom    8 type  1   force =    -0.37327451    0.00000000   -0.26603378
     The ionic contribution  to forces
     atom    1 type  2   force =     1.53473235    0.00000000   -1.05154455
     atom    2 type  1   force =    -1.03769718    0.00000000   -0.57506129
     atom    3 type  2   force =    -1.53473235    0.00000000   -1.05154455
     atom    4 type  1   force =     1.03769718   -0.00000000   -0.57506129
     atom    5 type  2   force =     1.53473235    0.00000000    1.05154455
     atom    6 type  1   force =    -1.03769718   -0.00000000    0.57506129
     atom    7 type  2   force =    -1.53473235   -0.00000000    1.05154455
     atom    8 type  1   force =     1.03769718    0.00000000    0.57506129
     The local contribution  to forces
     atom    1 type  2   force =    -1.42140239   -0.00000000    0.96584268
     atom    2 type  1   force =     0.66287674    0.00000000    0.31229121
     atom    3 type  2   force =     1.42140239   -0.00000000    0.96584268
     atom    4 type  1   force =    -0.66287674    0.00000000    0.31229121
     atom    5 type  2   force =    -1.42140239    0.00000000   -0.96584268
     atom    6 type  1   force =     0.66287674    0.00000000   -0.31229121
     atom    7 type  2   force =     1.42140239    0.00000000   -0.96584268
     atom    8 type  1   force =    -0.66287674    0.00000000   -0.31229121
     The core correction contribution to forces
     atom    1 type  2   force =     0.01298851   -0.00000000   -0.01057739
     atom    2 type  1   force =    -0.00576613   -0.00000000   -0.00436321
     atom    3 type  2   force =    -0.01298851   -0.00000000   -0.01057739
     atom    4 type  1   force =     0.00576613    0.00000000   -0.00436321
     atom    5 type  2   force =     0.01298851   -0.00000000    0.01057739
     atom    6 type  1   force =    -0.00576613   -0.00000000    0.00436321
     atom    7 type  2   force =    -0.01298851   -0.00000000    0.01057739
     atom    8 type  1   force =     0.00576613    0.00000000    0.00436321
     The Hubbard contrib.    to forces
     atom    1 type  2   force =     0.00000000    0.00000000    0.00000000
     atom    2 type  1   force =     0.00000000    0.00000000    0.00000000
     atom    3 type  2   force =     0.00000000    0.00000000    0.00000000
     atom    4 type  1   force =     0.00000000    0.00000000    0.00000000
     atom    5 type  2   force =     0.00000000    0.00000000    0.00000000
     atom    6 type  1   force =     0.00000000    0.00000000    0.00000000
     atom    7 type  2   force =     0.00000000    0.00000000    0.00000000
     atom    8 type  1   force =     0.00000000    0.00000000    0.00000000
     The SCF correction term to forces
     atom    1 type  2   force =     0.00002846    0.00000000    0.00000026
     atom    2 type  1   force =    -0.00005916   -0.00000000    0.00002801
     atom    3 type  2   force =    -0.00002846    0.00000000    0.00000026
     atom    4 type  1   force =     0.00005916   -0.00000000    0.00002801
     atom    5 type  2   force =     0.00002846    0.00000000   -0.00000026
     atom    6 type  1   force =    -0.00005916   -0.00000000   -0.00002801
     atom    7 type  2   force =    -0.00002846    0.00000000   -0.00000026
     atom    8 type  1   force =     0.00005916    0.00000000   -0.00002801

     Total force =     0.021971     Total SCF correction =     0.000143

     Writing output data file ./tmp/SnSe_pnma.save/

     init_run     :      9.48s CPU      9.31s WALL (       1 calls)
     electrons    :    213.31s CPU    184.30s WALL (       1 calls)
     forces       :      6.09s CPU      5.66s WALL (       1 calls)

     Called by init_run:
     wfcinit      :      5.21s CPU      4.67s WALL (       1 calls)
     wfcinit:atom :      0.08s CPU      0.05s WALL (       8 calls)
     wfcinit:wfcr :      4.58s CPU      4.24s WALL (       8 calls)
     potinit      :      1.14s CPU      1.23s WALL (       1 calls)
     hinit0       :      2.00s CPU      2.03s WALL (       1 calls)

     Called by electrons:
     c_bands      :    170.49s CPU    141.38s WALL (       9 calls)
     sum_band     :     30.01s CPU     26.66s WALL (       9 calls)
     v_of_rho     :      3.79s CPU      4.32s WALL (      10 calls)
     v_h          :      0.27s CPU      0.28s WALL (      10 calls)
     v_xc         :      3.84s CPU      4.41s WALL (      11 calls)
     newd         :      9.39s CPU     12.61s WALL (      10 calls)
     mix_rho      :      0.61s CPU      0.59s WALL (       9 calls)

     Called by c_bands:
     init_us_2    :      2.02s CPU      1.55s WALL (     160 calls)
     cegterg      :    124.95s CPU    100.26s WALL (      72 calls)

     Called by sum_band:
     sum_band:wei :      0.00s CPU      0.00s WALL (       9 calls)
     sum_band:loo :     19.63s CPU     16.90s WALL (       9 calls)
     sum_band:buf :      0.17s CPU      0.12s WALL (      72 calls)
     sum_band:ini :      0.93s CPU      0.68s WALL (      72 calls)
     sum_band:cal :      4.13s CPU      4.46s WALL (      72 calls)
     sum_band:bec :      0.01s CPU      0.01s WALL (      72 calls)
     addusdens    :      7.66s CPU      7.43s WALL (       9 calls)
     addusd:skk   :      0.03s CPU      0.05s WALL (      18 calls)
     addusd:dgemm :      2.90s CPU      2.78s WALL (      18 calls)
     addusd:qvan2 :      4.16s CPU      3.49s WALL (      18 calls)

     Called by *egterg:
     cdiaghg      :      5.40s CPU      6.65s WALL (     320 calls)
     cegterg:over :     14.04s CPU     12.87s WALL (     248 calls)
     cegterg:upda :      5.12s CPU      1.99s WALL (     248 calls)
     cegterg:last :      8.98s CPU      2.48s WALL (     151 calls)
     h_psi        :     77.24s CPU     65.60s WALL (     328 calls)
     s_psi        :      9.25s CPU      2.58s WALL (     328 calls)
     g_psi        :      0.78s CPU      0.59s WALL (     248 calls)

     Called by h_psi:
     h_psi:calbec :     12.35s CPU     13.71s WALL (     328 calls)
     vloc_psi     :     55.07s CPU     48.82s WALL (     328 calls)
     add_vuspsi   :      9.31s CPU      2.54s WALL (     328 calls)

     General routines
     calbec       :     17.92s CPU     19.32s WALL (     432 calls)
     fft          :      2.50s CPU      2.46s WALL (     139 calls)
     ffts         :      0.07s CPU      0.07s WALL (      19 calls)
     fftw         :     56.28s CPU     49.14s WALL (   23094 calls)
     interpolate  :      0.24s CPU      0.24s WALL (      10 calls)

     Parallel routines

     PWSCF        :   3m49.15s CPU   3m19.66s WALL


   This run was terminated on:  18:59:30   5May2026            

=------------------------------------------------------------------------------=
   JOB DONE.
=------------------------------------------------------------------------------=
