
     Program PWSCF v.6.7MaX starts on  5May2026 at 18:45: 2 

     This program is part of the open-source Quantum ESPRESSO suite
     for quantum simulation of materials; please cite
         "P. Giannozzi et al., J. Phys.:Condens. Matter 21 395502 (2009);
         "P. Giannozzi et al., J. Phys.:Condens. Matter 29 465901 (2017);
          URL http://www.quantum-espresso.org", 
     in publications or presentations arising from this work. More details at
     http://www.quantum-espresso.org/quote

     Parallel version (MPI), running on     4 processors

     MPI processes distributed on     1 nodes
     K-points division:     npool     =       4
     Waiting for input...
     Reading input from standard input

     Current dimensions of program PWSCF are:
     Max number of different atomic species (ntypx) = 10
     Max number of k-points (npk) =  40000
     Max angular momentum in pseudopotentials (lmaxx) =  3

     Subspace diagonalization in iterative solution of the eigenvalue problem:
     a serial algorithm will be used


     G-vector sticks info
     --------------------
     sticks:   dense  smooth     PW     G-vecs:    dense   smooth      PW
     Sum        3379    1357    413                95113    24123    4139



     bravais-lattice index     =            8
     lattice parameter (alat)  =      21.4862  a.u.
     unit-cell volume          =    1425.7436 (a.u.)^3
     number of atoms/cell      =            8
     number of atomic types    =            2
     number of electrons       =        80.00
     number of Kohn-Sham states=           50
     kinetic-energy cutoff     =      25.0000  Ry
     charge density cutoff     =     250.0000  Ry
     scf convergence threshold =      1.0E-08
     mixing beta               =       0.7000
     number of iterations used =            8  plain     mixing
     Exchange-correlation= SLA  PW   PBE  PBE
                           (   1   4   3   4   0   0   0)

     celldm(1)=  21.486186  celldm(2)=   0.368162  celldm(3)=   0.390413
     celldm(4)=   0.000000  celldm(5)=   0.000000  celldm(6)=   0.000000

     crystal axes: (cart. coord. in units of alat)
               a(1) = (   1.000000   0.000000   0.000000 )  
               a(2) = (   0.000000   0.368162   0.000000 )  
               a(3) = (   0.000000   0.000000   0.390413 )  

     reciprocal axes: (cart. coord. in units 2 pi/alat)
               b(1) = (  1.000000  0.000000  0.000000 )  
               b(2) = (  0.000000  2.716197  0.000000 )  
               b(3) = (  0.000000  0.000000  2.561388 )  


     PseudoPot. # 1 for Sn read from file:
     ../pseudo/Sn_pbe_v1.uspp.F.UPF
     MD5 check sum: 4cf58ce39ec5d5d420df3dd08604eb00
     Pseudo is Ultrasoft + core correction, Zval = 14.0
     Generated by new atomic code, or converted to UPF format
     Using radial grid of  891 points,  6 beta functions with: 
                l(1) =   0
                l(2) =   0
                l(3) =   1
                l(4) =   1
                l(5) =   2
                l(6) =   2
     Q(r) pseudized with  6 coefficients,  rinner =    1.200   1.200   1.200
                                                       1.200   1.200

     PseudoPot. # 2 for Se read from file:
     ../pseudo/Se_pbe_v1.uspp.F.UPF
     MD5 check sum: 1b3568f3a8ae88f9a2a0ad0698632c85
     Pseudo is Ultrasoft + core correction, Zval =  6.0
     Generated by new atomic code, or converted to UPF format
     Using radial grid of  877 points,  6 beta functions with: 
                l(1) =   0
                l(2) =   0
                l(3) =   1
                l(4) =   1
                l(5) =   2
                l(6) =   2
     Q(r) pseudized with  8 coefficients,  rinner =    1.300   1.300   1.300
                                                       1.300   1.300

     atomic species   valence    mass     pseudopotential
        Sn            14.00   118.71000     Sn( 1.00)
        Se             6.00    78.97100     Se( 1.00)

      8 Sym. Ops., with inversion, found ( 6 have fractional translation)


                                    s                        frac. trans.

      isym =  1     identity                                     

 cryst.   s( 1) = (     1          0          0      )
                  (     0          1          0      )
                  (     0          0          1      )

 cart.    s( 1) = (  1.0000000  0.0000000  0.0000000 )
                  (  0.0000000  1.0000000  0.0000000 )
                  (  0.0000000  0.0000000  1.0000000 )


      isym =  2     180 deg rotation - cart. axis [0,0,1]        

 cryst.   s( 2) = (    -1          0          0      )    f =(  0.5000000 )
                  (     0         -1          0      )       (  0.0000000 )
                  (     0          0          1      )       (  0.5000000 )

 cart.    s( 2) = ( -1.0000000  0.0000000  0.0000000 )    f =(  0.5000000 )
                  (  0.0000000 -1.0000000  0.0000000 )       (  0.0000000 )
                  (  0.0000000  0.0000000  1.0000000 )       (  0.1952067 )


      isym =  3     180 deg rotation - cart. axis [0,1,0]        

 cryst.   s( 3) = (    -1          0          0      )    f =(  0.0000000 )
                  (     0          1          0      )       ( -0.5000000 )
                  (     0          0         -1      )       (  0.0000000 )

 cart.    s( 3) = ( -1.0000000  0.0000000  0.0000000 )    f =(  0.0000000 )
                  (  0.0000000  1.0000000  0.0000000 )       ( -0.1840809 )
                  (  0.0000000  0.0000000 -1.0000000 )       (  0.0000000 )


      isym =  4     180 deg rotation - cart. axis [1,0,0]        

 cryst.   s( 4) = (     1          0          0      )    f =(  0.5000000 )
                  (     0         -1          0      )       (  0.5000000 )
                  (     0          0         -1      )       (  0.5000000 )

 cart.    s( 4) = (  1.0000000  0.0000000  0.0000000 )    f =(  0.5000000 )
                  (  0.0000000 -1.0000000  0.0000000 )       (  0.1840809 )
                  (  0.0000000  0.0000000 -1.0000000 )       (  0.1952067 )


      isym =  5     inversion                                    

 cryst.   s( 5) = (    -1          0          0      )
                  (     0         -1          0      )
                  (     0          0         -1      )

 cart.    s( 5) = ( -1.0000000  0.0000000  0.0000000 )
                  (  0.0000000 -1.0000000  0.0000000 )
                  (  0.0000000  0.0000000 -1.0000000 )


      isym =  6     inv. 180 deg rotation - cart. axis [0,0,1]   

 cryst.   s( 6) = (     1          0          0      )    f =(  0.5000000 )
                  (     0          1          0      )       (  0.0000000 )
                  (     0          0         -1      )       (  0.5000000 )

 cart.    s( 6) = (  1.0000000  0.0000000  0.0000000 )    f =(  0.5000000 )
                  (  0.0000000  1.0000000  0.0000000 )       (  0.0000000 )
                  (  0.0000000  0.0000000 -1.0000000 )       (  0.1952067 )


      isym =  7     inv. 180 deg rotation - cart. axis [0,1,0]   

 cryst.   s( 7) = (     1          0          0      )    f =(  0.0000000 )
                  (     0         -1          0      )       (  0.5000000 )
                  (     0          0          1      )       (  0.0000000 )

 cart.    s( 7) = (  1.0000000  0.0000000  0.0000000 )    f =(  0.0000000 )
                  (  0.0000000 -1.0000000  0.0000000 )       (  0.1840809 )
                  (  0.0000000  0.0000000  1.0000000 )       (  0.0000000 )


      isym =  8     inv. 180 deg rotation - cart. axis [1,0,0]   

 cryst.   s( 8) = (    -1          0          0      )    f =(  0.5000000 )
                  (     0          1          0      )       ( -0.5000000 )
                  (     0          0          1      )       (  0.5000000 )

 cart.    s( 8) = ( -1.0000000  0.0000000  0.0000000 )    f =(  0.5000000 )
                  (  0.0000000  1.0000000  0.0000000 )       ( -0.1840809 )
                  (  0.0000000  0.0000000  1.0000000 )       (  0.1952067 )


     point group D_2h (mmm) 
     there are  8 classes
     the character table:

       E     C2    C2'   C2''  i     s_v   s_v'  s_v''
A_g    1.00  1.00  1.00  1.00  1.00  1.00  1.00  1.00
B_1g   1.00  1.00 -1.00 -1.00  1.00  1.00 -1.00 -1.00
B_2g   1.00 -1.00  1.00 -1.00  1.00 -1.00  1.00 -1.00
B_3g   1.00 -1.00 -1.00  1.00  1.00 -1.00 -1.00  1.00
A_u    1.00  1.00  1.00  1.00 -1.00 -1.00 -1.00 -1.00
B_1u   1.00  1.00 -1.00 -1.00 -1.00 -1.00  1.00  1.00
B_2u   1.00 -1.00  1.00 -1.00 -1.00  1.00 -1.00  1.00
B_3u   1.00 -1.00 -1.00  1.00 -1.00  1.00  1.00 -1.00

     the symmetry operations in each class and the name of the first element:

     E        1
          identity                                               
     C2       2
          180 deg rotation - cart. axis [0,0,1]                  
     C2'      4
          180 deg rotation - cart. axis [1,0,0]                  
     C2''     3
          180 deg rotation - cart. axis [0,1,0]                  
     i        5
          inversion                                              
     s_v      6
          inv. 180 deg rotation - cart. axis [0,0,1]             
     s_v'     8
          inv. 180 deg rotation - cart. axis [1,0,0]             
     s_v''    7
          inv. 180 deg rotation - cart. axis [0,1,0]             

   Cartesian axes

     site n.     atom                  positions (alat units)
         1           Se  tau(   1) = (   0.8555000   0.0920405   0.1884916  )
         2           Sn  tau(   2) = (   0.1187000   0.0920405   0.0385728  )
         3           Se  tau(   3) = (   0.6445000   0.2761214   0.3836983  )
         4           Sn  tau(   4) = (   0.3813000   0.2761214   0.2337795  )
         5           Se  tau(   5) = (   0.3555000   0.0920405   0.0067151  )
         6           Sn  tau(   6) = (   0.6187000   0.0920405   0.1566338  )
         7           Se  tau(   7) = (   0.1445000   0.2761214   0.2019218  )
         8           Sn  tau(   8) = (   0.8813000   0.2761214   0.3518405  )

   Crystallographic axes

     site n.     atom                  positions (cryst. coord.)
         1           Se  tau(   1) = (  0.8555000  0.2500000  0.4828000  )
         2           Sn  tau(   2) = (  0.1187000  0.2500000  0.0988000  )
         3           Se  tau(   3) = (  0.6445000  0.7500000  0.9828000  )
         4           Sn  tau(   4) = (  0.3813000  0.7500000  0.5988000  )
         5           Se  tau(   5) = (  0.3555000  0.2500000  0.0172000  )
         6           Sn  tau(   6) = (  0.6187000  0.2500000  0.4012000  )
         7           Se  tau(   7) = (  0.1445000  0.7500000  0.5172000  )
         8           Sn  tau(   8) = (  0.8813000  0.7500000  0.9012000  )

     number of k points=    32
                       cart. coord. in units 2pi/alat
        k(    1) = (   0.0000000   0.0000000   0.0000000), wk =   0.0277778
        k(    2) = (   0.0000000   0.0000000   0.4268979), wk =   0.0555556
        k(    3) = (   0.0000000   0.0000000   0.8537959), wk =   0.0555556
        k(    4) = (   0.0000000   0.0000000  -1.2806938), wk =   0.0277778
        k(    5) = (   0.0000000   0.4526995   0.0000000), wk =   0.0555556
        k(    6) = (   0.0000000   0.4526995   0.4268979), wk =   0.1111111
        k(    7) = (   0.0000000   0.4526995   0.8537959), wk =   0.1111111
        k(    8) = (   0.0000000   0.4526995  -1.2806938), wk =   0.0555556
        k(    9) = (   0.0000000   0.9053989   0.0000000), wk =   0.0555556
        k(   10) = (   0.0000000   0.9053989   0.4268979), wk =   0.1111111
        k(   11) = (   0.0000000   0.9053989   0.8537959), wk =   0.1111111
        k(   12) = (   0.0000000   0.9053989  -1.2806938), wk =   0.0555556
        k(   13) = (   0.0000000  -1.3580984   0.0000000), wk =   0.0277778
        k(   14) = (   0.0000000  -1.3580984   0.4268979), wk =   0.0555556
        k(   15) = (   0.0000000  -1.3580984   0.8537959), wk =   0.0555556
        k(   16) = (   0.0000000  -1.3580984  -1.2806938), wk =   0.0277778
        k(   17) = (  -0.5000000   0.0000000   0.0000000), wk =   0.0277778
        k(   18) = (  -0.5000000   0.0000000   0.4268979), wk =   0.0555556
        k(   19) = (  -0.5000000   0.0000000   0.8537959), wk =   0.0555556
        k(   20) = (  -0.5000000   0.0000000  -1.2806938), wk =   0.0277778
        k(   21) = (  -0.5000000   0.4526995   0.0000000), wk =   0.0555556
        k(   22) = (  -0.5000000   0.4526995   0.4268979), wk =   0.1111111
        k(   23) = (  -0.5000000   0.4526995   0.8537959), wk =   0.1111111
        k(   24) = (  -0.5000000   0.4526995  -1.2806938), wk =   0.0555556
        k(   25) = (  -0.5000000   0.9053989   0.0000000), wk =   0.0555556
        k(   26) = (  -0.5000000   0.9053989   0.4268979), wk =   0.1111111
        k(   27) = (  -0.5000000   0.9053989   0.8537959), wk =   0.1111111
        k(   28) = (  -0.5000000   0.9053989  -1.2806938), wk =   0.0555556
        k(   29) = (  -0.5000000  -1.3580984   0.0000000), wk =   0.0277778
        k(   30) = (  -0.5000000  -1.3580984   0.4268979), wk =   0.0555556
        k(   31) = (  -0.5000000  -1.3580984   0.8537959), wk =   0.0555556
        k(   32) = (  -0.5000000  -1.3580984  -1.2806938), wk =   0.0277778

                       cryst. coord.
        k(    1) = (   0.0000000   0.0000000   0.0000000), wk =   0.0277778
        k(    2) = (   0.0000000   0.0000000   0.1666667), wk =   0.0555556
        k(    3) = (   0.0000000   0.0000000   0.3333333), wk =   0.0555556
        k(    4) = (   0.0000000   0.0000000  -0.5000000), wk =   0.0277778
        k(    5) = (   0.0000000   0.1666667   0.0000000), wk =   0.0555556
        k(    6) = (   0.0000000   0.1666667   0.1666667), wk =   0.1111111
        k(    7) = (   0.0000000   0.1666667   0.3333333), wk =   0.1111111
        k(    8) = (   0.0000000   0.1666667  -0.5000000), wk =   0.0555556
        k(    9) = (   0.0000000   0.3333333   0.0000000), wk =   0.0555556
        k(   10) = (   0.0000000   0.3333333   0.1666667), wk =   0.1111111
        k(   11) = (   0.0000000   0.3333333   0.3333333), wk =   0.1111111
        k(   12) = (   0.0000000   0.3333333  -0.5000000), wk =   0.0555556
        k(   13) = (   0.0000000  -0.5000000   0.0000000), wk =   0.0277778
        k(   14) = (   0.0000000  -0.5000000   0.1666667), wk =   0.0555556
        k(   15) = (   0.0000000  -0.5000000   0.3333333), wk =   0.0555556
        k(   16) = (   0.0000000  -0.5000000  -0.5000000), wk =   0.0277778
        k(   17) = (  -0.5000000   0.0000000   0.0000000), wk =   0.0277778
        k(   18) = (  -0.5000000   0.0000000   0.1666667), wk =   0.0555556
        k(   19) = (  -0.5000000   0.0000000   0.3333333), wk =   0.0555556
        k(   20) = (  -0.5000000   0.0000000  -0.5000000), wk =   0.0277778
        k(   21) = (  -0.5000000   0.1666667   0.0000000), wk =   0.0555556
        k(   22) = (  -0.5000000   0.1666667   0.1666667), wk =   0.1111111
        k(   23) = (  -0.5000000   0.1666667   0.3333333), wk =   0.1111111
        k(   24) = (  -0.5000000   0.1666667  -0.5000000), wk =   0.0555556
        k(   25) = (  -0.5000000   0.3333333   0.0000000), wk =   0.0555556
        k(   26) = (  -0.5000000   0.3333333   0.1666667), wk =   0.1111111
        k(   27) = (  -0.5000000   0.3333333   0.3333333), wk =   0.1111111
        k(   28) = (  -0.5000000   0.3333333  -0.5000000), wk =   0.0555556
        k(   29) = (  -0.5000000  -0.5000000   0.0000000), wk =   0.0277778
        k(   30) = (  -0.5000000  -0.5000000   0.1666667), wk =   0.0555556
        k(   31) = (  -0.5000000  -0.5000000   0.3333333), wk =   0.0555556
        k(   32) = (  -0.5000000  -0.5000000  -0.5000000), wk =   0.0277778

     Dense  grid:    95113 G-vectors     FFT dimensions: ( 120,  40,  48)

     Smooth grid:    24123 G-vectors     FFT dimensions: (  72,  30,  30)

     Dynamical RAM for                 wfc:       2.30 MB

     Dynamical RAM for     wfc (w. buffer):      20.67 MB

     Dynamical RAM for           str. fact:       2.90 MB

     Dynamical RAM for           local pot:       0.00 MB

     Dynamical RAM for          nlocal pot:       6.61 MB

     Dynamical RAM for                qrad:       2.54 MB

     Dynamical RAM for          rho,v,vnew:       9.63 MB

     Dynamical RAM for               rhoin:       3.21 MB

     Dynamical RAM for            rho*nmix:      23.22 MB

     Dynamical RAM for           G-vectors:       5.63 MB

     Dynamical RAM for          h,s,v(r/c):       0.46 MB

     Dynamical RAM for          <psi|beta>:       0.11 MB

     Dynamical RAM for                 psi:       4.59 MB

     Dynamical RAM for                hpsi:       4.59 MB

     Dynamical RAM for                spsi:       4.59 MB

     Dynamical RAM for      wfcinit/wfcrot:       4.84 MB

     Dynamical RAM for           addusdens:      70.02 MB

     Dynamical RAM for          addusforce:      71.85 MB

     Estimated static dynamical RAM per process >      87.55 MB

     Estimated max dynamical RAM per process >     159.41 MB

     Estimated total dynamical RAM >     637.62 MB

     Initial potential from superposition of free atoms

     starting charge   75.99954, renormalised to   80.00000
     Starting wfcs are   52 randomized atomic wfcs

     total cpu time spent up to now is        3.8 secs

     Self-consistent Calculation

     iteration #  1     ecut=    25.00 Ry     beta= 0.70
     Davidson diagonalization with overlap
     ethr =  1.00E-02,  avg # of iterations =  3.8

     total cpu time spent up to now is       15.7 secs

     total energy              =    -826.52443991 Ry
     estimated scf accuracy    <       2.64947451 Ry

     iteration #  2     ecut=    25.00 Ry     beta= 0.70
     Davidson diagonalization with overlap
     ethr =  3.31E-03,  avg # of iterations =  2.0

     total cpu time spent up to now is       24.8 secs

     total energy              =    -827.31622232 Ry
     estimated scf accuracy    <       1.10914293 Ry

     iteration #  3     ecut=    25.00 Ry     beta= 0.70
     Davidson diagonalization with overlap
     ethr =  1.39E-03,  avg # of iterations =  2.0

     total cpu time spent up to now is       34.5 secs

     total energy              =    -827.59475013 Ry
     estimated scf accuracy    <       0.06041459 Ry

     iteration #  4     ecut=    25.00 Ry     beta= 0.70
     Davidson diagonalization with overlap
     ethr =  7.55E-05,  avg # of iterations =  3.2

     total cpu time spent up to now is       43.0 secs

     total energy              =    -827.60534514 Ry
     estimated scf accuracy    <       0.00296612 Ry

     iteration #  5     ecut=    25.00 Ry     beta= 0.70
     Davidson diagonalization with overlap
     ethr =  3.71E-06,  avg # of iterations =  5.0

     total cpu time spent up to now is       54.2 secs

     total energy              =    -827.60600504 Ry
     estimated scf accuracy    <       0.00080066 Ry

     iteration #  6     ecut=    25.00 Ry     beta= 0.70
     Davidson diagonalization with overlap
     ethr =  1.00E-06,  avg # of iterations =  2.0

     total cpu time spent up to now is       63.9 secs

     total energy              =    -827.60617572 Ry
     estimated scf accuracy    <       0.00004822 Ry

     iteration #  7     ecut=    25.00 Ry     beta= 0.70
     Davidson diagonalization with overlap
     ethr =  6.03E-08,  avg # of iterations =  4.0

     total cpu time spent up to now is       73.7 secs

     total energy              =    -827.60619213 Ry
     estimated scf accuracy    <       0.00000312 Ry

     iteration #  8     ecut=    25.00 Ry     beta= 0.70
     Davidson diagonalization with overlap
     ethr =  3.90E-09,  avg # of iterations =  2.2

     total cpu time spent up to now is       81.8 secs

     total energy              =    -827.60619309 Ry
     estimated scf accuracy    <       0.00000055 Ry

     iteration #  9     ecut=    25.00 Ry     beta= 0.70
     Davidson diagonalization with overlap
     ethr =  6.82E-10,  avg # of iterations =  2.0

     total cpu time spent up to now is       89.3 secs

     End of self-consistent calculation

          k = 0.0000 0.0000 0.0000 (  3015 PWs)   bands (ev):

   -13.2716 -13.2600 -13.2568 -13.2540 -13.2536 -13.2501 -13.2469 -13.2429
   -13.2385 -13.2382 -13.2378 -13.2302 -13.2230 -13.2163 -13.2018 -13.1970
   -13.1923 -13.1878 -13.1805 -13.1719  -5.7447  -5.3946  -4.6572  -4.1570
     0.8108   1.9488   2.5401   3.0760   3.2316   4.6650   4.7032   4.7779
     5.1836   5.2400   5.8127   6.3128   6.5376   6.9897   7.4021   7.5712
     8.8506  10.9526  11.1007  11.1334  11.3586  11.4523  12.3355  12.6310
    12.7045  12.7439

     occupation numbers 
     1.0000   1.0000   1.0000   1.0000   1.0000   1.0000   1.0000   1.0000
     1.0000   1.0000   1.0000   1.0000   1.0000   1.0000   1.0000   1.0000
     1.0000   1.0000   1.0000   1.0000   1.0000   1.0000   1.0000   1.0000
     1.0000   1.0000   1.0000   1.0000   1.0000   1.0000   1.0000   1.0000
     1.0000   1.0000   1.0000   1.0000   1.0000   1.0000   1.0000   1.0000
     0.0000   0.0000   0.0000   0.0000   0.0000   0.0000   0.0000   0.0000
     0.0000   0.0000

          k = 0.0000 0.0000 0.4269 (  3013 PWs)   bands (ev):

   -13.2701 -13.2591 -13.2568 -13.2552 -13.2532 -13.2519 -13.2472 -13.2442
   -13.2382 -13.2365 -13.2340 -13.2309 -13.2218 -13.2169 -13.2021 -13.1966
   -13.1931 -13.1891 -13.1798 -13.1723  -5.6265  -5.2863  -4.6436  -4.1889
     0.4462   1.7105   1.9316   2.6891   3.2176   4.8198   4.8458   5.3365
     5.3468   5.9074   5.9295   6.5197   6.5937   7.1004   7.4483   7.5885
     8.9726  10.0955  10.7272  10.9037  11.1427  11.4586  11.9026  12.0709
    12.5334  12.7694

     occupation numbers 
     1.0000   1.0000   1.0000   1.0000   1.0000   1.0000   1.0000   1.0000
     1.0000   1.0000   1.0000   1.0000   1.0000   1.0000   1.0000   1.0000
     1.0000   1.0000   1.0000   1.0000   1.0000   1.0000   1.0000   1.0000
     1.0000   1.0000   1.0000   1.0000   1.0000   1.0000   1.0000   1.0000
     1.0000   1.0000   1.0000   1.0000   1.0000   1.0000   1.0000   1.0000
     0.0000   0.0000   0.0000   0.0000   0.0000   0.0000   0.0000   0.0000
     0.0000   0.0000

          k = 0.0000 0.0000 0.8538 (  3008 PWs)   bands (ev):

   -13.2660 -13.2581 -13.2579 -13.2559 -13.2558 -13.2520 -13.2488 -13.2469
   -13.2364 -13.2324 -13.2302 -13.2272 -13.2210 -13.2190 -13.2012 -13.1958
   -13.1945 -13.1908 -13.1782 -13.1738  -5.3107  -4.9949  -4.6872  -4.3294
    -0.0229   0.8108   1.3648   1.9826   3.6453   5.0255   5.3401   5.7852
     6.1149   6.1259   6.3730   6.6099   6.8464   7.4431   7.5937   8.1010
     8.9986   9.5577   9.5832   9.7401  10.4736  10.5783  11.0938  11.2247
    11.9949  12.1210

     occupation numbers 
     1.0000   1.0000   1.0000   1.0000   1.0000   1.0000   1.0000   1.0000
     1.0000   1.0000   1.0000   1.0000   1.0000   1.0000   1.0000   1.0000
     1.0000   1.0000   1.0000   1.0000   1.0000   1.0000   1.0000   1.0000
     1.0000   1.0000   1.0000   1.0000   1.0000   1.0000   1.0000   1.0000
     1.0000   1.0000   1.0000   1.0000   1.0000   1.0000   1.0000   1.0000
     0.0000   0.0000   0.0000   0.0000   0.0000   0.0000   0.0000   0.0000
     0.0000   0.0000

          k = 0.0000 0.0000-1.2807 (  3030 PWs)   bands (ev):

   -13.2618 -13.2618 -13.2589 -13.2589 -13.2534 -13.2534 -13.2490 -13.2490
   -13.2342 -13.2342 -13.2236 -13.2236 -13.2225 -13.2225 -13.1992 -13.1992
   -13.1929 -13.1929 -13.1762 -13.1762  -4.9300  -4.9300  -4.6254  -4.6254
     0.0662   0.0662   1.4337   1.4337   4.3921   4.3921   5.9312   5.9312
     6.3082   6.3082   6.6808   6.6808   7.2622   7.2622   7.7982   7.7982
     9.3238   9.3238   9.6533   9.6533   9.7907   9.7907  10.7623  10.7623
    11.2268  11.2268

     occupation numbers 
     1.0000   1.0000   1.0000   1.0000   1.0000   1.0000   1.0000   1.0000
     1.0000   1.0000   1.0000   1.0000   1.0000   1.0000   1.0000   1.0000
     1.0000   1.0000   1.0000   1.0000   1.0000   1.0000   1.0000   1.0000
     1.0000   1.0000   1.0000   1.0000   1.0000   1.0000   1.0000   1.0000
     1.0000   1.0000   1.0000   1.0000   1.0000   1.0000   1.0000   1.0000
     0.0000   0.0000   0.0000   0.0000   0.0000   0.0000   0.0000   0.0000
     0.0000   0.0000

          k = 0.0000 0.4527 0.0000 (  3015 PWs)   bands (ev):

   -13.2659 -13.2581 -13.2560 -13.2533 -13.2518 -13.2518 -13.2509 -13.2461
   -13.2419 -13.2355 -13.2340 -13.2327 -13.2192 -13.2178 -13.1994 -13.1989
   -13.1921 -13.1903 -13.1806 -13.1738  -5.5965  -5.2691  -4.5953  -4.1685
     0.6096   1.5561   2.3409   2.3703   3.2419   4.6354   4.9635   5.0891
     5.1752   5.4003   6.1268   6.3960   6.5265   7.4143   7.4280   7.4294
     9.0715   9.9293  10.8659  11.1302  11.2226  11.4513  11.8196  11.8724
    12.5558  13.1393

     occupation numbers 
     1.0000   1.0000   1.0000   1.0000   1.0000   1.0000   1.0000   1.0000
     1.0000   1.0000   1.0000   1.0000   1.0000   1.0000   1.0000   1.0000
     1.0000   1.0000   1.0000   1.0000   1.0000   1.0000   1.0000   1.0000
     1.0000   1.0000   1.0000   1.0000   1.0000   1.0000   1.0000   1.0000
     1.0000   1.0000   1.0000   1.0000   1.0000   1.0000   1.0000   1.0000
     0.0000   0.0000   0.0000   0.0000   0.0000   0.0000   0.0000   0.0000
     0.0000   0.0000

          k = 0.0000 0.4527 0.4269 (  3011 PWs)   bands (ev):

   -13.2654 -13.2581 -13.2577 -13.2532 -13.2526 -13.2518 -13.2504 -13.2479
   -13.2412 -13.2340 -13.2326 -13.2303 -13.2199 -13.2167 -13.1995 -13.1978
   -13.1923 -13.1910 -13.1801 -13.1743  -5.4827  -5.1659  -4.5804  -4.1907
     0.4172   1.5345   1.8466   2.2904   3.3533   4.1017   4.3260   5.4230
     5.5934   5.9111   6.0317   6.3519   7.0719   7.2035   7.5525   7.6546
     9.1855   9.6454  10.1431  10.1823  11.1835  11.3154  11.8787  12.0799
    12.5655  12.9675

     occupation numbers 
     1.0000   1.0000   1.0000   1.0000   1.0000   1.0000   1.0000   1.0000
     1.0000   1.0000   1.0000   1.0000   1.0000   1.0000   1.0000   1.0000
     1.0000   1.0000   1.0000   1.0000   1.0000   1.0000   1.0000   1.0000
     1.0000   1.0000   1.0000   1.0000   1.0000   1.0000   1.0000   1.0000
     1.0000   1.0000   1.0000   1.0000   1.0000   1.0000   1.0000   1.0000
     0.0000   0.0000   0.0000   0.0000   0.0000   0.0000   0.0000   0.0000
     0.0000   0.0000

          k = 0.0000 0.4527 0.8538 (  2997 PWs)   bands (ev):

   -13.2650 -13.2616 -13.2571 -13.2544 -13.2524 -13.2520 -13.2510 -13.2487
   -13.2388 -13.2347 -13.2268 -13.2246 -13.2205 -13.2168 -13.1987 -13.1960
   -13.1939 -13.1929 -13.1788 -13.1752  -5.1824  -4.8923  -4.6137  -4.3014
     0.1282   0.9284   1.4480   1.9232   3.7936   4.0957   4.2800   5.3111
     5.4689   5.8019   6.2097   6.6207   7.0342   7.3128   7.4003   7.6196
     9.1872   9.4922   9.9499  10.2743  10.7658  11.1157  11.3058  12.3523
    12.6231  12.9055

     occupation numbers 
     1.0000   1.0000   1.0000   1.0000   1.0000   1.0000   1.0000   1.0000
     1.0000   1.0000   1.0000   1.0000   1.0000   1.0000   1.0000   1.0000
     1.0000   1.0000   1.0000   1.0000   1.0000   1.0000   1.0000   1.0000
     1.0000   1.0000   1.0000   1.0000   1.0000   1.0000   1.0000   1.0000
     1.0000   1.0000   1.0000   1.0000   1.0000   1.0000   1.0000   1.0000
     0.0000   0.0000   0.0000   0.0000   0.0000   0.0000   0.0000   0.0000
     0.0000   0.0000

          k = 0.0000 0.4527-1.2807 (  3018 PWs)   bands (ev):

   -13.2646 -13.2646 -13.2557 -13.2557 -13.2541 -13.2541 -13.2493 -13.2493
   -13.2365 -13.2365 -13.2226 -13.2226 -13.2195 -13.2195 -13.1968 -13.1968
   -13.1946 -13.1946 -13.1771 -13.1771  -4.8296  -4.8296  -4.5562  -4.5562
     0.2529   0.2529   1.5395   1.5395   4.3073   4.3073   4.7850   4.7850
     5.3270   5.3270   6.2960   6.2960   7.1481   7.1481   7.5560   7.5560
     9.2804   9.2804  10.0917  10.0917  11.2598  11.2598  11.7226  11.7226
    12.2955  12.2955

     occupation numbers 
     1.0000   1.0000   1.0000   1.0000   1.0000   1.0000   1.0000   1.0000
     1.0000   1.0000   1.0000   1.0000   1.0000   1.0000   1.0000   1.0000
     1.0000   1.0000   1.0000   1.0000   1.0000   1.0000   1.0000   1.0000
     1.0000   1.0000   1.0000   1.0000   1.0000   1.0000   1.0000   1.0000
     1.0000   1.0000   1.0000   1.0000   1.0000   1.0000   1.0000   1.0000
     0.0000   0.0000   0.0000   0.0000   0.0000   0.0000   0.0000   0.0000
     0.0000   0.0000

          k = 0.0000 0.9054 0.0000 (  3006 PWs)   bands (ev):

   -13.2626 -13.2599 -13.2590 -13.2572 -13.2490 -13.2488 -13.2471 -13.2433
   -13.2405 -13.2380 -13.2332 -13.2245 -13.2219 -13.2140 -13.2037 -13.2014
   -13.1924 -13.1859 -13.1805 -13.1781  -5.1934  -4.9485  -4.5078  -4.2990
     0.2649   1.0179   1.1505   1.6789   3.7034   4.9719   5.3134   5.4433
     5.5141   5.7682   6.3583   6.5079   6.8495   7.1983   7.3291   7.9136
     8.6737   9.5512   9.8469   9.8710  10.1048  10.6287  10.6774  11.5190
    11.9003  12.2776

     occupation numbers 
     1.0000   1.0000   1.0000   1.0000   1.0000   1.0000   1.0000   1.0000
     1.0000   1.0000   1.0000   1.0000   1.0000   1.0000   1.0000   1.0000
     1.0000   1.0000   1.0000   1.0000   1.0000   1.0000   1.0000   1.0000
     1.0000   1.0000   1.0000   1.0000   1.0000   1.0000   1.0000   1.0000
     1.0000   1.0000   1.0000   1.0000   1.0000   1.0000   1.0000   1.0000
     0.0000   0.0000   0.0000   0.0000   0.0000   0.0000   0.0000   0.0000
     0.0000   0.0000

          k = 0.0000 0.9054 0.4269 (  3009 PWs)   bands (ev):

   -13.2659 -13.2630 -13.2607 -13.2588 -13.2497 -13.2464 -13.2463 -13.2428
   -13.2394 -13.2377 -13.2314 -13.2229 -13.2219 -13.2138 -13.2029 -13.2010
   -13.1922 -13.1868 -13.1802 -13.1780  -5.0966  -4.8635  -4.4834  -4.2879
     0.3396   1.1586   1.2318   1.6071   3.8371   3.9324   4.2986   5.1354
     5.5235   5.8412   6.1391   6.4915   6.6531   7.1570   7.2965   7.3776
     9.1193   9.5087   9.6899  10.0199  10.8098  11.3551  11.5190  12.0213
    12.4965  12.8368

     occupation numbers 
     1.0000   1.0000   1.0000   1.0000   1.0000   1.0000   1.0000   1.0000
     1.0000   1.0000   1.0000   1.0000   1.0000   1.0000   1.0000   1.0000
     1.0000   1.0000   1.0000   1.0000   1.0000   1.0000   1.0000   1.0000
     1.0000   1.0000   1.0000   1.0000   1.0000   1.0000   1.0000   1.0000
     1.0000   1.0000   1.0000   1.0000   1.0000   1.0000   1.0000   1.0000
     0.0000   0.0000   0.0000   0.0000   0.0000   0.0000   0.0000   0.0000
     0.0000   0.0000

          k = 0.0000 0.9054 0.8538 (  2998 PWs)   bands (ev):

   -13.2708 -13.2690 -13.2640 -13.2625 -13.2484 -13.2451 -13.2437 -13.2424
   -13.2373 -13.2369 -13.2268 -13.2216 -13.2190 -13.2144 -13.2013 -13.1999
   -13.1917 -13.1883 -13.1793 -13.1777  -4.8527  -4.6508  -4.4730  -4.3017
     0.5073   1.1416   1.4844   1.5842   3.2540   3.6323   4.0742   4.3212
     4.8138   5.2029   5.5163   5.9070   6.2232   6.4872   6.9829   7.2690
     9.0705  10.7109  11.0521  11.2277  11.7028  11.7033  12.5139  12.6822
    13.0219  13.1352

     occupation numbers 
     1.0000   1.0000   1.0000   1.0000   1.0000   1.0000   1.0000   1.0000
     1.0000   1.0000   1.0000   1.0000   1.0000   1.0000   1.0000   1.0000
     1.0000   1.0000   1.0000   1.0000   1.0000   1.0000   1.0000   1.0000
     1.0000   1.0000   1.0000   1.0000   1.0000   1.0000   1.0000   1.0000
     1.0000   1.0000   1.0000   1.0000   1.0000   1.0000   1.0000   1.0000
     0.0000   0.0000   0.0000   0.0000   0.0000   0.0000   0.0000   0.0000
     0.0000   0.0000

          k = 0.0000 0.9054-1.2807 (  2996 PWs)   bands (ev):

   -13.2723 -13.2723 -13.2652 -13.2652 -13.2465 -13.2465 -13.2422 -13.2422
   -13.2364 -13.2364 -13.2233 -13.2233 -13.2157 -13.2157 -13.2002 -13.2002
   -13.1901 -13.1901 -13.1781 -13.1781  -4.5960  -4.5960  -4.4248  -4.4248
     0.7590   0.7590   1.6657   1.6657   3.4412   3.4412   3.8591   3.8591
     4.7532   4.7532   5.4211   5.4211   6.0384   6.0384   6.9425   6.9425
    10.0440  10.0440  11.6711  11.6711  12.7859  12.7859  12.8429  12.8429
    12.9960  12.9960

     occupation numbers 
     1.0000   1.0000   1.0000   1.0000   1.0000   1.0000   1.0000   1.0000
     1.0000   1.0000   1.0000   1.0000   1.0000   1.0000   1.0000   1.0000
     1.0000   1.0000   1.0000   1.0000   1.0000   1.0000   1.0000   1.0000
     1.0000   1.0000   1.0000   1.0000   1.0000   1.0000   1.0000   1.0000
     1.0000   1.0000   1.0000   1.0000   1.0000   1.0000   1.0000   1.0000
     0.0000   0.0000   0.0000   0.0000   0.0000   0.0000   0.0000   0.0000
     0.0000   0.0000

          k = 0.0000-1.3581 0.0000 (  3024 PWs)   bands (ev):

   -13.2644 -13.2644 -13.2609 -13.2609 -13.2457 -13.2457 -13.2439 -13.2439
   -13.2346 -13.2346 -13.2310 -13.2310 -13.2136 -13.2136 -13.2089 -13.2089
   -13.1844 -13.1844 -13.1821 -13.1821  -4.6804  -4.6804  -4.6168  -4.6168
     0.3598   0.3598   1.0566   1.0566   4.4863   4.4863   5.8512   5.8512
     5.8662   5.8662   6.3785   6.3785   7.1100   7.1100   7.3085   7.3085
     9.1116   9.1116   9.5464   9.5464   9.8220   9.8220  10.6284  10.6284
    11.3379  11.3379

     occupation numbers 
     1.0000   1.0000   1.0000   1.0000   1.0000   1.0000   1.0000   1.0000
     1.0000   1.0000   1.0000   1.0000   1.0000   1.0000   1.0000   1.0000
     1.0000   1.0000   1.0000   1.0000   1.0000   1.0000   1.0000   1.0000
     1.0000   1.0000   1.0000   1.0000   1.0000   1.0000   1.0000   1.0000
     1.0000   1.0000   1.0000   1.0000   1.0000   1.0000   1.0000   1.0000
     0.0000   0.0000   0.0000   0.0000   0.0000   0.0000   0.0000   0.0000
     0.0000   0.0000

          k = 0.0000-1.3581 0.4269 (  3006 PWs)   bands (ev):

   -13.2675 -13.2675 -13.2627 -13.2627 -13.2455 -13.2455 -13.2420 -13.2420
   -13.2342 -13.2342 -13.2294 -13.2294 -13.2145 -13.2145 -13.2070 -13.2070
   -13.1851 -13.1851 -13.1812 -13.1812  -4.6204  -4.6204  -4.5643  -4.5643
     0.5227   0.5227   1.1558   1.1558   4.3400   4.3400   4.6839   4.6839
     5.3970   5.3970   6.2256   6.2256   6.5257   6.5257   7.4507   7.4507
     8.9842   8.9842  10.1648  10.1648  11.0856  11.0856  11.6291  11.6291
    12.2897  12.2897

     occupation numbers 
     1.0000   1.0000   1.0000   1.0000   1.0000   1.0000   1.0000   1.0000
     1.0000   1.0000   1.0000   1.0000   1.0000   1.0000   1.0000   1.0000
     1.0000   1.0000   1.0000   1.0000   1.0000   1.0000   1.0000   1.0000
     1.0000   1.0000   1.0000   1.0000   1.0000   1.0000   1.0000   1.0000
     1.0000   1.0000   1.0000   1.0000   1.0000   1.0000   1.0000   1.0000
     0.0000   0.0000   0.0000   0.0000   0.0000   0.0000   0.0000   0.0000
     0.0000   0.0000

          k = 0.0000-1.3581 0.8538 (  3002 PWs)   bands (ev):

   -13.2738 -13.2738 -13.2671 -13.2671 -13.2451 -13.2451 -13.2392 -13.2392
   -13.2333 -13.2333 -13.2274 -13.2274 -13.2146 -13.2146 -13.2040 -13.2040
   -13.1860 -13.1860 -13.1802 -13.1802  -4.4912  -4.4912  -4.4568  -4.4568
     0.9505   0.9505   1.3627   1.3627   3.4458   3.4458   3.9834   3.9834
     4.6950   4.6950   5.5276   5.5276   5.7410   5.7410   6.9362   6.9362
    10.0289  10.0289  11.5348  11.5348  12.5163  12.5163  12.6283  12.6283
    12.8955  12.8955

     occupation numbers 
     1.0000   1.0000   1.0000   1.0000   1.0000   1.0000   1.0000   1.0000
     1.0000   1.0000   1.0000   1.0000   1.0000   1.0000   1.0000   1.0000
     1.0000   1.0000   1.0000   1.0000   1.0000   1.0000   1.0000   1.0000
     1.0000   1.0000   1.0000   1.0000   1.0000   1.0000   1.0000   1.0000
     1.0000   1.0000   1.0000   1.0000   1.0000   1.0000   1.0000   1.0000
     0.0000   0.0000   0.0000   0.0000   0.0000   0.0000   0.0000   0.0000
     0.0000   0.0000

          k = 0.0000-1.3581-1.2807 (  2988 PWs)   bands (ev):

   -13.2766 -13.2766 -13.2696 -13.2696 -13.2446 -13.2446 -13.2379 -13.2379
   -13.2328 -13.2328 -13.2264 -13.2264 -13.2137 -13.2137 -13.2026 -13.2026
   -13.1860 -13.1860 -13.1796 -13.1796  -4.4164  -4.4164  -4.4065  -4.4065
     1.2909   1.2909   1.4409   1.4409   3.0387   3.0387   3.5546   3.5546
     4.4697   4.4697   4.9512   4.9512   5.8029   5.8029   6.6448   6.6448
    10.8693  10.8693  11.1769  11.1769  12.8462  12.8462  12.9795  12.9795
    13.7148  13.7148

     occupation numbers 
     1.0000   1.0000   1.0000   1.0000   1.0000   1.0000   1.0000   1.0000
     1.0000   1.0000   1.0000   1.0000   1.0000   1.0000   1.0000   1.0000
     1.0000   1.0000   1.0000   1.0000   1.0000   1.0000   1.0000   1.0000
     1.0000   1.0000   1.0000   1.0000   1.0000   1.0000   1.0000   1.0000
     1.0000   1.0000   1.0000   1.0000   1.0000   1.0000   1.0000   1.0000
     0.0000   0.0000   0.0000   0.0000   0.0000   0.0000   0.0000   0.0000
     0.0000   0.0000

          k =-0.5000 0.0000 0.0000 (  3002 PWs)   bands (ev):

   -13.2659 -13.2659 -13.2561 -13.2561 -13.2529 -13.2529 -13.2440 -13.2440
   -13.2371 -13.2371 -13.2350 -13.2350 -13.2197 -13.2197 -13.1993 -13.1993
   -13.1902 -13.1902 -13.1758 -13.1758  -5.6051  -5.6051  -4.3720  -4.3720
     1.1511   1.1511   3.0240   3.0240   4.0139   4.0139   4.8566   4.8566
     5.2140   5.2140   6.0093   6.0093   6.2406   6.2406   7.5344   7.5344
    10.6768  10.6768  10.8777  10.8777  11.7698  11.7698  12.0010  12.0010
    13.0962  13.0962

     occupation numbers 
     1.0000   1.0000   1.0000   1.0000   1.0000   1.0000   1.0000   1.0000
     1.0000   1.0000   1.0000   1.0000   1.0000   1.0000   1.0000   1.0000
     1.0000   1.0000   1.0000   1.0000   1.0000   1.0000   1.0000   1.0000
     1.0000   1.0000   1.0000   1.0000   1.0000   1.0000   1.0000   1.0000
     1.0000   1.0000   1.0000   1.0000   1.0000   1.0000   1.0000   1.0000
     0.0000   0.0000   0.0000   0.0000   0.0000   0.0000   0.0000   0.0000
     0.0000   0.0000

          k =-0.5000 0.0000 0.4269 (  3000 PWs)   bands (ev):

   -13.2650 -13.2650 -13.2551 -13.2551 -13.2537 -13.2537 -13.2457 -13.2457
   -13.2345 -13.2345 -13.2344 -13.2344 -13.2198 -13.2198 -13.1993 -13.1993
   -13.1907 -13.1907 -13.1758 -13.1758  -5.4918  -5.4918  -4.3807  -4.3807
     0.8265   0.8265   2.4659   2.4659   4.2533   4.2533   5.0310   5.0310
     5.4505   5.4505   6.3258   6.3258   6.5543   6.5543   7.4496   7.4496
    10.3869  10.3869  11.0390  11.0390  11.0733  11.0733  11.5724  11.5724
    12.9482  12.9482

     occupation numbers 
     1.0000   1.0000   1.0000   1.0000   1.0000   1.0000   1.0000   1.0000
     1.0000   1.0000   1.0000   1.0000   1.0000   1.0000   1.0000   1.0000
     1.0000   1.0000   1.0000   1.0000   1.0000   1.0000   1.0000   1.0000
     1.0000   1.0000   1.0000   1.0000   1.0000   1.0000   1.0000   1.0000
     1.0000   1.0000   1.0000   1.0000   1.0000   1.0000   1.0000   1.0000
     0.0000   0.0000   0.0000   0.0000   0.0000   0.0000   0.0000   0.0000
     0.0000   0.0000

          k =-0.5000 0.0000 0.8538 (  3010 PWs)   bands (ev):

   -13.2630 -13.2630 -13.2567 -13.2567 -13.2537 -13.2537 -13.2484 -13.2484
   -13.2336 -13.2336 -13.2284 -13.2284 -13.2205 -13.2205 -13.1990 -13.1990
   -13.1924 -13.1924 -13.1759 -13.1759  -5.1939  -5.1939  -4.4676  -4.4676
     0.3276   0.3276   1.6296   1.6296   4.6969   4.6969   5.5007   5.5007
     5.8624   5.8624   6.4284   6.4284   6.9839   6.9839   7.7571   7.7571
     9.5850   9.5850  10.0738  10.0738  10.4149  10.4149  11.5191  11.5191
    11.7132  11.7132

     occupation numbers 
     1.0000   1.0000   1.0000   1.0000   1.0000   1.0000   1.0000   1.0000
     1.0000   1.0000   1.0000   1.0000   1.0000   1.0000   1.0000   1.0000
     1.0000   1.0000   1.0000   1.0000   1.0000   1.0000   1.0000   1.0000
     1.0000   1.0000   1.0000   1.0000   1.0000   1.0000   1.0000   1.0000
     1.0000   1.0000   1.0000   1.0000   1.0000   1.0000   1.0000   1.0000
     0.0000   0.0000   0.0000   0.0000   0.0000   0.0000   0.0000   0.0000
     0.0000   0.0000

          k =-0.5000 0.0000-1.2807 (  3032 PWs)   bands (ev):

   -13.2613 -13.2613 -13.2580 -13.2580 -13.2536 -13.2536 -13.2499 -13.2499
   -13.2337 -13.2337 -13.2234 -13.2234 -13.2231 -13.2231 -13.1985 -13.1985
   -13.1932 -13.1932 -13.1763 -13.1763  -4.9269  -4.9269  -4.6299  -4.6299
     0.1460   0.1460   1.2470   1.2470   5.2441   5.2441   5.4921   5.4921
     5.9445   5.9445   6.2887   6.2887   7.5425   7.5425   7.8133   7.8133
     9.3036   9.3036   9.7164   9.7164   9.7728   9.7728  11.1198  11.1198
    11.4694  11.4694

     occupation numbers 
     1.0000   1.0000   1.0000   1.0000   1.0000   1.0000   1.0000   1.0000
     1.0000   1.0000   1.0000   1.0000   1.0000   1.0000   1.0000   1.0000
     1.0000   1.0000   1.0000   1.0000   1.0000   1.0000   1.0000   1.0000
     1.0000   1.0000   1.0000   1.0000   1.0000   1.0000   1.0000   1.0000
     1.0000   1.0000   1.0000   1.0000   1.0000   1.0000   1.0000   1.0000
     0.0000   0.0000   0.0000   0.0000   0.0000   0.0000   0.0000   0.0000
     0.0000   0.0000

          k =-0.5000 0.4527 0.0000 (  3012 PWs)   bands (ev):

   -13.2617 -13.2617 -13.2550 -13.2550 -13.2534 -13.2534 -13.2475 -13.2475
   -13.2382 -13.2382 -13.2335 -13.2335 -13.2186 -13.2186 -13.1983 -13.1983
   -13.1914 -13.1914 -13.1771 -13.1771  -5.4651  -5.4651  -4.3488  -4.3488
     0.9295   0.9295   2.4356   2.4356   4.1481   4.1481   4.8585   4.8585
     5.5306   5.5306   6.1257   6.1257   6.3962   6.3962   7.5925   7.5925
    10.3757  10.3757  10.8691  10.8691  11.3511  11.3511  11.5990  11.5990
    12.8776  12.8778

     occupation numbers 
     1.0000   1.0000   1.0000   1.0000   1.0000   1.0000   1.0000   1.0000
     1.0000   1.0000   1.0000   1.0000   1.0000   1.0000   1.0000   1.0000
     1.0000   1.0000   1.0000   1.0000   1.0000   1.0000   1.0000   1.0000
     1.0000   1.0000   1.0000   1.0000   1.0000   1.0000   1.0000   1.0000
     1.0000   1.0000   1.0000   1.0000   1.0000   1.0000   1.0000   1.0000
     0.0000   0.0000   0.0000   0.0000   0.0000   0.0000   0.0000   0.0000
     0.0000   0.0000

          k =-0.5000 0.4527 0.4269 (  3018 PWs)   bands (ev):

   -13.2619 -13.2619 -13.2562 -13.2562 -13.2525 -13.2525 -13.2486 -13.2486
   -13.2375 -13.2375 -13.2312 -13.2312 -13.2187 -13.2187 -13.1982 -13.1982
   -13.1923 -13.1923 -13.1769 -13.1769  -5.3565  -5.3565  -4.3527  -4.3527
     0.7831   0.7831   2.1686   2.1686   4.1306   4.1306   4.6541   4.6541
     5.4451   5.4451   6.2627   6.2627   7.0761   7.0761   7.5540   7.5540
     9.6844   9.6844  10.7559  10.7559  11.2333  11.2333  11.6462  11.6462
    12.4786  12.4786

     occupation numbers 
     1.0000   1.0000   1.0000   1.0000   1.0000   1.0000   1.0000   1.0000
     1.0000   1.0000   1.0000   1.0000   1.0000   1.0000   1.0000   1.0000
     1.0000   1.0000   1.0000   1.0000   1.0000   1.0000   1.0000   1.0000
     1.0000   1.0000   1.0000   1.0000   1.0000   1.0000   1.0000   1.0000
     1.0000   1.0000   1.0000   1.0000   1.0000   1.0000   1.0000   1.0000
     0.0000   0.0000   0.0000   0.0000   0.0000   0.0000   0.0000   0.0000
     0.0000   0.0000

          k =-0.5000 0.4527 0.8538 (  3014 PWs)   bands (ev):

   -13.2625 -13.2625 -13.2586 -13.2586 -13.2515 -13.2515 -13.2491 -13.2491
   -13.2367 -13.2367 -13.2261 -13.2261 -13.2188 -13.2188 -13.1974 -13.1974
   -13.1941 -13.1941 -13.1766 -13.1766  -5.0744  -5.0744  -4.4208  -4.4208
     0.4681   0.4681   1.6534   1.6534   4.1817   4.1817   4.9885   4.9885
     5.2409   5.2409   6.4379   6.4379   6.8979   6.8979   7.5452   7.5452
     9.7411   9.7411  10.3775  10.3775  10.9216  10.9216  11.5665  11.5665
    12.5079  12.5079

     occupation numbers 
     1.0000   1.0000   1.0000   1.0000   1.0000   1.0000   1.0000   1.0000
     1.0000   1.0000   1.0000   1.0000   1.0000   1.0000   1.0000   1.0000
     1.0000   1.0000   1.0000   1.0000   1.0000   1.0000   1.0000   1.0000
     1.0000   1.0000   1.0000   1.0000   1.0000   1.0000   1.0000   1.0000
     1.0000   1.0000   1.0000   1.0000   1.0000   1.0000   1.0000   1.0000
     0.0000   0.0000   0.0000   0.0000   0.0000   0.0000   0.0000   0.0000
     0.0000   0.0000

          k =-0.5000 0.4527-1.2807 (  3012 PWs)   bands (ev):

   -13.2634 -13.2634 -13.2596 -13.2596 -13.2513 -13.2513 -13.2489 -13.2489
   -13.2363 -13.2363 -13.2232 -13.2232 -13.2192 -13.2192 -13.1960 -13.1960
   -13.1958 -13.1958 -13.1764 -13.1764  -4.8269  -4.8269  -4.5601  -4.5601
     0.3228   0.3228   1.3810   1.3810   4.5936   4.5936   4.7895   4.7895
     5.5571   5.5571   5.9760   5.9760   6.8258   6.8258   7.3427   7.3427
    10.2032  10.2032  10.2605  10.2605  10.7893  10.7893  11.5293  11.5293
    12.4464  12.4464

     occupation numbers 
     1.0000   1.0000   1.0000   1.0000   1.0000   1.0000   1.0000   1.0000
     1.0000   1.0000   1.0000   1.0000   1.0000   1.0000   1.0000   1.0000
     1.0000   1.0000   1.0000   1.0000   1.0000   1.0000   1.0000   1.0000
     1.0000   1.0000   1.0000   1.0000   1.0000   1.0000   1.0000   1.0000
     1.0000   1.0000   1.0000   1.0000   1.0000   1.0000   1.0000   1.0000
     0.0000   0.0000   0.0000   0.0000   0.0000   0.0000   0.0000   0.0000
     0.0000   0.0000

          k =-0.5000 0.9054 0.0000 (  3008 PWs)   bands (ev):

   -13.2620 -13.2620 -13.2575 -13.2575 -13.2479 -13.2479 -13.2467 -13.2467
   -13.2387 -13.2387 -13.2301 -13.2301 -13.2165 -13.2165 -13.2028 -13.2028
   -13.1888 -13.1888 -13.1793 -13.1793  -5.0925  -5.0925  -4.3808  -4.3808
     0.5644   0.5644   1.4045   1.4045   4.6061   4.6061   5.2274   5.2274
     5.9053   5.9053   6.2334   6.2334   6.5502   6.5502   7.6375   7.6375
     9.2258   9.2258  10.1320  10.1320  10.8920  10.8920  11.2870  11.2870
    11.6748  11.6748

     occupation numbers 
     1.0000   1.0000   1.0000   1.0000   1.0000   1.0000   1.0000   1.0000
     1.0000   1.0000   1.0000   1.0000   1.0000   1.0000   1.0000   1.0000
     1.0000   1.0000   1.0000   1.0000   1.0000   1.0000   1.0000   1.0000
     1.0000   1.0000   1.0000   1.0000   1.0000   1.0000   1.0000   1.0000
     1.0000   1.0000   1.0000   1.0000   1.0000   1.0000   1.0000   1.0000
     0.0000   0.0000   0.0000   0.0000   0.0000   0.0000   0.0000   0.0000
     0.0000   0.0000

          k =-0.5000 0.9054 0.4269 (  3002 PWs)   bands (ev):

   -13.2644 -13.2644 -13.2600 -13.2600 -13.2471 -13.2471 -13.2457 -13.2457
   -13.2378 -13.2378 -13.2286 -13.2286 -13.2161 -13.2161 -13.2027 -13.2027
   -13.1890 -13.1890 -13.1790 -13.1790  -5.0012  -5.0012  -4.3639  -4.3639
     0.6608   0.6608   1.4306   1.4306   4.0815   4.0815   4.9049   4.9049
     5.3421   5.3421   6.3192   6.3192   6.6203   6.6203   7.3896   7.3896
     9.7146   9.7146  10.0911  10.0911  11.1665  11.1665  11.5658  11.5658
    12.1008  12.1008

     occupation numbers 
     1.0000   1.0000   1.0000   1.0000   1.0000   1.0000   1.0000   1.0000
     1.0000   1.0000   1.0000   1.0000   1.0000   1.0000   1.0000   1.0000
     1.0000   1.0000   1.0000   1.0000   1.0000   1.0000   1.0000   1.0000
     1.0000   1.0000   1.0000   1.0000   1.0000   1.0000   1.0000   1.0000
     1.0000   1.0000   1.0000   1.0000   1.0000   1.0000   1.0000   1.0000
     0.0000   0.0000   0.0000   0.0000   0.0000   0.0000   0.0000   0.0000
     0.0000   0.0000

          k =-0.5000 0.9054 0.8538 (  2990 PWs)   bands (ev):

   -13.2690 -13.2690 -13.2647 -13.2647 -13.2459 -13.2459 -13.2437 -13.2437
   -13.2361 -13.2361 -13.2260 -13.2260 -13.2144 -13.2144 -13.2022 -13.2022
   -13.1891 -13.1891 -13.1785 -13.1785  -4.7752  -4.7752  -4.3640  -4.3640
     0.7959   0.7959   1.5061   1.5061   3.4937   3.4937   4.3758   4.3758
     4.9036   4.9036   5.5654   5.5654   6.3453   6.3453   7.0958   7.0958
    10.4157  10.4157  11.0028  11.0028  11.1995  11.1995  12.4992  12.4992
    12.6839  12.6839

     occupation numbers 
     1.0000   1.0000   1.0000   1.0000   1.0000   1.0000   1.0000   1.0000
     1.0000   1.0000   1.0000   1.0000   1.0000   1.0000   1.0000   1.0000
     1.0000   1.0000   1.0000   1.0000   1.0000   1.0000   1.0000   1.0000
     1.0000   1.0000   1.0000   1.0000   1.0000   1.0000   1.0000   1.0000
     1.0000   1.0000   1.0000   1.0000   1.0000   1.0000   1.0000   1.0000
     0.0000   0.0000   0.0000   0.0000   0.0000   0.0000   0.0000   0.0000
     0.0000   0.0000

          k =-0.5000 0.9054-1.2807 (  2992 PWs)   bands (ev):

   -13.2708 -13.2708 -13.2669 -13.2669 -13.2455 -13.2455 -13.2431 -13.2431
   -13.2353 -13.2353 -13.2247 -13.2247 -13.2133 -13.2133 -13.2021 -13.2021
   -13.1892 -13.1892 -13.1782 -13.1782  -4.5942  -4.5942  -4.4270  -4.4270
     0.7945   0.7945   1.5956   1.5956   3.6160   3.6160   3.7082   3.7082
     4.9723   4.9723   5.0543   5.0543   6.3824   6.3824   6.7360   6.7360
    10.4924  10.4924  11.2709  11.2709  12.1386  12.1386  12.2381  12.2381
    13.5876  13.5880

     occupation numbers 
     1.0000   1.0000   1.0000   1.0000   1.0000   1.0000   1.0000   1.0000
     1.0000   1.0000   1.0000   1.0000   1.0000   1.0000   1.0000   1.0000
     1.0000   1.0000   1.0000   1.0000   1.0000   1.0000   1.0000   1.0000
     1.0000   1.0000   1.0000   1.0000   1.0000   1.0000   1.0000   1.0000
     1.0000   1.0000   1.0000   1.0000   1.0000   1.0000   1.0000   1.0000
     0.0000   0.0000   0.0000   0.0000   0.0000   0.0000   0.0000   0.0000
     0.0000   0.0000

          k =-0.5000-1.3581 0.0000 (  3024 PWs)   bands (ev):

   -13.2625 -13.2625 -13.2625 -13.2625 -13.2450 -13.2450 -13.2450 -13.2450
   -13.2328 -13.2328 -13.2328 -13.2328 -13.2114 -13.2114 -13.2114 -13.2114
   -13.1832 -13.1832 -13.1832 -13.1832  -4.6492  -4.6492  -4.6492  -4.6492
     0.6674   0.6674   0.6674   0.6674   5.3032   5.3032   5.3032   5.3032
     5.9787   5.9787   5.9787   5.9787   7.0687   7.0687   7.0687   7.0687
     9.5804   9.5804   9.5804   9.5804  10.2436  10.2436  10.2436  10.2436
    12.0025  12.0025

     occupation numbers 
     1.0000   1.0000   1.0000   1.0000   1.0000   1.0000   1.0000   1.0000
     1.0000   1.0000   1.0000   1.0000   1.0000   1.0000   1.0000   1.0000
     1.0000   1.0000   1.0000   1.0000   1.0000   1.0000   1.0000   1.0000
     1.0000   1.0000   1.0000   1.0000   1.0000   1.0000   1.0000   1.0000
     1.0000   1.0000   1.0000   1.0000   1.0000   1.0000   1.0000   1.0000
     0.0000   0.0000   0.0000   0.0000   0.0000   0.0000   0.0000   0.0000
     0.0000   0.0000

          k =-0.5000-1.3581 0.4269 (  3008 PWs)   bands (ev):

   -13.2653 -13.2653 -13.2653 -13.2653 -13.2440 -13.2440 -13.2440 -13.2440
   -13.2320 -13.2320 -13.2320 -13.2320 -13.2104 -13.2104 -13.2104 -13.2104
   -13.1830 -13.1830 -13.1830 -13.1830  -4.5928  -4.5928  -4.5928  -4.5928
     0.8045   0.8045   0.8045   0.8045   4.6683   4.6683   4.6683   4.6683
     5.6451   5.6451   5.6451   5.6451   6.8412   6.8412   6.8412   6.8412
     9.9113   9.9113   9.9113   9.9113  11.3292  11.3292  11.3292  11.3292
    12.2350  12.2350

     occupation numbers 
     1.0000   1.0000   1.0000   1.0000   1.0000   1.0000   1.0000   1.0000
     1.0000   1.0000   1.0000   1.0000   1.0000   1.0000   1.0000   1.0000
     1.0000   1.0000   1.0000   1.0000   1.0000   1.0000   1.0000   1.0000
     1.0000   1.0000   1.0000   1.0000   1.0000   1.0000   1.0000   1.0000
     1.0000   1.0000   1.0000   1.0000   1.0000   1.0000   1.0000   1.0000
     0.0000   0.0000   0.0000   0.0000   0.0000   0.0000   0.0000   0.0000
     0.0000   0.0000

          k =-0.5000-1.3581 0.8538 (  3000 PWs)   bands (ev):

   -13.2704 -13.2704 -13.2704 -13.2704 -13.2428 -13.2428 -13.2428 -13.2428
   -13.2305 -13.2305 -13.2305 -13.2305 -13.2087 -13.2087 -13.2087 -13.2087
   -13.1829 -13.1829 -13.1829 -13.1829  -4.4741  -4.4741  -4.4741  -4.4741
     1.1366   1.1366   1.1366   1.1366   3.7654   3.7654   3.7654   3.7654
     4.8596   4.8596   4.8596   4.8596   6.5661   6.5661   6.5661   6.5661
    10.7505  10.7505  10.7505  10.7505  11.9967  11.9967  11.9967  11.9967
    13.7613  13.7613

     occupation numbers 
     1.0000   1.0000   1.0000   1.0000   1.0000   1.0000   1.0000   1.0000
     1.0000   1.0000   1.0000   1.0000   1.0000   1.0000   1.0000   1.0000
     1.0000   1.0000   1.0000   1.0000   1.0000   1.0000   1.0000   1.0000
     1.0000   1.0000   1.0000   1.0000   1.0000   1.0000   1.0000   1.0000
     1.0000   1.0000   1.0000   1.0000   1.0000   1.0000   1.0000   1.0000
     0.0000   0.0000   0.0000   0.0000   0.0000   0.0000   0.0000   0.0000
     0.0000   0.0000

          k =-0.5000-1.3581-1.2807 (  3008 PWs)   bands (ev):

   -13.2731 -13.2731 -13.2731 -13.2731 -13.2425 -13.2425 -13.2425 -13.2425
   -13.2296 -13.2296 -13.2296 -13.2296 -13.2078 -13.2078 -13.2078 -13.2078
   -13.1828 -13.1828 -13.1828 -13.1828  -4.4115  -4.4115  -4.4115  -4.4115
     1.3469   1.3469   1.3469   1.3469   3.4572   3.4572   3.4572   3.4572
     4.3171   4.3171   4.3171   4.3171   6.5970   6.5970   6.5970   6.5970
    10.6259  10.6259  10.6259  10.6259  12.8414  12.8414  12.8414  12.8414
    14.6069  14.6069

     occupation numbers 
     1.0000   1.0000   1.0000   1.0000   1.0000   1.0000   1.0000   1.0000
     1.0000   1.0000   1.0000   1.0000   1.0000   1.0000   1.0000   1.0000
     1.0000   1.0000   1.0000   1.0000   1.0000   1.0000   1.0000   1.0000
     1.0000   1.0000   1.0000   1.0000   1.0000   1.0000   1.0000   1.0000
     1.0000   1.0000   1.0000   1.0000   1.0000   1.0000   1.0000   1.0000
     0.0000   0.0000   0.0000   0.0000   0.0000   0.0000   0.0000   0.0000
     0.0000   0.0000

     highest occupied, lowest unoccupied level (ev):     8.1010    8.6737

!    total energy              =    -827.60619321 Ry
     estimated scf accuracy    <          2.3E-09 Ry

     The total energy is the sum of the following terms:
     one-electron contribution =    -256.96936866 Ry
     hartree contribution      =     179.08790436 Ry
     xc contribution           =    -309.11991270 Ry
     ewald contribution        =    -440.60481620 Ry

     convergence has been achieved in   9 iterations

     Forces acting on atoms (cartesian axes, Ry/au):

     atom    1 type  2   force =     0.00814141    0.00000000   -0.00047708
     atom    2 type  1   force =    -0.00746331    0.00000000   -0.00115521
     atom    3 type  2   force =    -0.00814141    0.00000000   -0.00047708
     atom    4 type  1   force =     0.00746331    0.00000000   -0.00115521
     atom    5 type  2   force =     0.00814141    0.00000000    0.00047708
     atom    6 type  1   force =    -0.00746331    0.00000000    0.00115521
     atom    7 type  2   force =    -0.00814141    0.00000000    0.00047708
     atom    8 type  1   force =     0.00746331   -0.00000000    0.00115521
     The non-local contrib.  to forces
     atom    1 type  2   force =    -0.12006371    0.00000000    0.09742795
     atom    2 type  1   force =     0.37401568    0.00000000    0.26644083
     atom    3 type  2   force =     0.12006371    0.00000000    0.09742795
     atom    4 type  1   force =    -0.37401568    0.00000000    0.26644083
     atom    5 type  2   force =    -0.12006371    0.00000000   -0.09742795
     atom    6 type  1   force =     0.37401568    0.00000000   -0.26644083
     atom    7 type  2   force =     0.12006371    0.00000000   -0.09742795
     atom    8 type  1   force =    -0.37401568    0.00000000   -0.26644083
     The ionic contribution  to forces
     atom    1 type  2   force =     1.53473235    0.00000000   -1.05154455
     atom    2 type  1   force =    -1.03769718    0.00000000   -0.57506129
     atom    3 type  2   force =    -1.53473235    0.00000000   -1.05154455
     atom    4 type  1   force =     1.03769718   -0.00000000   -0.57506129
     atom    5 type  2   force =     1.53473235    0.00000000    1.05154455
     atom    6 type  1   force =    -1.03769718   -0.00000000    0.57506129
     atom    7 type  2   force =    -1.53473235   -0.00000000    1.05154455
     atom    8 type  1   force =     1.03769718    0.00000000    0.57506129
     The local contribution  to forces
     atom    1 type  2   force =    -1.42004413   -0.00000000    0.96468539
     atom    2 type  1   force =     0.66220858   -0.00000000    0.31191552
     atom    3 type  2   force =     1.42004413   -0.00000000    0.96468539
     atom    4 type  1   force =    -0.66220858    0.00000000    0.31191552
     atom    5 type  2   force =    -1.42004413    0.00000000   -0.96468539
     atom    6 type  1   force =     0.66220858    0.00000000   -0.31191552
     atom    7 type  2   force =     1.42004413    0.00000000   -0.96468539
     atom    8 type  1   force =    -0.66220858    0.00000000   -0.31191552
     The core correction contribution to forces
     atom    1 type  2   force =     0.01349199   -0.00000000   -0.01104648
     atom    2 type  1   force =    -0.00592192   -0.00000000   -0.00446099
     atom    3 type  2   force =    -0.01349199    0.00000000   -0.01104648
     atom    4 type  1   force =     0.00592192    0.00000000   -0.00446099
     atom    5 type  2   force =     0.01349199   -0.00000000    0.01104648
     atom    6 type  1   force =    -0.00592192   -0.00000000    0.00446099
     atom    7 type  2   force =    -0.01349199   -0.00000000    0.01104648
     atom    8 type  1   force =     0.00592192    0.00000000    0.00446099
     The Hubbard contrib.    to forces
     atom    1 type  2   force =     0.00000000    0.00000000    0.00000000
     atom    2 type  1   force =     0.00000000    0.00000000    0.00000000
     atom    3 type  2   force =     0.00000000    0.00000000    0.00000000
     atom    4 type  1   force =     0.00000000    0.00000000    0.00000000
     atom    5 type  2   force =     0.00000000    0.00000000    0.00000000
     atom    6 type  1   force =     0.00000000    0.00000000    0.00000000
     atom    7 type  2   force =     0.00000000    0.00000000    0.00000000
     atom    8 type  1   force =     0.00000000    0.00000000    0.00000000
     The SCF correction term to forces
     atom    1 type  2   force =     0.00002490   -0.00000000    0.00000060
     atom    2 type  1   force =    -0.00006848    0.00000000    0.00001073
     atom    3 type  2   force =    -0.00002490    0.00000000    0.00000060
     atom    4 type  1   force =     0.00006848    0.00000000    0.00001073
     atom    5 type  2   force =     0.00002490    0.00000000   -0.00000060
     atom    6 type  1   force =    -0.00006848    0.00000000   -0.00001073
     atom    7 type  2   force =    -0.00002490    0.00000000   -0.00000060
     atom    8 type  1   force =     0.00006848   -0.00000000   -0.00001073

     Total force =     0.022230     Total SCF correction =     0.000147

     Writing output data file ./tmp/SnSe_pnma.save/

     init_run     :      3.75s CPU      3.67s WALL (       1 calls)
     electrons    :     96.84s CPU     85.51s WALL (       1 calls)
     forces       :      2.53s CPU      2.59s WALL (       1 calls)

     Called by init_run:
     wfcinit      :      2.11s CPU      1.87s WALL (       1 calls)
     wfcinit:atom :      0.02s CPU      0.01s WALL (       8 calls)
     wfcinit:wfcr :      1.95s CPU      1.76s WALL (       8 calls)
     potinit      :      0.32s CPU      0.35s WALL (       1 calls)
     hinit0       :      0.68s CPU      0.69s WALL (       1 calls)

     Called by electrons:
     c_bands      :     79.28s CPU     67.68s WALL (       9 calls)
     sum_band     :     10.99s CPU     10.49s WALL (       9 calls)
     v_of_rho     :      1.35s CPU      1.41s WALL (      10 calls)
     v_h          :      0.07s CPU      0.08s WALL (      10 calls)
     v_xc         :      1.47s CPU      1.47s WALL (      11 calls)
     newd         :      5.54s CPU      6.47s WALL (      10 calls)
     mix_rho      :      0.25s CPU      0.19s WALL (       9 calls)

     Called by c_bands:
     init_us_2    :      0.60s CPU      0.45s WALL (     160 calls)
     cegterg      :     50.84s CPU     42.68s WALL (      72 calls)

     Called by sum_band:
     sum_band:wei :      0.00s CPU      0.00s WALL (       9 calls)
     sum_band:loo :      7.26s CPU      7.15s WALL (       9 calls)
     sum_band:buf :      0.05s CPU      0.04s WALL (      72 calls)
     sum_band:ini :      0.26s CPU      0.19s WALL (      72 calls)
     sum_band:cal :      1.53s CPU      2.49s WALL (      72 calls)
     sum_band:bec :      0.01s CPU      0.01s WALL (      72 calls)
     addusdens    :      2.24s CPU      1.99s WALL (       9 calls)
     addusd:skk   :      0.01s CPU      0.02s WALL (      18 calls)
     addusd:dgemm :      1.00s CPU      0.74s WALL (      18 calls)
     addusd:qvan2 :      0.99s CPU      0.78s WALL (      18 calls)

     Called by *egterg:
     cdiaghg      :      5.40s CPU      7.25s WALL (     290 calls)
     cegterg:over :      4.24s CPU      4.62s WALL (     218 calls)
     cegterg:upda :      1.63s CPU      1.00s WALL (     218 calls)
     cegterg:last :      2.71s CPU      1.08s WALL (     145 calls)
     h_psi        :     33.90s CPU     27.04s WALL (     298 calls)
     s_psi        :      2.77s CPU      1.00s WALL (     298 calls)
     g_psi        :      0.22s CPU      0.15s WALL (     218 calls)

     Called by h_psi:
     h_psi:calbec :      3.72s CPU      4.18s WALL (     298 calls)
     vloc_psi     :     27.34s CPU     21.71s WALL (     298 calls)
     add_vuspsi   :      2.70s CPU      1.00s WALL (     298 calls)

     General routines
     calbec       :      6.14s CPU      7.82s WALL (     402 calls)
     fft          :      0.70s CPU      0.61s WALL (     139 calls)
     ffts         :      0.04s CPU      0.04s WALL (      19 calls)
     fftw         :     29.07s CPU     23.22s WALL (   22466 calls)
     interpolate  :      0.06s CPU      0.06s WALL (      10 calls)

     Parallel routines

     PWSCF        :   1m43.30s CPU   1m31.97s WALL


   This run was terminated on:  18:46:34   5May2026            

=------------------------------------------------------------------------------=
   JOB DONE.
=------------------------------------------------------------------------------=
