
     Program PWSCF v.6.7MaX starts on 23May2026 at 13:11:44 

     This program is part of the open-source Quantum ESPRESSO suite
     for quantum simulation of materials; please cite
         "P. Giannozzi et al., J. Phys.:Condens. Matter 21 395502 (2009);
         "P. Giannozzi et al., J. Phys.:Condens. Matter 29 465901 (2017);
          URL http://www.quantum-espresso.org", 
     in publications or presentations arising from this work. More details at
     http://www.quantum-espresso.org/quote

     Parallel version (MPI), running on     2 processors

     MPI processes distributed on     1 nodes
     R & G space division:  proc/nbgrp/npool/nimage =       2
     Waiting for input...
     Reading input from standard input

     Current dimensions of program PWSCF are:
     Max number of different atomic species (ntypx) = 10
     Max number of k-points (npk) =  40000
     Max angular momentum in pseudopotentials (lmaxx) =  3

     Atomic positions and unit cell read from directory:
     ./tmp/SnSe_pnma.save/
     Atomic positions from file used, from input discarded


     --------------------------------------------
     Parameters for DFT-D3 Dispersion Correction:
     --------------------------------------------
       Reference C6 values for interpolation: 

         atom   Coordination number   C6
         Se         0.000           427.35
         Se         0.990           427.57
         Se         1.981           421.05
         Sn         0.000          1255.14
         Sn         0.951          1084.09
         Sn         1.950          1010.83
         Sn         2.926           818.29
         Sn         3.912           672.20

       Values used:

         atom   Coordination number  R0_AB[au]  C6      C8
         Se         3.412            3.332    421.05  29958.36
         Sn         4.106            3.957    672.80  84444.47
         Se         3.412            3.332    421.05  29958.36
         Sn         4.106            3.957    672.80  84444.47
         Se         3.412            3.332    421.05  29958.36
         Sn         4.106            3.957    672.80  84444.47
         Se         3.412            3.332    421.05  29958.36
         Sn         4.106            3.957    672.80  84444.47

         Molecular C6 ( Ry / a.u.^6 ) =     34513.28


     Subspace diagonalization in iterative solution of the eigenvalue problem:
     a serial algorithm will be used


     Parallelization info
     --------------------
     sticks:   dense  smooth     PW     G-vecs:    dense   smooth      PW
     Min         814     320     99                65006    16415    2725
     Max         815     321    100                65007    16418    2726
     Sum        1629     641    199               130013    32833    5451



     bravais-lattice index     =            8
     lattice parameter (alat)  =       8.6086  a.u.
     unit-cell volume          =    1481.0643 (a.u.)^3
     number of atoms/cell      =            8
     number of atomic types    =            2
     number of electrons       =        80.00
     number of Kohn-Sham states=           50
     kinetic-energy cutoff     =      30.0000  Ry
     charge density cutoff     =     300.0000  Ry
     Exchange-correlation= SLA  PW   PBE  PBE
                           (   1   4   3   4   0   0   0)

     celldm(1)=   8.608647  celldm(2)=   0.915684  celldm(3)=   2.535265
     celldm(4)=   0.000000  celldm(5)=   0.000000  celldm(6)=   0.000000

     crystal axes: (cart. coord. in units of alat)
               a(1) = (   1.000000   0.000000   0.000000 )  
               a(2) = (   0.000000   0.915684   0.000000 )  
               a(3) = (   0.000000   0.000000   2.535265 )  

     reciprocal axes: (cart. coord. in units 2 pi/alat)
               b(1) = (  1.000000  0.000000  0.000000 )  
               b(2) = (  0.000000  1.092079  0.000000 )  
               b(3) = (  0.000000  0.000000  0.394436 )  


     PseudoPot. # 1 for Sn read from file:
     ../pseudo/Sn_pbe_v1.uspp.F.UPF
     MD5 check sum: 4cf58ce39ec5d5d420df3dd08604eb00
     Pseudo is Ultrasoft + core correction, Zval = 14.0
     Generated by new atomic code, or converted to UPF format
     Using radial grid of  891 points,  6 beta functions with: 
                l(1) =   0
                l(2) =   0
                l(3) =   1
                l(4) =   1
                l(5) =   2
                l(6) =   2
     Q(r) pseudized with  6 coefficients,  rinner =    1.200   1.200   1.200
                                                       1.200   1.200

     PseudoPot. # 2 for Se read from file:
     ../pseudo/Se_pbe_v1.uspp.F.UPF
     MD5 check sum: 1b3568f3a8ae88f9a2a0ad0698632c85
     Pseudo is Ultrasoft + core correction, Zval =  6.0
     Generated by new atomic code, or converted to UPF format
     Using radial grid of  877 points,  6 beta functions with: 
                l(1) =   0
                l(2) =   0
                l(3) =   1
                l(4) =   1
                l(5) =   2
                l(6) =   2
     Q(r) pseudized with  8 coefficients,  rinner =    1.300   1.300   1.300
                                                       1.300   1.300

     atomic species   valence    mass     pseudopotential
        Sn            14.00   118.71000     Sn( 1.00)
        Se             6.00    78.97100     Se( 1.00)

      8 Sym. Ops., with inversion, found ( 6 have fractional translation)


                                    s                        frac. trans.

      isym =  1     identity                                     

 cryst.   s( 1) = (     1          0          0      )
                  (     0          1          0      )
                  (     0          0          1      )

 cart.    s( 1) = (  1.0000000  0.0000000  0.0000000 )
                  (  0.0000000  1.0000000  0.0000000 )
                  (  0.0000000  0.0000000  1.0000000 )


      isym =  2     180 deg rotation - cart. axis [0,0,1]        

 cryst.   s( 2) = (    -1          0          0      )    f =(  0.5000000 )
                  (     0         -1          0      )       (  0.5000000 )
                  (     0          0          1      )       (  0.5000000 )

 cart.    s( 2) = ( -1.0000000  0.0000000  0.0000000 )    f =(  0.5000000 )
                  (  0.0000000 -1.0000000  0.0000000 )       (  0.4578422 )
                  (  0.0000000  0.0000000  1.0000000 )       (  1.2676325 )


      isym =  3     180 deg rotation - cart. axis [0,1,0]        

 cryst.   s( 3) = (    -1          0          0      )    f =(  0.0000000 )
                  (     0          1          0      )       (  0.5000000 )
                  (     0          0         -1      )       (  0.0000000 )

 cart.    s( 3) = ( -1.0000000  0.0000000  0.0000000 )    f =(  0.0000000 )
                  (  0.0000000  1.0000000  0.0000000 )       (  0.4578422 )
                  (  0.0000000  0.0000000 -1.0000000 )       (  0.0000000 )


      isym =  4     180 deg rotation - cart. axis [1,0,0]        

 cryst.   s( 4) = (     1          0          0      )    f =( -0.5000000 )
                  (     0         -1          0      )       (  0.0000000 )
                  (     0          0         -1      )       ( -0.5000000 )

 cart.    s( 4) = (  1.0000000  0.0000000  0.0000000 )    f =( -0.5000000 )
                  (  0.0000000 -1.0000000  0.0000000 )       (  0.0000000 )
                  (  0.0000000  0.0000000 -1.0000000 )       ( -1.2676325 )


      isym =  5     inversion                                    

 cryst.   s( 5) = (    -1          0          0      )
                  (     0         -1          0      )
                  (     0          0         -1      )

 cart.    s( 5) = ( -1.0000000  0.0000000  0.0000000 )
                  (  0.0000000 -1.0000000  0.0000000 )
                  (  0.0000000  0.0000000 -1.0000000 )


      isym =  6     inv. 180 deg rotation - cart. axis [0,0,1]   

 cryst.   s( 6) = (     1          0          0      )    f =( -0.5000000 )
                  (     0          1          0      )       (  0.5000000 )
                  (     0          0         -1      )       ( -0.5000000 )

 cart.    s( 6) = (  1.0000000  0.0000000  0.0000000 )    f =( -0.5000000 )
                  (  0.0000000  1.0000000  0.0000000 )       (  0.4578422 )
                  (  0.0000000  0.0000000 -1.0000000 )       ( -1.2676325 )


      isym =  7     inv. 180 deg rotation - cart. axis [0,1,0]   

 cryst.   s( 7) = (     1          0          0      )    f =(  0.0000000 )
                  (     0         -1          0      )       (  0.5000000 )
                  (     0          0          1      )       (  0.0000000 )

 cart.    s( 7) = (  1.0000000  0.0000000  0.0000000 )    f =(  0.0000000 )
                  (  0.0000000 -1.0000000  0.0000000 )       (  0.4578422 )
                  (  0.0000000  0.0000000  1.0000000 )       (  0.0000000 )


      isym =  8     inv. 180 deg rotation - cart. axis [1,0,0]   

 cryst.   s( 8) = (    -1          0          0      )    f =(  0.5000000 )
                  (     0          1          0      )       (  0.0000000 )
                  (     0          0          1      )       (  0.5000000 )

 cart.    s( 8) = ( -1.0000000  0.0000000  0.0000000 )    f =(  0.5000000 )
                  (  0.0000000  1.0000000  0.0000000 )       (  0.0000000 )
                  (  0.0000000  0.0000000  1.0000000 )       (  1.2676325 )


     point group D_2h (mmm) 
     there are  8 classes
     the character table:

       E     C2    C2'   C2''  i     s_v   s_v'  s_v''
A_g    1.00  1.00  1.00  1.00  1.00  1.00  1.00  1.00
B_1g   1.00  1.00 -1.00 -1.00  1.00  1.00 -1.00 -1.00
B_2g   1.00 -1.00  1.00 -1.00  1.00 -1.00  1.00 -1.00
B_3g   1.00 -1.00 -1.00  1.00  1.00 -1.00 -1.00  1.00
A_u    1.00  1.00  1.00  1.00 -1.00 -1.00 -1.00 -1.00
B_1u   1.00  1.00 -1.00 -1.00 -1.00 -1.00  1.00  1.00
B_2u   1.00 -1.00  1.00 -1.00 -1.00  1.00 -1.00  1.00
B_3u   1.00 -1.00 -1.00  1.00 -1.00  1.00  1.00 -1.00

     the symmetry operations in each class and the name of the first element:

     E        1
          identity                                               
     C2       2
          180 deg rotation - cart. axis [0,0,1]                  
     C2'      4
          180 deg rotation - cart. axis [1,0,0]                  
     C2''     3
          180 deg rotation - cart. axis [0,1,0]                  
     i        5
          inversion                                              
     s_v      6
          inv. 180 deg rotation - cart. axis [0,0,1]             
     s_v'     8
          inv. 180 deg rotation - cart. axis [1,0,0]             
     s_v''    7
          inv. 180 deg rotation - cart. axis [0,1,0]             

   Cartesian axes

     site n.     atom                  positions (alat units)
         1           Se  tau(   1) = (   0.4832481   0.6867633   2.1675410  )
         2           Sn  tau(   2) = (   0.1122870   0.6867633   0.2954585  )
         3           Se  tau(   3) = (   0.9832481   0.2289211   1.6353566  )
         4           Sn  tau(   4) = (   0.6122870   0.2289211   0.9721740  )
         5           Se  tau(   5) = (   0.0167519   0.6867633   0.8999084  )
         6           Sn  tau(   6) = (   0.3877130   0.6867633   1.5630911  )
         7           Se  tau(   7) = (   0.5167519   0.2289211   0.3677241  )
         8           Sn  tau(   8) = (   0.8877130   0.2289211   2.2398065  )

   Crystallographic axes

     site n.     atom                  positions (cryst. coord.)
         1           Se  tau(   1) = (  0.4832481  0.7500000  0.8549563  )
         2           Sn  tau(   2) = (  0.1122870  0.7500000  0.1165395  )
         3           Se  tau(   3) = (  0.9832481  0.2500000  0.6450437  )
         4           Sn  tau(   4) = (  0.6122870  0.2500000  0.3834605  )
         5           Se  tau(   5) = (  0.0167519  0.7500000  0.3549563  )
         6           Sn  tau(   6) = (  0.3877130  0.7500000  0.6165395  )
         7           Se  tau(   7) = (  0.5167519  0.2500000  0.1450437  )
         8           Sn  tau(   8) = (  0.8877130  0.2500000  0.8834605  )

     number of k points=   121
                       cart. coord. in units 2pi/alat
        k(    1) = (   0.0000000   0.0000000   0.0000000), wk =   0.0165289
        k(    2) = (   0.0166667   0.0000000   0.0000000), wk =   0.0165289
        k(    3) = (   0.0333333   0.0000000   0.0000000), wk =   0.0165289
        k(    4) = (   0.0500000   0.0000000   0.0000000), wk =   0.0165289
        k(    5) = (   0.0666667   0.0000000   0.0000000), wk =   0.0165289
        k(    6) = (   0.0833333   0.0000000   0.0000000), wk =   0.0165289
        k(    7) = (   0.1000000   0.0000000   0.0000000), wk =   0.0165289
        k(    8) = (   0.1166667   0.0000000   0.0000000), wk =   0.0165289
        k(    9) = (   0.1333333   0.0000000   0.0000000), wk =   0.0165289
        k(   10) = (   0.1500000   0.0000000   0.0000000), wk =   0.0165289
        k(   11) = (   0.1666667   0.0000000   0.0000000), wk =   0.0165289
        k(   12) = (   0.1833333   0.0000000   0.0000000), wk =   0.0165289
        k(   13) = (   0.2000000   0.0000000   0.0000000), wk =   0.0165289
        k(   14) = (   0.2166667   0.0000000   0.0000000), wk =   0.0165289
        k(   15) = (   0.2333333   0.0000000   0.0000000), wk =   0.0165289
        k(   16) = (   0.2500000   0.0000000   0.0000000), wk =   0.0165289
        k(   17) = (   0.2666667   0.0000000   0.0000000), wk =   0.0165289
        k(   18) = (   0.2833333   0.0000000   0.0000000), wk =   0.0165289
        k(   19) = (   0.3000000   0.0000000   0.0000000), wk =   0.0165289
        k(   20) = (   0.3166667   0.0000000   0.0000000), wk =   0.0165289
        k(   21) = (   0.3333333   0.0000000   0.0000000), wk =   0.0165289
        k(   22) = (   0.3500000   0.0000000   0.0000000), wk =   0.0165289
        k(   23) = (   0.3666667   0.0000000   0.0000000), wk =   0.0165289
        k(   24) = (   0.3833333   0.0000000   0.0000000), wk =   0.0165289
        k(   25) = (   0.4000000   0.0000000   0.0000000), wk =   0.0165289
        k(   26) = (   0.4166667   0.0000000   0.0000000), wk =   0.0165289
        k(   27) = (   0.4333333   0.0000000   0.0000000), wk =   0.0165289
        k(   28) = (   0.4500000   0.0000000   0.0000000), wk =   0.0165289
        k(   29) = (   0.4666667   0.0000000   0.0000000), wk =   0.0165289
        k(   30) = (   0.4833333   0.0000000   0.0000000), wk =   0.0165289
        k(   31) = (   0.5000000   0.0000000   0.0000000), wk =   0.0165289
        k(   32) = (   0.5000000   0.0182013   0.0000000), wk =   0.0165289
        k(   33) = (   0.5000000   0.0364026   0.0000000), wk =   0.0165289
        k(   34) = (   0.5000000   0.0546040   0.0000000), wk =   0.0165289
        k(   35) = (   0.5000000   0.0728053   0.0000000), wk =   0.0165289
        k(   36) = (   0.5000000   0.0910066   0.0000000), wk =   0.0165289
        k(   37) = (   0.5000000   0.1092079   0.0000000), wk =   0.0165289
        k(   38) = (   0.5000000   0.1274093   0.0000000), wk =   0.0165289
        k(   39) = (   0.5000000   0.1456106   0.0000000), wk =   0.0165289
        k(   40) = (   0.5000000   0.1638119   0.0000000), wk =   0.0165289
        k(   41) = (   0.5000000   0.1820132   0.0000000), wk =   0.0165289
        k(   42) = (   0.5000000   0.2002146   0.0000000), wk =   0.0165289
        k(   43) = (   0.5000000   0.2184159   0.0000000), wk =   0.0165289
        k(   44) = (   0.5000000   0.2366172   0.0000000), wk =   0.0165289
        k(   45) = (   0.5000000   0.2548185   0.0000000), wk =   0.0165289
        k(   46) = (   0.5000000   0.2730198   0.0000000), wk =   0.0165289
        k(   47) = (   0.5000000   0.2912212   0.0000000), wk =   0.0165289
        k(   48) = (   0.5000000   0.3094225   0.0000000), wk =   0.0165289
        k(   49) = (   0.5000000   0.3276238   0.0000000), wk =   0.0165289
        k(   50) = (   0.5000000   0.3458251   0.0000000), wk =   0.0165289
        k(   51) = (   0.5000000   0.3640265   0.0000000), wk =   0.0165289
        k(   52) = (   0.5000000   0.3822278   0.0000000), wk =   0.0165289
        k(   53) = (   0.5000000   0.4004291   0.0000000), wk =   0.0165289
        k(   54) = (   0.5000000   0.4186304   0.0000000), wk =   0.0165289
        k(   55) = (   0.5000000   0.4368318   0.0000000), wk =   0.0165289
        k(   56) = (   0.5000000   0.4550331   0.0000000), wk =   0.0165289
        k(   57) = (   0.5000000   0.4732344   0.0000000), wk =   0.0165289
        k(   58) = (   0.5000000   0.4914357   0.0000000), wk =   0.0165289
        k(   59) = (   0.5000000   0.5096371   0.0000000), wk =   0.0165289
        k(   60) = (   0.5000000   0.5278384   0.0000000), wk =   0.0165289
        k(   61) = (   0.5000000   0.5460397   0.0000000), wk =   0.0165289
        k(   62) = (   0.4833333   0.5460397   0.0000000), wk =   0.0165289
        k(   63) = (   0.4666667   0.5460397   0.0000000), wk =   0.0165289
        k(   64) = (   0.4500000   0.5460397   0.0000000), wk =   0.0165289
        k(   65) = (   0.4333333   0.5460397   0.0000000), wk =   0.0165289
        k(   66) = (   0.4166667   0.5460397   0.0000000), wk =   0.0165289
        k(   67) = (   0.4000000   0.5460397   0.0000000), wk =   0.0165289
        k(   68) = (   0.3833333   0.5460397   0.0000000), wk =   0.0165289
        k(   69) = (   0.3666667   0.5460397   0.0000000), wk =   0.0165289
        k(   70) = (   0.3500000   0.5460397   0.0000000), wk =   0.0165289
        k(   71) = (   0.3333333   0.5460397   0.0000000), wk =   0.0165289
        k(   72) = (   0.3166667   0.5460397   0.0000000), wk =   0.0165289
        k(   73) = (   0.3000000   0.5460397   0.0000000), wk =   0.0165289
        k(   74) = (   0.2833333   0.5460397   0.0000000), wk =   0.0165289
        k(   75) = (   0.2666667   0.5460397   0.0000000), wk =   0.0165289
        k(   76) = (   0.2500000   0.5460397   0.0000000), wk =   0.0165289
        k(   77) = (   0.2333333   0.5460397   0.0000000), wk =   0.0165289
        k(   78) = (   0.2166667   0.5460397   0.0000000), wk =   0.0165289
        k(   79) = (   0.2000000   0.5460397   0.0000000), wk =   0.0165289
        k(   80) = (   0.1833333   0.5460397   0.0000000), wk =   0.0165289
        k(   81) = (   0.1666667   0.5460397   0.0000000), wk =   0.0165289
        k(   82) = (   0.1500000   0.5460397   0.0000000), wk =   0.0165289
        k(   83) = (   0.1333333   0.5460397   0.0000000), wk =   0.0165289
        k(   84) = (   0.1166667   0.5460397   0.0000000), wk =   0.0165289
        k(   85) = (   0.1000000   0.5460397   0.0000000), wk =   0.0165289
        k(   86) = (   0.0833333   0.5460397   0.0000000), wk =   0.0165289
        k(   87) = (   0.0666667   0.5460397   0.0000000), wk =   0.0165289
        k(   88) = (   0.0500000   0.5460397   0.0000000), wk =   0.0165289
        k(   89) = (   0.0333333   0.5460397   0.0000000), wk =   0.0165289
        k(   90) = (   0.0166667   0.5460397   0.0000000), wk =   0.0165289
        k(   91) = (   0.0000000   0.5460397   0.0000000), wk =   0.0165289
        k(   92) = (   0.0000000   0.5278384   0.0000000), wk =   0.0165289
        k(   93) = (   0.0000000   0.5096371   0.0000000), wk =   0.0165289
        k(   94) = (   0.0000000   0.4914357   0.0000000), wk =   0.0165289
        k(   95) = (   0.0000000   0.4732344   0.0000000), wk =   0.0165289
        k(   96) = (   0.0000000   0.4550331   0.0000000), wk =   0.0165289
        k(   97) = (   0.0000000   0.4368318   0.0000000), wk =   0.0165289
        k(   98) = (   0.0000000   0.4186304   0.0000000), wk =   0.0165289
        k(   99) = (   0.0000000   0.4004291   0.0000000), wk =   0.0165289
        k(  100) = (   0.0000000   0.3822278   0.0000000), wk =   0.0165289
        k(  101) = (   0.0000000   0.3640265   0.0000000), wk =   0.0165289
        k(  102) = (   0.0000000   0.3458251   0.0000000), wk =   0.0165289
        k(  103) = (   0.0000000   0.3276238   0.0000000), wk =   0.0165289
        k(  104) = (   0.0000000   0.3094225   0.0000000), wk =   0.0165289
        k(  105) = (   0.0000000   0.2912212   0.0000000), wk =   0.0165289
        k(  106) = (   0.0000000   0.2730198   0.0000000), wk =   0.0165289
        k(  107) = (   0.0000000   0.2548185   0.0000000), wk =   0.0165289
        k(  108) = (   0.0000000   0.2366172   0.0000000), wk =   0.0165289
        k(  109) = (   0.0000000   0.2184159   0.0000000), wk =   0.0165289
        k(  110) = (   0.0000000   0.2002146   0.0000000), wk =   0.0165289
        k(  111) = (   0.0000000   0.1820132   0.0000000), wk =   0.0165289
        k(  112) = (   0.0000000   0.1638119   0.0000000), wk =   0.0165289
        k(  113) = (   0.0000000   0.1456106   0.0000000), wk =   0.0165289
        k(  114) = (   0.0000000   0.1274093   0.0000000), wk =   0.0165289
        k(  115) = (   0.0000000   0.1092079   0.0000000), wk =   0.0165289
        k(  116) = (   0.0000000   0.0910066   0.0000000), wk =   0.0165289
        k(  117) = (   0.0000000   0.0728053   0.0000000), wk =   0.0165289
        k(  118) = (   0.0000000   0.0546040   0.0000000), wk =   0.0165289
        k(  119) = (   0.0000000   0.0364026   0.0000000), wk =   0.0165289
        k(  120) = (   0.0000000   0.0182013   0.0000000), wk =   0.0165289
        k(  121) = (   0.0000000   0.0000000   0.0000000), wk =   0.0165289

                       cryst. coord.
        k(    1) = (   0.0000000   0.0000000   0.0000000), wk =   0.0165289
        k(    2) = (   0.0166667   0.0000000   0.0000000), wk =   0.0165289
        k(    3) = (   0.0333333   0.0000000   0.0000000), wk =   0.0165289
        k(    4) = (   0.0500000   0.0000000   0.0000000), wk =   0.0165289
        k(    5) = (   0.0666667   0.0000000   0.0000000), wk =   0.0165289
        k(    6) = (   0.0833333   0.0000000   0.0000000), wk =   0.0165289
        k(    7) = (   0.1000000   0.0000000   0.0000000), wk =   0.0165289
        k(    8) = (   0.1166667   0.0000000   0.0000000), wk =   0.0165289
        k(    9) = (   0.1333333   0.0000000   0.0000000), wk =   0.0165289
        k(   10) = (   0.1500000   0.0000000   0.0000000), wk =   0.0165289
        k(   11) = (   0.1666667   0.0000000   0.0000000), wk =   0.0165289
        k(   12) = (   0.1833333   0.0000000   0.0000000), wk =   0.0165289
        k(   13) = (   0.2000000   0.0000000   0.0000000), wk =   0.0165289
        k(   14) = (   0.2166667   0.0000000   0.0000000), wk =   0.0165289
        k(   15) = (   0.2333333   0.0000000   0.0000000), wk =   0.0165289
        k(   16) = (   0.2500000   0.0000000   0.0000000), wk =   0.0165289
        k(   17) = (   0.2666667   0.0000000   0.0000000), wk =   0.0165289
        k(   18) = (   0.2833333   0.0000000   0.0000000), wk =   0.0165289
        k(   19) = (   0.3000000   0.0000000   0.0000000), wk =   0.0165289
        k(   20) = (   0.3166667   0.0000000   0.0000000), wk =   0.0165289
        k(   21) = (   0.3333333   0.0000000   0.0000000), wk =   0.0165289
        k(   22) = (   0.3500000   0.0000000   0.0000000), wk =   0.0165289
        k(   23) = (   0.3666667   0.0000000   0.0000000), wk =   0.0165289
        k(   24) = (   0.3833333   0.0000000   0.0000000), wk =   0.0165289
        k(   25) = (   0.4000000   0.0000000   0.0000000), wk =   0.0165289
        k(   26) = (   0.4166667   0.0000000   0.0000000), wk =   0.0165289
        k(   27) = (   0.4333333   0.0000000   0.0000000), wk =   0.0165289
        k(   28) = (   0.4500000   0.0000000   0.0000000), wk =   0.0165289
        k(   29) = (   0.4666667   0.0000000   0.0000000), wk =   0.0165289
        k(   30) = (   0.4833333   0.0000000   0.0000000), wk =   0.0165289
        k(   31) = (   0.5000000   0.0000000   0.0000000), wk =   0.0165289
        k(   32) = (   0.5000000   0.0166667   0.0000000), wk =   0.0165289
        k(   33) = (   0.5000000   0.0333333   0.0000000), wk =   0.0165289
        k(   34) = (   0.5000000   0.0500000   0.0000000), wk =   0.0165289
        k(   35) = (   0.5000000   0.0666667   0.0000000), wk =   0.0165289
        k(   36) = (   0.5000000   0.0833333   0.0000000), wk =   0.0165289
        k(   37) = (   0.5000000   0.1000000   0.0000000), wk =   0.0165289
        k(   38) = (   0.5000000   0.1166667   0.0000000), wk =   0.0165289
        k(   39) = (   0.5000000   0.1333333   0.0000000), wk =   0.0165289
        k(   40) = (   0.5000000   0.1500000   0.0000000), wk =   0.0165289
        k(   41) = (   0.5000000   0.1666667   0.0000000), wk =   0.0165289
        k(   42) = (   0.5000000   0.1833333   0.0000000), wk =   0.0165289
        k(   43) = (   0.5000000   0.2000000   0.0000000), wk =   0.0165289
        k(   44) = (   0.5000000   0.2166667   0.0000000), wk =   0.0165289
        k(   45) = (   0.5000000   0.2333333   0.0000000), wk =   0.0165289
        k(   46) = (   0.5000000   0.2500000   0.0000000), wk =   0.0165289
        k(   47) = (   0.5000000   0.2666667   0.0000000), wk =   0.0165289
        k(   48) = (   0.5000000   0.2833333   0.0000000), wk =   0.0165289
        k(   49) = (   0.5000000   0.3000000   0.0000000), wk =   0.0165289
        k(   50) = (   0.5000000   0.3166667   0.0000000), wk =   0.0165289
        k(   51) = (   0.5000000   0.3333333   0.0000000), wk =   0.0165289
        k(   52) = (   0.5000000   0.3500000   0.0000000), wk =   0.0165289
        k(   53) = (   0.5000000   0.3666667   0.0000000), wk =   0.0165289
        k(   54) = (   0.5000000   0.3833333   0.0000000), wk =   0.0165289
        k(   55) = (   0.5000000   0.4000000   0.0000000), wk =   0.0165289
        k(   56) = (   0.5000000   0.4166667   0.0000000), wk =   0.0165289
        k(   57) = (   0.5000000   0.4333333   0.0000000), wk =   0.0165289
        k(   58) = (   0.5000000   0.4500000   0.0000000), wk =   0.0165289
        k(   59) = (   0.5000000   0.4666667   0.0000000), wk =   0.0165289
        k(   60) = (   0.5000000   0.4833333   0.0000000), wk =   0.0165289
        k(   61) = (   0.5000000   0.5000000   0.0000000), wk =   0.0165289
        k(   62) = (   0.4833333   0.5000000   0.0000000), wk =   0.0165289
        k(   63) = (   0.4666667   0.5000000   0.0000000), wk =   0.0165289
        k(   64) = (   0.4500000   0.5000000   0.0000000), wk =   0.0165289
        k(   65) = (   0.4333333   0.5000000   0.0000000), wk =   0.0165289
        k(   66) = (   0.4166667   0.5000000   0.0000000), wk =   0.0165289
        k(   67) = (   0.4000000   0.5000000   0.0000000), wk =   0.0165289
        k(   68) = (   0.3833333   0.5000000   0.0000000), wk =   0.0165289
        k(   69) = (   0.3666667   0.5000000   0.0000000), wk =   0.0165289
        k(   70) = (   0.3500000   0.5000000   0.0000000), wk =   0.0165289
        k(   71) = (   0.3333333   0.5000000   0.0000000), wk =   0.0165289
        k(   72) = (   0.3166667   0.5000000   0.0000000), wk =   0.0165289
        k(   73) = (   0.3000000   0.5000000   0.0000000), wk =   0.0165289
        k(   74) = (   0.2833333   0.5000000   0.0000000), wk =   0.0165289
        k(   75) = (   0.2666667   0.5000000   0.0000000), wk =   0.0165289
        k(   76) = (   0.2500000   0.5000000   0.0000000), wk =   0.0165289
        k(   77) = (   0.2333333   0.5000000   0.0000000), wk =   0.0165289
        k(   78) = (   0.2166667   0.5000000   0.0000000), wk =   0.0165289
        k(   79) = (   0.2000000   0.5000000   0.0000000), wk =   0.0165289
        k(   80) = (   0.1833333   0.5000000   0.0000000), wk =   0.0165289
        k(   81) = (   0.1666667   0.5000000   0.0000000), wk =   0.0165289
        k(   82) = (   0.1500000   0.5000000   0.0000000), wk =   0.0165289
        k(   83) = (   0.1333333   0.5000000   0.0000000), wk =   0.0165289
        k(   84) = (   0.1166667   0.5000000   0.0000000), wk =   0.0165289
        k(   85) = (   0.1000000   0.5000000   0.0000000), wk =   0.0165289
        k(   86) = (   0.0833333   0.5000000   0.0000000), wk =   0.0165289
        k(   87) = (   0.0666667   0.5000000   0.0000000), wk =   0.0165289
        k(   88) = (   0.0500000   0.5000000   0.0000000), wk =   0.0165289
        k(   89) = (   0.0333333   0.5000000   0.0000000), wk =   0.0165289
        k(   90) = (   0.0166667   0.5000000   0.0000000), wk =   0.0165289
        k(   91) = (   0.0000000   0.5000000   0.0000000), wk =   0.0165289
        k(   92) = (   0.0000000   0.4833333   0.0000000), wk =   0.0165289
        k(   93) = (   0.0000000   0.4666667   0.0000000), wk =   0.0165289
        k(   94) = (   0.0000000   0.4500000   0.0000000), wk =   0.0165289
        k(   95) = (   0.0000000   0.4333333   0.0000000), wk =   0.0165289
        k(   96) = (   0.0000000   0.4166667   0.0000000), wk =   0.0165289
        k(   97) = (   0.0000000   0.4000000   0.0000000), wk =   0.0165289
        k(   98) = (   0.0000000   0.3833333   0.0000000), wk =   0.0165289
        k(   99) = (   0.0000000   0.3666667   0.0000000), wk =   0.0165289
        k(  100) = (   0.0000000   0.3500000   0.0000000), wk =   0.0165289
        k(  101) = (   0.0000000   0.3333333   0.0000000), wk =   0.0165289
        k(  102) = (   0.0000000   0.3166667   0.0000000), wk =   0.0165289
        k(  103) = (   0.0000000   0.3000000   0.0000000), wk =   0.0165289
        k(  104) = (   0.0000000   0.2833333   0.0000000), wk =   0.0165289
        k(  105) = (   0.0000000   0.2666667   0.0000000), wk =   0.0165289
        k(  106) = (   0.0000000   0.2500000   0.0000000), wk =   0.0165289
        k(  107) = (   0.0000000   0.2333333   0.0000000), wk =   0.0165289
        k(  108) = (   0.0000000   0.2166667   0.0000000), wk =   0.0165289
        k(  109) = (   0.0000000   0.2000000   0.0000000), wk =   0.0165289
        k(  110) = (   0.0000000   0.1833333   0.0000000), wk =   0.0165289
        k(  111) = (   0.0000000   0.1666667   0.0000000), wk =   0.0165289
        k(  112) = (   0.0000000   0.1500000   0.0000000), wk =   0.0165289
        k(  113) = (   0.0000000   0.1333333   0.0000000), wk =   0.0165289
        k(  114) = (   0.0000000   0.1166667   0.0000000), wk =   0.0165289
        k(  115) = (   0.0000000   0.1000000   0.0000000), wk =   0.0165289
        k(  116) = (   0.0000000   0.0833333   0.0000000), wk =   0.0165289
        k(  117) = (   0.0000000   0.0666667   0.0000000), wk =   0.0165289
        k(  118) = (   0.0000000   0.0500000   0.0000000), wk =   0.0165289
        k(  119) = (   0.0000000   0.0333333   0.0000000), wk =   0.0165289
        k(  120) = (   0.0000000   0.0166667   0.0000000), wk =   0.0165289
        k(  121) = (   0.0000000   0.0000000   0.0000000), wk =   0.0165289

     Dense  grid:   130013 G-vectors     FFT dimensions: (  48,  48, 128)

     Smooth grid:    32833 G-vectors     FFT dimensions: (  32,  30,  80)

     Dynamical RAM for                 wfc:       1.57 MB

     Dynamical RAM for     wfc (w. buffer):       1.57 MB

     Dynamical RAM for           str. fact:       1.98 MB

     Dynamical RAM for           local pot:       0.00 MB

     Dynamical RAM for          nlocal pot:       4.52 MB

     Dynamical RAM for                qrad:       2.78 MB

     Dynamical RAM for          rho,v,vnew:       6.35 MB

     Dynamical RAM for           G-vectors:       3.84 MB

     Dynamical RAM for          h,s,v(r/c):       0.46 MB

     Dynamical RAM for          <psi|beta>:       0.11 MB

     Dynamical RAM for                 psi:       3.14 MB

     Dynamical RAM for                hpsi:       3.14 MB

     Dynamical RAM for                spsi:       3.14 MB

     Dynamical RAM for      wfcinit/wfcrot:       3.32 MB

     Dynamical RAM for           addusdens:     188.46 MB

     Estimated static dynamical RAM per process >      29.64 MB

     Estimated max dynamical RAM per process >     218.11 MB

     Estimated total dynamical RAM >     436.22 MB

     The potential is recalculated from file :
     ./tmp/SnSe_pnma.save/charge-density

     Starting wfcs are   52 randomized atomic wfcs

     Band Structure Calculation
     Davidson diagonalization with overlap

     Computing kpt #:     1  of   121
     total cpu time spent up to now is        6.1 secs

     Computing kpt #:     2  of   121
     total cpu time spent up to now is        9.1 secs

     Computing kpt #:     3  of   121
     total cpu time spent up to now is       11.8 secs

     Computing kpt #:     4  of   121
     total cpu time spent up to now is       14.4 secs

     Computing kpt #:     5  of   121
     total cpu time spent up to now is       17.0 secs

     Computing kpt #:     6  of   121
     total cpu time spent up to now is       19.6 secs

     Computing kpt #:     7  of   121
     total cpu time spent up to now is       22.2 secs

     Computing kpt #:     8  of   121
     total cpu time spent up to now is       24.9 secs

     Computing kpt #:     9  of   121
     total cpu time spent up to now is       27.6 secs

     Computing kpt #:    10  of   121
     total cpu time spent up to now is       30.2 secs

     Computing kpt #:    11  of   121
     total cpu time spent up to now is       32.9 secs

     Computing kpt #:    12  of   121
     total cpu time spent up to now is       35.5 secs

     Computing kpt #:    13  of   121
     total cpu time spent up to now is       38.1 secs

     Computing kpt #:    14  of   121
     total cpu time spent up to now is       40.8 secs

     Computing kpt #:    15  of   121
     total cpu time spent up to now is       43.7 secs

     Computing kpt #:    16  of   121
     total cpu time spent up to now is       46.4 secs

     Computing kpt #:    17  of   121
     total cpu time spent up to now is       49.2 secs

     Computing kpt #:    18  of   121
     total cpu time spent up to now is       51.8 secs

     Computing kpt #:    19  of   121
     total cpu time spent up to now is       54.4 secs

     Computing kpt #:    20  of   121
     total cpu time spent up to now is       57.0 secs

     Computing kpt #:    21  of   121
     total cpu time spent up to now is       59.3 secs

     Computing kpt #:    22  of   121
     total cpu time spent up to now is       61.7 secs

     Computing kpt #:    23  of   121
     total cpu time spent up to now is       64.1 secs

     Computing kpt #:    24  of   121
     total cpu time spent up to now is       66.4 secs

     Computing kpt #:    25  of   121
     total cpu time spent up to now is       68.8 secs

     Computing kpt #:    26  of   121
     total cpu time spent up to now is       71.1 secs

     Computing kpt #:    27  of   121
     total cpu time spent up to now is       73.5 secs

     Computing kpt #:    28  of   121
     total cpu time spent up to now is       75.8 secs

     Computing kpt #:    29  of   121
     total cpu time spent up to now is       78.2 secs

     Computing kpt #:    30  of   121
     total cpu time spent up to now is       80.4 secs

     Computing kpt #:    31  of   121
     total cpu time spent up to now is       82.7 secs

     Computing kpt #:    32  of   121
     total cpu time spent up to now is       85.1 secs

     Computing kpt #:    33  of   121
     total cpu time spent up to now is       87.5 secs

     Computing kpt #:    34  of   121
     total cpu time spent up to now is       90.0 secs

     Computing kpt #:    35  of   121
     total cpu time spent up to now is       92.5 secs

     Computing kpt #:    36  of   121
     total cpu time spent up to now is       95.1 secs

     Computing kpt #:    37  of   121
     total cpu time spent up to now is       97.7 secs

     Computing kpt #:    38  of   121
     total cpu time spent up to now is      100.4 secs

     Computing kpt #:    39  of   121
     total cpu time spent up to now is      103.0 secs

     Computing kpt #:    40  of   121
     total cpu time spent up to now is      105.7 secs

     Computing kpt #:    41  of   121
     total cpu time spent up to now is      108.4 secs

     Computing kpt #:    42  of   121
     total cpu time spent up to now is      111.0 secs

     Computing kpt #:    43  of   121
     total cpu time spent up to now is      113.6 secs

     Computing kpt #:    44  of   121
     total cpu time spent up to now is      116.3 secs

     Computing kpt #:    45  of   121
     total cpu time spent up to now is      119.0 secs

     Computing kpt #:    46  of   121
     total cpu time spent up to now is      121.7 secs

     Computing kpt #:    47  of   121
     total cpu time spent up to now is      124.5 secs

     Computing kpt #:    48  of   121
     total cpu time spent up to now is      127.2 secs

     Computing kpt #:    49  of   121
     total cpu time spent up to now is      129.9 secs

     Computing kpt #:    50  of   121
     total cpu time spent up to now is      132.6 secs

     Computing kpt #:    51  of   121
     total cpu time spent up to now is      135.3 secs

     Computing kpt #:    52  of   121
     total cpu time spent up to now is      138.0 secs

     Computing kpt #:    53  of   121
     total cpu time spent up to now is      140.6 secs

     Computing kpt #:    54  of   121
     total cpu time spent up to now is      143.2 secs

     Computing kpt #:    55  of   121
     total cpu time spent up to now is      145.9 secs

     Computing kpt #:    56  of   121
     total cpu time spent up to now is      148.5 secs

     Computing kpt #:    57  of   121
     total cpu time spent up to now is      151.2 secs

     Computing kpt #:    58  of   121
     total cpu time spent up to now is      153.8 secs

     Computing kpt #:    59  of   121
     total cpu time spent up to now is      156.4 secs

     Computing kpt #:    60  of   121
     total cpu time spent up to now is      159.0 secs

     Computing kpt #:    61  of   121
     total cpu time spent up to now is      161.6 secs

     Computing kpt #:    62  of   121
     total cpu time spent up to now is      164.5 secs

     Computing kpt #:    63  of   121
     total cpu time spent up to now is      167.3 secs

     Computing kpt #:    64  of   121
     total cpu time spent up to now is      170.1 secs

     Computing kpt #:    65  of   121
     total cpu time spent up to now is      172.9 secs

     Computing kpt #:    66  of   121
     total cpu time spent up to now is      175.7 secs

     Computing kpt #:    67  of   121
     total cpu time spent up to now is      178.4 secs

     Computing kpt #:    68  of   121
     total cpu time spent up to now is      181.1 secs

     Computing kpt #:    69  of   121
     total cpu time spent up to now is      183.8 secs

     Computing kpt #:    70  of   121
     total cpu time spent up to now is      186.5 secs

     Computing kpt #:    71  of   121
     total cpu time spent up to now is      189.2 secs

     Computing kpt #:    72  of   121
     total cpu time spent up to now is      192.0 secs

     Computing kpt #:    73  of   121
     total cpu time spent up to now is      194.9 secs

     Computing kpt #:    74  of   121
     total cpu time spent up to now is      197.7 secs

     Computing kpt #:    75  of   121
     total cpu time spent up to now is      200.6 secs

     Computing kpt #:    76  of   121
     total cpu time spent up to now is      203.4 secs

     Computing kpt #:    77  of   121
     total cpu time spent up to now is      206.2 secs

     Computing kpt #:    78  of   121
     total cpu time spent up to now is      209.0 secs

     Computing kpt #:    79  of   121
     total cpu time spent up to now is      211.7 secs

     Computing kpt #:    80  of   121
     total cpu time spent up to now is      214.5 secs

     Computing kpt #:    81  of   121
     total cpu time spent up to now is      217.3 secs

     Computing kpt #:    82  of   121
     total cpu time spent up to now is      220.1 secs

     Computing kpt #:    83  of   121
     total cpu time spent up to now is      222.8 secs

     Computing kpt #:    84  of   121
     total cpu time spent up to now is      225.5 secs

     Computing kpt #:    85  of   121
     total cpu time spent up to now is      228.2 secs

     Computing kpt #:    86  of   121
     total cpu time spent up to now is      230.8 secs

     Computing kpt #:    87  of   121
     total cpu time spent up to now is      233.5 secs

     Computing kpt #:    88  of   121
     total cpu time spent up to now is      236.2 secs

     Computing kpt #:    89  of   121
     total cpu time spent up to now is      238.9 secs

     Computing kpt #:    90  of   121
     total cpu time spent up to now is      241.7 secs

     Computing kpt #:    91  of   121
     total cpu time spent up to now is      244.2 secs

     Computing kpt #:    92  of   121
     total cpu time spent up to now is      246.7 secs

     Computing kpt #:    93  of   121
     total cpu time spent up to now is      249.5 secs

     Computing kpt #:    94  of   121
     total cpu time spent up to now is      252.3 secs

     Computing kpt #:    95  of   121
     total cpu time spent up to now is      255.0 secs

     Computing kpt #:    96  of   121
     total cpu time spent up to now is      257.7 secs

     Computing kpt #:    97  of   121
     total cpu time spent up to now is      260.5 secs

     Computing kpt #:    98  of   121
     total cpu time spent up to now is      263.2 secs

     Computing kpt #:    99  of   121
     total cpu time spent up to now is      266.0 secs

     Computing kpt #:   100  of   121
     total cpu time spent up to now is      268.8 secs

     Computing kpt #:   101  of   121
     total cpu time spent up to now is      271.5 secs

     Computing kpt #:   102  of   121
     total cpu time spent up to now is      274.3 secs

     Computing kpt #:   103  of   121
     total cpu time spent up to now is      277.2 secs

     Computing kpt #:   104  of   121
     total cpu time spent up to now is      280.1 secs

     Computing kpt #:   105  of   121
     total cpu time spent up to now is      283.1 secs

     Computing kpt #:   106  of   121
     total cpu time spent up to now is      285.9 secs

     Computing kpt #:   107  of   121
     total cpu time spent up to now is      288.6 secs

     Computing kpt #:   108  of   121
     total cpu time spent up to now is      291.7 secs

     Computing kpt #:   109  of   121
     total cpu time spent up to now is      294.7 secs

     Computing kpt #:   110  of   121
     total cpu time spent up to now is      297.6 secs

     Computing kpt #:   111  of   121
     total cpu time spent up to now is      300.4 secs

     Computing kpt #:   112  of   121
     total cpu time spent up to now is      303.3 secs

     Computing kpt #:   113  of   121
     total cpu time spent up to now is      306.0 secs

     Computing kpt #:   114  of   121
     total cpu time spent up to now is      308.7 secs

     Computing kpt #:   115  of   121
     total cpu time spent up to now is      311.7 secs

     Computing kpt #:   116  of   121
     total cpu time spent up to now is      314.4 secs

     Computing kpt #:   117  of   121
     total cpu time spent up to now is      317.1 secs

     Computing kpt #:   118  of   121
     total cpu time spent up to now is      319.8 secs

     Computing kpt #:   119  of   121
     total cpu time spent up to now is      322.5 secs

     Computing kpt #:   120  of   121
     total cpu time spent up to now is      325.1 secs

     Computing kpt #:   121  of   121
     total cpu time spent up to now is      327.7 secs

     ethr =  1.25E-11,  avg # of iterations = 49.8

     total cpu time spent up to now is      327.7 secs

     End of band structure calculation

          k = 0.0000 0.0000 0.0000 (  4129 PWs)   bands (ev):

   -13.7590 -13.7478 -13.7458 -13.7415 -13.7404 -13.7377 -13.7343 -13.7332
   -13.7262 -13.7233 -13.7218 -13.7216 -13.7118 -13.7080 -13.6918 -13.6878
   -13.6844 -13.6815 -13.6747 -13.6681  -6.0326  -5.6990  -5.0731  -4.6158
     0.4122   1.4682   1.9732   2.5890   2.9238   4.3421   4.4184   4.4252
     4.6972   4.9083   5.4427   5.7917   6.1054   6.5556   6.8493   7.1459
     8.3724  10.2511  10.5145  10.5214  10.6921  10.9585  11.4753  12.0273
    12.1233  12.3152

          k = 0.0167 0.0000 0.0000 (  4129 PWs)   bands (ev):

   -13.7590 -13.7478 -13.7458 -13.7415 -13.7404 -13.7377 -13.7343 -13.7332
   -13.7262 -13.7233 -13.7218 -13.7216 -13.7118 -13.7080 -13.6918 -13.6878
   -13.6844 -13.6815 -13.6747 -13.6681  -6.0316  -5.6980  -5.0729  -4.6160
     0.4079   1.4662   1.9674   2.5820   2.9242   4.3350   4.4200   4.4401
     4.7065   4.9098   5.4438   5.7936   6.1059   6.5605   6.8456   7.1468
     8.3725  10.2388  10.5123  10.5276  10.6937  10.9502  11.4789  12.0197
    12.1175  12.3095

          k = 0.0333 0.0000 0.0000 (  4123 PWs)   bands (ev):

   -13.7590 -13.7478 -13.7459 -13.7415 -13.7404 -13.7377 -13.7343 -13.7332
   -13.7262 -13.7233 -13.7217 -13.7216 -13.7118 -13.7081 -13.6918 -13.6878
   -13.6844 -13.6815 -13.6747 -13.6681  -6.0284  -5.6951  -5.0725  -4.6168
     0.3952   1.4602   1.9499   2.5624   2.9250   4.3229   4.4249   4.4751
     4.7340   4.9142   5.4469   5.7994   6.1073   6.5750   6.8347   7.1491
     8.3729  10.2035  10.5111  10.5411  10.6964  10.9259  11.4896  11.9973
    12.1004  12.2937

          k = 0.0500 0.0000 0.0000 (  4127 PWs)   bands (ev):

   -13.7589 -13.7477 -13.7459 -13.7415 -13.7405 -13.7378 -13.7343 -13.7332
   -13.7262 -13.7232 -13.7216 -13.7215 -13.7117 -13.7081 -13.6918 -13.6878
   -13.6845 -13.6816 -13.6747 -13.6681  -6.0230  -5.6902  -5.0719  -4.6182
     0.3744   1.4503   1.9203   2.5330   2.9251   4.3146   4.4331   4.5211
     4.7781   4.9214   5.4521   5.8094   6.1096   6.5987   6.8171   7.1525
     8.3740  10.1487  10.5117  10.5603  10.6963  10.8864  11.5068  11.9603
    12.0722  12.2710

          k = 0.0667 0.0000 0.0000 (  4117 PWs)   bands (ev):

   -13.7588 -13.7477 -13.7459 -13.7415 -13.7406 -13.7379 -13.7344 -13.7331
   -13.7262 -13.7231 -13.7216 -13.7213 -13.7116 -13.7081 -13.6918 -13.6877
   -13.6845 -13.6816 -13.6746 -13.6681  -6.0156  -5.6834  -5.0710  -4.6202
     0.3464   1.4364   1.8780   2.4974   2.9240   4.3132   4.4446   4.5744
     4.8367   4.9315   5.4592   5.8238   6.1127   6.6313   6.7934   7.1561
     8.3766  10.0784  10.5137  10.5851  10.6886  10.8331  11.5297  11.9095
    12.0332  12.2456

          k = 0.0833 0.0000 0.0000 (  4099 PWs)   bands (ev):

   -13.7587 -13.7476 -13.7459 -13.7414 -13.7406 -13.7380 -13.7344 -13.7331
   -13.7262 -13.7229 -13.7216 -13.7210 -13.7115 -13.7081 -13.6918 -13.6877
   -13.6846 -13.6816 -13.6746 -13.6682  -6.0060  -5.6747  -5.0700  -4.6227
     0.3118   1.4187   1.8231   2.4581   2.9218   4.3192   4.4592   4.6334
     4.9072   4.9445   5.4683   5.8431   6.1166   6.6721   6.7642   7.1593
     8.3813   9.9957  10.5162  10.6149  10.6696  10.7678  11.5574  11.8457
    11.9843  12.2221

          k = 0.1000 0.0000 0.0000 (  4103 PWs)   bands (ev):

   -13.7585 -13.7475 -13.7460 -13.7414 -13.7408 -13.7381 -13.7344 -13.7331
   -13.7262 -13.7227 -13.7217 -13.7207 -13.7115 -13.7081 -13.6918 -13.6876
   -13.6847 -13.6817 -13.6745 -13.6682  -5.9944  -5.6642  -5.0688  -4.6259
     0.2717   1.3972   1.7563   2.4164   2.9197   4.3327   4.4771   4.6971
     4.9603   4.9867   5.4792   5.8679   6.1211   6.7202   6.7301   7.1612
     8.3892   9.9032  10.5186  10.6363  10.6486  10.6924  11.5890  11.7700
    11.9264  12.2043

          k = 0.1167 0.0000 0.0000 (  4113 PWs)   bands (ev):

   -13.7584 -13.7474 -13.7460 -13.7414 -13.7409 -13.7383 -13.7344 -13.7331
   -13.7262 -13.7225 -13.7217 -13.7204 -13.7114 -13.7081 -13.6919 -13.6875
   -13.6849 -13.6818 -13.6745 -13.6683  -5.9808  -5.6518  -5.0677  -4.6298
     0.2270   1.3724   1.6789   2.3725   2.9188   4.3532   4.4980   4.7644
     4.9788   5.0720   5.4917   5.8991   6.1261   6.6918   6.7750   7.1615
     8.4009   9.8029  10.5198  10.5872  10.6089  10.6849  11.6237  11.6839
    11.8608  12.1946

          k = 0.1333 0.0000 0.0000 (  4109 PWs)   bands (ev):

   -13.7582 -13.7473 -13.7461 -13.7414 -13.7411 -13.7385 -13.7344 -13.7331
   -13.7262 -13.7222 -13.7218 -13.7200 -13.7113 -13.7082 -13.6919 -13.6874
   -13.6850 -13.6818 -13.6744 -13.6684  -5.9652  -5.6376  -5.0667  -4.6345
     0.1789   1.3445   1.5926   2.3258   2.9209   4.3800   4.5221   4.8347
     5.0000   5.1604   5.5058   5.9376   6.1314   6.6500   6.8355   7.1597
     8.4174   9.6963  10.5185  10.5191  10.5222  10.7221  11.5886  11.6611
    11.7889  12.1933

          k = 0.1500 0.0000 0.0000 (  4111 PWs)   bands (ev):

   -13.7579 -13.7471 -13.7461 -13.7413 -13.7412 -13.7388 -13.7345 -13.7332
   -13.7262 -13.7219 -13.7219 -13.7196 -13.7111 -13.7082 -13.6919 -13.6873
   -13.6852 -13.6819 -13.6744 -13.6684  -5.9476  -5.6216  -5.0659  -4.6400
     0.1283   1.3142   1.4994   2.2759   2.9270   4.4121   4.5491   4.9070
     5.0238   5.2487   5.5212   5.9848   6.1368   6.6058   6.9009   7.1555
     8.4393   9.5848  10.4247  10.4423  10.5131  10.7579  11.4856  11.7012
    11.7121  12.1980

          k = 0.1667 0.0000 0.0000 (  4103 PWs)   bands (ev):

   -13.7577 -13.7470 -13.7462 -13.7414 -13.7413 -13.7390 -13.7345 -13.7332
   -13.7262 -13.7219 -13.7216 -13.7192 -13.7110 -13.7082 -13.6920 -13.6872
   -13.6853 -13.6820 -13.6743 -13.6685  -5.9283  -5.6039  -5.0654  -4.6464
     0.0762   1.2820   1.4010   2.2223   2.9380   4.4483   4.5791   4.9807
     5.0502   5.3344   5.5377   6.0415   6.1420   6.5601   6.9704   7.1487
     8.4668   9.4698  10.3275  10.3491  10.5018  10.7898  11.3765  11.6320
    11.7446  12.2029

          k = 0.1833 0.0000 0.0000 (  4091 PWs)   bands (ev):

   -13.7574 -13.7468 -13.7463 -13.7415 -13.7413 -13.7393 -13.7345 -13.7332
   -13.7262 -13.7220 -13.7212 -13.7187 -13.7109 -13.7082 -13.6920 -13.6870
   -13.6855 -13.6821 -13.6742 -13.6686  -5.9071  -5.5846  -5.0654  -4.6537
     0.0236   1.2485   1.2991   2.1648   2.9543   4.4874   4.6120   5.0552
     5.0789   5.4152   5.5550   6.1088   6.1470   6.5143   7.0429   7.1395
     8.5004   9.3525  10.2287  10.2451  10.4829  10.8150  11.2624  11.5501
    11.7924  12.1982

          k = 0.2000 0.0000 0.0000 (  4093 PWs)   bands (ev):

   -13.7572 -13.7467 -13.7464 -13.7417 -13.7413 -13.7395 -13.7346 -13.7332
   -13.7262 -13.7221 -13.7207 -13.7182 -13.7107 -13.7083 -13.6920 -13.6869
   -13.6857 -13.6821 -13.6741 -13.6687  -5.8842  -5.5637  -5.0660  -4.6621
    -0.0288   1.1950   1.2145   2.1039   2.9761   4.5277   4.6476   5.1101
     5.1298   5.4899   5.5728   6.1513   6.1867   6.4700   7.1177   7.1280
     8.5400   9.2342  10.1299  10.1325  10.4549  10.8307  11.1448  11.4677
    11.8460  12.1721

          k = 0.2167 0.0000 0.0000 (  4101 PWs)   bands (ev):

   -13.7569 -13.7465 -13.7465 -13.7419 -13.7413 -13.7398 -13.7346 -13.7332
   -13.7262 -13.7222 -13.7203 -13.7177 -13.7106 -13.7083 -13.6920 -13.6868
   -13.6859 -13.6822 -13.6740 -13.6688  -5.8597  -5.5413  -5.0674  -4.6715
    -0.0800   1.0898   1.1805   2.0400   3.0033   4.5673   4.6858   5.1434
     5.2041   5.5578   5.5909   6.1547   6.2747   6.4289   7.1143   7.1935
     8.5854   9.1162  10.0135  10.0323  10.4166  10.8346  11.0247  11.3862
    11.9067  12.1188

          k = 0.2333 0.0000 0.0000 (  4109 PWs)   bands (ev):

   -13.7565 -13.7466 -13.7463 -13.7421 -13.7413 -13.7401 -13.7347 -13.7333
   -13.7261 -13.7223 -13.7199 -13.7172 -13.7105 -13.7084 -13.6920 -13.6866
   -13.6861 -13.6824 -13.6739 -13.6690  -5.8336  -5.5175  -5.0696  -4.6821
    -0.1294   0.9846   1.1472   1.9738   3.0355   4.6044   4.7265   5.1788
     5.2775   5.6089   5.6195   6.1569   6.3714   6.3931   7.0987   7.2690
     8.6365   9.0000   9.8903   9.9370  10.3674  10.8251  10.9033  11.3069
    11.9754  12.0415

          k = 0.2500 0.0000 0.0000 (  4109 PWs)   bands (ev):

   -13.7562 -13.7467 -13.7461 -13.7423 -13.7413 -13.7404 -13.7347 -13.7333
   -13.7261 -13.7224 -13.7194 -13.7167 -13.7104 -13.7084 -13.6919 -13.6865
   -13.6863 -13.6825 -13.6738 -13.6691  -5.8061  -5.4923  -5.0730  -4.6939
    -0.1763   0.8801   1.1152   1.9059   3.0726   4.6366   4.7695   5.2161
     5.3498   5.6262   5.6758   6.1576   6.3647   6.4748   7.0818   7.3425
     8.6929   8.8875   9.7646   9.8450  10.3075  10.7815  10.8016  11.2307
    11.9471  12.0524

          k = 0.2667 0.0000 0.0000 (  4109 PWs)   bands (ev):

   -13.7559 -13.7468 -13.7459 -13.7425 -13.7413 -13.7407 -13.7348 -13.7334
   -13.7261 -13.7225 -13.7189 -13.7162 -13.7104 -13.7084 -13.6919 -13.6865
   -13.6863 -13.6826 -13.6737 -13.6692  -5.7774  -5.4659  -5.0776  -4.7070
    -0.2200   0.7769   1.0851   1.8371   3.1142   4.6616   4.8148   5.2552
     5.4210   5.6427   5.7280   6.1566   6.3456   6.5830   7.0639   7.4118
     8.7541   8.7813   9.6381   9.7574  10.2372  10.6601  10.7643  11.1587
    11.8415  12.1372

          k = 0.2833 0.0000 0.0000 (  4125 PWs)   bands (ev):

   -13.7555 -13.7470 -13.7457 -13.7427 -13.7414 -13.7410 -13.7348 -13.7335
   -13.7260 -13.7226 -13.7184 -13.7157 -13.7103 -13.7085 -13.6919 -13.6868
   -13.6862 -13.6827 -13.6735 -13.6694  -5.7474  -5.4383  -5.0835  -4.7214
    -0.2600   0.6757   1.0574   1.7680   3.1600   4.6771   4.8620   5.2959
     5.4916   5.6576   5.7769   6.1534   6.3373   6.6937   7.0457   7.4734
     8.6848   8.8197   9.5124   9.6751  10.1577  10.5401  10.7144  11.0919
    11.7286  12.0331

          k = 0.3000 0.0000 0.0000 (  4121 PWs)   bands (ev):

   -13.7551 -13.7472 -13.7455 -13.7428 -13.7415 -13.7413 -13.7348 -13.7336
   -13.7260 -13.7227 -13.7179 -13.7152 -13.7103 -13.7085 -13.6918 -13.6870
   -13.6861 -13.6828 -13.6734 -13.6695  -5.7163  -5.4097  -5.0910  -4.7372
    -0.2957   0.5770   1.0326   1.6993   3.2097   4.6812   4.9110   5.3380
     5.5621   5.6706   5.8236   6.1479   6.3402   6.8051   7.0281   7.5228
     8.6026   8.8893   9.3892   9.5990  10.0700  10.4220  10.6534  11.0310
    11.6109  11.9222

          k = 0.3167 0.0000 0.0000 (  4109 PWs)   bands (ev):

   -13.7547 -13.7474 -13.7453 -13.7430 -13.7415 -13.7415 -13.7349 -13.7336
   -13.7259 -13.7229 -13.7174 -13.7147 -13.7103 -13.7086 -13.6917 -13.6872
   -13.6859 -13.6829 -13.6732 -13.6696  -5.6844  -5.3801  -5.1001  -4.7544
    -0.3268   0.4813   1.0111   1.6314   3.2631   4.6728   4.9615   5.3813
     5.6336   5.6812   5.8685   6.1398   6.3538   6.9151   7.0121   7.5544
     8.5405   8.9622   9.2702   9.5300   9.9755  10.3067  10.5831  10.9767
    11.4903  11.8136

          k = 0.3333 0.0000 0.0000 (  4101 PWs)   bands (ev):

   -13.7543 -13.7476 -13.7451 -13.7431 -13.7418 -13.7416 -13.7349 -13.7337
   -13.7258 -13.7230 -13.7169 -13.7142 -13.7104 -13.7086 -13.6916 -13.6875
   -13.6858 -13.6830 -13.6731 -13.6698  -5.6517  -5.3497  -5.1109  -4.7729
    -0.3527   0.3889   0.9932   1.5650   3.3199   4.6518   5.0134   5.4255
     5.6887   5.7068   5.9123   6.1290   6.3761   6.9992   7.0212   7.5626
     8.5038   9.0377   9.1579   9.4687   9.8754  10.1946  10.5056  10.9297
    11.3678  11.7079

          k = 0.3500 0.0000 0.0000 (  4101 PWs)   bands (ev):

   -13.7539 -13.7478 -13.7449 -13.7432 -13.7420 -13.7417 -13.7349 -13.7338
   -13.7257 -13.7231 -13.7164 -13.7137 -13.7105 -13.7087 -13.6915 -13.6877
   -13.6856 -13.6832 -13.6729 -13.6699  -5.6184  -5.3187  -5.1236  -4.7930
    -0.3732   0.3003   0.9794   1.5004   3.3799   4.6188   5.0662   5.4705
     5.6927   5.7823   5.9551   6.1152   6.4040   6.9914   7.1201   7.5455
     8.4947   9.0555   9.1148   9.4159   9.7710  10.0866  10.4229  10.8905
    11.2446  11.6057

          k = 0.3667 0.0000 0.0000 (  4109 PWs)   bands (ev):

   -13.7536 -13.7480 -13.7447 -13.7434 -13.7423 -13.7418 -13.7349 -13.7339
   -13.7256 -13.7233 -13.7159 -13.7132 -13.7106 -13.7088 -13.6914 -13.6880
   -13.6855 -13.6833 -13.6728 -13.6701  -5.5847  -5.2870  -5.1382  -4.8144
    -0.3879   0.2157   0.9697   1.4381   3.4428   4.5750   5.1196   5.5159
     5.6927   5.8603   5.9971   6.0984   6.4338   6.9913   7.2055   7.5083
     8.5092   8.9681   9.1924   9.3722   9.6635   9.9830  10.3376  10.8595
    11.1213  11.5075

          k = 0.3833 0.0000 0.0000 (  4107 PWs)   bands (ev):

   -13.7531 -13.7483 -13.7445 -13.7435 -13.7425 -13.7419 -13.7349 -13.7340
   -13.7255 -13.7234 -13.7154 -13.7127 -13.7107 -13.7088 -13.6912 -13.6882
   -13.6853 -13.6834 -13.6726 -13.6703  -5.5507  -5.2549  -5.1547  -4.8372
    -0.3967   0.1355   0.9646   1.3785   3.5085   4.5222   5.1734   5.5615
     5.6883   5.9404   6.0384   6.0785   6.4615   7.0016   7.2619   7.4686
     8.5370   8.9037   9.2681   9.3381   9.5538   9.8846  10.2528  10.8372
    10.9987  11.4140

          k = 0.4000 0.0000 0.0000 (  4091 PWs)   bands (ev):

   -13.7527 -13.7485 -13.7443 -13.7435 -13.7427 -13.7421 -13.7349 -13.7341
   -13.7253 -13.7236 -13.7149 -13.7123 -13.7109 -13.7090 -13.6910 -13.6885
   -13.6851 -13.6835 -13.6725 -13.6704  -5.5167  -5.2226  -5.1732  -4.8613
    -0.3992   0.0600   0.9640   1.3219   3.5768   4.4620   5.2270   5.6071
     5.6792   6.0214   6.0557   6.0788   6.4842   7.0246   7.2571   7.4607
     8.5643   8.8745   9.3140   9.3380   9.4435   9.7919  10.1728  10.8236
    10.8773  11.3256

          k = 0.4167 0.0000 0.0000 (  4093 PWs)   bands (ev):

   -13.7523 -13.7488 -13.7441 -13.7436 -13.7429 -13.7422 -13.7349 -13.7342
   -13.7252 -13.7237 -13.7144 -13.7118 -13.7111 -13.7091 -13.6909 -13.6887
   -13.6850 -13.6837 -13.6723 -13.6706  -5.4828  -5.1937  -5.1901  -4.8867
    -0.3954  -0.0105   0.9682   1.2686   3.6472   4.3961   5.2800   5.6523
     5.6649   6.0301   6.1010   6.1181   6.5017   7.0611   7.1941   7.4816
     8.5822   8.8890   9.3002   9.3303   9.3991   9.7054  10.1049  10.7578
    10.8190  11.2428

          k = 0.4333 0.0000 0.0000 (  4093 PWs)   bands (ev):

   -13.7520 -13.7491 -13.7439 -13.7436 -13.7431 -13.7423 -13.7349 -13.7344
   -13.7251 -13.7239 -13.7140 -13.7114 -13.7113 -13.7092 -13.6907 -13.6889
   -13.6849 -13.6838 -13.6721 -13.6708  -5.4493  -5.2160  -5.1575  -4.9133
    -0.3852  -0.0757   0.9772   1.2190   3.7197   4.3258   5.3320   5.6456
     5.6969   6.0016   6.1559   6.1748   6.5178   7.1077   7.1098   7.4964
     8.5982   8.9402   9.2210   9.2969   9.4355   9.6257  10.0598  10.6409
    10.8235  11.1662

          k = 0.4500 0.0000 0.0000 (  4093 PWs)   bands (ev):

   -13.7516 -13.7494 -13.7436 -13.7436 -13.7432 -13.7425 -13.7349 -13.7344
   -13.7249 -13.7240 -13.7135 -13.7115 -13.7111 -13.7094 -13.6905 -13.6892
   -13.6847 -13.6839 -13.6720 -13.6709  -5.4163  -5.2402  -5.1251  -4.9411
    -0.3685  -0.1355   0.9911   1.1733   3.7939   4.2525   5.3825   5.6210
     5.7406   5.9706   6.1917   6.2351   6.5413   7.0130   7.1681   7.4912
     8.6262   9.0130   9.1131   9.3040   9.4396   9.5535  10.0495  10.5272
    10.8369  11.0962

          k = 0.4667 0.0000 0.0000 (  4079 PWs)   bands (ev):

   -13.7512 -13.7498 -13.7436 -13.7434 -13.7434 -13.7427 -13.7348 -13.7345
   -13.7248 -13.7242 -13.7131 -13.7118 -13.7107 -13.7096 -13.6903 -13.6894
   -13.6846 -13.6840 -13.6718 -13.6711  -5.3840  -5.2661  -5.0930  -4.9698
    -0.3454  -0.1896   1.0098   1.1316   3.8694   4.1770   5.4308   5.5915
     5.7832   5.9372   6.2245   6.2720   6.5831   6.9159   7.2322   7.4644
     8.6730   9.0086   9.0964   9.3214   9.4073   9.4892  10.0783  10.4180
    10.8593  11.0332

          k = 0.4833 0.0000 0.0000 (  4077 PWs)   bands (ev):

   -13.7508 -13.7501 -13.7436 -13.7435 -13.7432 -13.7429 -13.7347 -13.7346
   -13.7246 -13.7243 -13.7128 -13.7121 -13.7104 -13.7098 -13.6901 -13.6896
   -13.6844 -13.6842 -13.6716 -13.6713  -5.3527  -5.2935  -5.0612  -4.9995
    -0.3158  -0.2378   1.0332   1.0943   3.9460   4.1003   5.4764   5.5572
     5.8243   5.9015   6.2528   6.2828   6.6475   6.8200   7.2984   7.4196
     8.7381   8.9095   9.1836   9.3466   9.3490   9.4333  10.1387  10.3148
    10.8904  10.9777

          k = 0.5000 0.0000 0.0000 (  4068 PWs)   bands (ev):

   -13.7504 -13.7504 -13.7435 -13.7435 -13.7430 -13.7430 -13.7347 -13.7347
   -13.7245 -13.7245 -13.7124 -13.7124 -13.7101 -13.7101 -13.6899 -13.6899
   -13.6843 -13.6843 -13.6714 -13.6714  -5.3225  -5.3225  -5.0300  -5.0300
    -0.2799  -0.2799   1.0615   1.0615   4.0231   4.0231   5.5187   5.5187
     5.8638   5.8638   6.2738   6.2738   6.7289   6.7289   7.3625   7.3625
     8.8183   8.8183   9.2691   9.2691   9.3865   9.3865  10.2201  10.2201
    10.9299  10.9299

          k = 0.5000 0.0182 0.0000 (  4076 PWs)   bands (ev):

   -13.7504 -13.7504 -13.7437 -13.7437 -13.7428 -13.7428 -13.7347 -13.7347
   -13.7245 -13.7245 -13.7124 -13.7124 -13.7101 -13.7101 -13.6898 -13.6898
   -13.6843 -13.6843 -13.6714 -13.6714  -5.3214  -5.3214  -5.0293  -5.0293
    -0.2781  -0.2781   1.0625   1.0625   4.0234   4.0234   5.4995   5.4995
     5.8380   5.8380   6.2728   6.2728   6.7501   6.7501   7.3607   7.3607
     8.8114   8.8114   9.2074   9.2074   9.4689   9.4689  10.2263  10.2263
    10.9442  10.9442

          k = 0.5000 0.0364 0.0000 (  4084 PWs)   bands (ev):

   -13.7503 -13.7503 -13.7440 -13.7440 -13.7425 -13.7425 -13.7349 -13.7349
   -13.7246 -13.7246 -13.7124 -13.7124 -13.7100 -13.7100 -13.6898 -13.6898
   -13.6844 -13.6844 -13.6715 -13.6715  -5.3182  -5.3182  -5.0269  -5.0269
    -0.2728  -0.2728   1.0655   1.0655   4.0241   4.0241   5.4438   5.4438
     5.7689   5.7689   6.2684   6.2684   6.8059   6.8059   7.3522   7.3522
     8.7962   8.7962   9.1305   9.1305   9.6046   9.6046  10.2468  10.2468
    10.9854  10.9854

          k = 0.5000 0.0546 0.0000 (  4080 PWs)   bands (ev):

   -13.7501 -13.7501 -13.7444 -13.7444 -13.7421 -13.7421 -13.7352 -13.7352
   -13.7248 -13.7248 -13.7123 -13.7123 -13.7099 -13.7099 -13.6896 -13.6896
   -13.6845 -13.6845 -13.6715 -13.6715  -5.3129  -5.3129  -5.0231  -5.0231
    -0.2639  -0.2639   1.0705   1.0705   4.0249   4.0249   5.3571   5.3571
     5.6725   5.6725   6.2587   6.2587   6.8800   6.8800   7.3292   7.3292
     8.7842   8.7842   9.0728   9.0728   9.7520   9.7520  10.2862  10.2862
    11.0489  11.0489

          k = 0.5000 0.0728 0.0000 (  4072 PWs)   bands (ev):

   -13.7499 -13.7499 -13.7446 -13.7446 -13.7417 -13.7417 -13.7355 -13.7355
   -13.7250 -13.7250 -13.7122 -13.7122 -13.7097 -13.7097 -13.6895 -13.6895
   -13.6846 -13.6846 -13.6715 -13.6715  -5.3055  -5.3055  -5.0177  -5.0177
    -0.2514  -0.2514   1.0774   1.0774   4.0256   4.0256   5.2464   5.2464
     5.5614   5.5614   6.2424   6.2424   6.9576   6.9576   7.2845   7.2845
     8.7803   8.7803   9.0433   9.0433   9.9001   9.9001  10.3506  10.3506
    11.1290  11.1290

          k = 0.5000 0.0910 0.0000 (  4070 PWs)   bands (ev):

   -13.7496 -13.7496 -13.7449 -13.7449 -13.7413 -13.7413 -13.7360 -13.7360
   -13.7252 -13.7252 -13.7122 -13.7122 -13.7095 -13.7095 -13.6893 -13.6893
   -13.6848 -13.6848 -13.6715 -13.6715  -5.2961  -5.2961  -5.0109  -5.0109
    -0.2355  -0.2355   1.0861   1.0861   4.0253   4.0253   5.1190   5.1190
     5.4433   5.4433   6.2187   6.2187   7.0273   7.0273   7.2159   7.2159
     8.7754   8.7754   9.0585   9.0585  10.0414  10.0414  10.4451  10.4451
    11.2206  11.2206

          k = 0.5000 0.1092 0.0000 (  4074 PWs)   bands (ev):

   -13.7494 -13.7494 -13.7450 -13.7450 -13.7408 -13.7408 -13.7365 -13.7365
   -13.7255 -13.7255 -13.7121 -13.7121 -13.7092 -13.7092 -13.6890 -13.6890
   -13.6851 -13.6851 -13.6716 -13.6716  -5.2848  -5.2848  -5.0028  -5.0028
    -0.2161  -0.2161   1.0963   1.0963   4.0232   4.0232   4.9812   4.9812
     5.3231   5.3231   6.1865   6.1865   7.0802   7.0802   7.1275   7.1275
     8.7614   8.7614   9.1279   9.1279  10.1732  10.1732  10.5697  10.5697
    11.3193  11.3193

          k = 0.5000 0.1274 0.0000 (  4078 PWs)   bands (ev):

   -13.7493 -13.7493 -13.7450 -13.7450 -13.7404 -13.7404 -13.7371 -13.7371
   -13.7258 -13.7258 -13.7120 -13.7120 -13.7089 -13.7089 -13.6888 -13.6888
   -13.6853 -13.6853 -13.6716 -13.6716  -5.2715  -5.2715  -4.9934  -4.9934
    -0.1934  -0.1934   1.1079   1.1079   4.0180   4.0180   4.8381   4.8381
     5.2047   5.2047   6.1440   6.1440   7.0219   7.0219   7.1151   7.1151
     8.7459   8.7459   9.2417   9.2417  10.2994  10.2994  10.7178  10.7178
    11.4216  11.4216

          k = 0.5000 0.1456 0.0000 (  4074 PWs)   bands (ev):

   -13.7494 -13.7494 -13.7448 -13.7448 -13.7400 -13.7400 -13.7377 -13.7377
   -13.7260 -13.7260 -13.7120 -13.7120 -13.7086 -13.7086 -13.6885 -13.6885
   -13.6856 -13.6856 -13.6716 -13.6716  -5.2564  -5.2564  -4.9828  -4.9828
    -0.1674  -0.1674   1.1206   1.1206   4.0077   4.0077   4.6934   4.6934
     5.0912   5.0912   6.0895   6.0895   6.9121   6.9121   7.1235   7.1235
     8.7391   8.7391   9.3858   9.3858  10.4264  10.4264  10.8802  10.8802
    11.5248  11.5248

          k = 0.5000 0.1638 0.0000 (  4076 PWs)   bands (ev):

   -13.7496 -13.7496 -13.7444 -13.7444 -13.7398 -13.7398 -13.7381 -13.7381
   -13.7263 -13.7263 -13.7120 -13.7120 -13.7083 -13.7083 -13.6882 -13.6882
   -13.6859 -13.6859 -13.6717 -13.6717  -5.2397  -5.2397  -4.9711  -4.9711
    -0.1381  -0.1381   1.1342   1.1342   3.9898   3.9898   4.5508   4.5508
     4.9859   4.9859   6.0216   6.0216   6.8010   6.8010   7.1087   7.1087
     8.7460   8.7460   9.5501   9.5501  10.5586  10.5586  11.0487  11.0487
    11.6271  11.6271

          k = 0.5000 0.1820 0.0000 (  4072 PWs)   bands (ev):

   -13.7500 -13.7500 -13.7438 -13.7438 -13.7401 -13.7401 -13.7381 -13.7381
   -13.7265 -13.7265 -13.7120 -13.7120 -13.7079 -13.7079 -13.6880 -13.6880
   -13.6861 -13.6861 -13.6717 -13.6717  -5.2213  -5.2213  -4.9585  -4.9585
    -0.1057  -0.1057   1.1482   1.1482   3.9611   3.9611   4.4132   4.4132
     4.8918   4.8918   5.9395   5.9395   6.6926   6.6926   7.0736   7.0736
     8.7676   8.7676   9.7272   9.7272  10.6982  10.6982  11.2175  11.2175
    11.7271  11.7271

          k = 0.5000 0.2002 0.0000 (  4080 PWs)   bands (ev):

   -13.7505 -13.7505 -13.7432 -13.7432 -13.7407 -13.7407 -13.7377 -13.7377
   -13.7267 -13.7267 -13.7120 -13.7120 -13.7076 -13.7076 -13.6879 -13.6879
   -13.6861 -13.6861 -13.6717 -13.6717  -5.2015  -5.2015  -4.9452  -4.9452
    -0.0704  -0.0704   1.1623   1.1623   3.9180   3.9180   4.2843   4.2843
     4.8111   4.8111   5.8442   5.8442   6.5880   6.5880   7.0234   7.0234
     8.8024   8.8024   9.9116   9.9116  10.8452  10.8452  11.3817  11.3817
    11.8242  11.8242

          k = 0.5000 0.2184 0.0000 (  4088 PWs)   bands (ev):

   -13.7511 -13.7511 -13.7429 -13.7429 -13.7412 -13.7412 -13.7372 -13.7372
   -13.7268 -13.7268 -13.7121 -13.7121 -13.7072 -13.7072 -13.6881 -13.6881
   -13.6860 -13.6860 -13.6717 -13.6717  -5.1804  -5.1804  -4.9312  -4.9312
    -0.0322  -0.0322   1.1760   1.1760   3.8573   3.8573   4.1675   4.1675
     4.7449   4.7449   5.7385   5.7385   6.4861   6.4861   6.9639   6.9639
     8.8480   8.8480  10.0984  10.0984  10.9989  10.9989  11.5364  11.5364
    11.9183  11.9183

          k = 0.5000 0.2366 0.0000 (  4088 PWs)   bands (ev):

   -13.7517 -13.7517 -13.7432 -13.7432 -13.7409 -13.7409 -13.7366 -13.7366
   -13.7269 -13.7269 -13.7122 -13.7122 -13.7068 -13.7068 -13.6884 -13.6884
   -13.6856 -13.6856 -13.6717 -13.6717  -5.1582  -5.1582  -4.9168  -4.9168
     0.0087   0.0087   1.1887   1.1887   3.7785   3.7785   4.0650   4.0650
     4.6926   4.6926   5.6264   5.6264   6.3843   6.3843   6.9004   6.9004
     8.9021   8.9021  10.2832  10.2832  11.1578  11.1578  11.6760  11.6760
    12.0096  12.0096

          k = 0.5000 0.2548 0.0000 (  4084 PWs)   bands (ev):

   -13.7523 -13.7523 -13.7440 -13.7440 -13.7402 -13.7402 -13.7360 -13.7360
   -13.7269 -13.7269 -13.7124 -13.7124 -13.7065 -13.7065 -13.6888 -13.6888
   -13.6852 -13.6852 -13.6718 -13.6718  -5.1349  -5.1349  -4.9022  -4.9022
     0.0521   0.0521   1.2000   1.2000   3.6853   3.6853   3.9759   3.9759
     4.6511   4.6511   5.5127   5.5127   6.2804   6.2804   6.8372   6.8372
     8.9626   8.9626  10.4614  10.4614  11.3204  11.3204  11.7949  11.7949
    12.0963  12.0963

          k = 0.5000 0.2730 0.0000 (  4094 PWs)   bands (ev):

   -13.7530 -13.7530 -13.7450 -13.7450 -13.7395 -13.7395 -13.7354 -13.7354
   -13.7269 -13.7269 -13.7126 -13.7126 -13.7061 -13.7061 -13.6893 -13.6893
   -13.6847 -13.6847 -13.6718 -13.6718  -5.1109  -5.1109  -4.8875  -4.8875
     0.0978   0.0978   1.2093   1.2093   3.5846   3.5846   3.8973   3.8973
     4.6156   4.6156   5.4029   5.4029   6.1733   6.1733   6.7766   6.7766
     9.0282   9.0282  10.6278  10.6278  11.4847  11.4847  11.8900  11.8900
    12.1709  12.1709

          k = 0.5000 0.2912 0.0000 (  4086 PWs)   bands (ev):

   -13.7537 -13.7537 -13.7459 -13.7459 -13.7387 -13.7387 -13.7347 -13.7347
   -13.7268 -13.7268 -13.7129 -13.7129 -13.7057 -13.7057 -13.6898 -13.6898
   -13.6841 -13.6841 -13.6718 -13.6718  -5.0863  -5.0863  -4.8730  -4.8730
     0.1456   0.1456   1.2159   1.2159   3.4823   3.4823   3.8269   3.8269
     4.5804   4.5804   5.3023   5.3023   6.0628   6.0628   6.7197   6.7197
     9.0977   9.0977  10.7767  10.7767  11.6490  11.6490  11.9622  11.9622
    12.2213  12.2213

          k = 0.5000 0.3094 0.0000 (  4092 PWs)   bands (ev):

   -13.7544 -13.7544 -13.7468 -13.7468 -13.7380 -13.7380 -13.7340 -13.7340
   -13.7267 -13.7267 -13.7132 -13.7132 -13.7053 -13.7053 -13.6902 -13.6902
   -13.6836 -13.6836 -13.6718 -13.6718  -5.0613  -5.0613  -4.8589  -4.8589
     0.1952   0.1952   1.2194   1.2194   3.3827   3.3827   3.7639   3.7639
     4.5396   4.5396   5.2163   5.2163   5.9502   5.9502   6.6667   6.6667
     9.1705   9.1705  10.9019  10.9019  11.8107  11.8107  12.0154  12.0154
    12.2442  12.2442

          k = 0.5000 0.3276 0.0000 (  4096 PWs)   bands (ev):

   -13.7551 -13.7551 -13.7478 -13.7478 -13.7374 -13.7374 -13.7333 -13.7333
   -13.7266 -13.7266 -13.7135 -13.7135 -13.7049 -13.7049 -13.6907 -13.6907
   -13.6830 -13.6830 -13.6719 -13.6719  -5.0361  -5.0361  -4.8453  -4.8453
     0.2464   0.2464   1.2191   1.2191   3.2884   3.2884   3.7082   3.7082
     4.4888   4.4888   5.1483   5.1483   5.8375   5.8375   6.6169   6.6169
     9.2462   9.2462  10.9976  10.9976  11.9642  11.9642  12.0552  12.0552
    12.2535  12.2535

          k = 0.5000 0.3458 0.0000 (  4088 PWs)   bands (ev):

   -13.7557 -13.7557 -13.7487 -13.7487 -13.7369 -13.7369 -13.7325 -13.7325
   -13.7264 -13.7264 -13.7138 -13.7138 -13.7045 -13.7045 -13.6912 -13.6912
   -13.6824 -13.6824 -13.6719 -13.6719  -5.0110  -5.0110  -4.8326  -4.8326
     0.2987   0.2987   1.2147   1.2147   3.2012   3.2012   3.6599   3.6599
     4.4270   4.4270   5.0985   5.0985   5.7276   5.7276   6.5698   6.5698
     9.3244   9.3244  11.0593  11.0593  12.0587  12.0587  12.1256  12.1256
    12.2717  12.2717

          k = 0.5000 0.3640 0.0000 (  4102 PWs)   bands (ev):

   -13.7563 -13.7563 -13.7495 -13.7495 -13.7364 -13.7364 -13.7317 -13.7317
   -13.7262 -13.7262 -13.7142 -13.7142 -13.7042 -13.7042 -13.6917 -13.6917
   -13.6819 -13.6819 -13.6720 -13.6720  -4.9861  -4.9861  -4.8210  -4.8210
     0.3520   0.3520   1.2058   1.2058   3.1221   3.1221   3.6185   3.6185
     4.3568   4.3568   5.0626   5.0626   5.6239   5.6239   6.5250   6.5250
     9.4050   9.4050  11.0860  11.0860  12.0751  12.0751  12.2168  12.2168
    12.3371  12.3371

          k = 0.5000 0.3822 0.0000 (  4106 PWs)   bands (ev):

   -13.7569 -13.7569 -13.7503 -13.7503 -13.7361 -13.7361 -13.7309 -13.7309
   -13.7260 -13.7260 -13.7146 -13.7146 -13.7038 -13.7038 -13.6921 -13.6921
   -13.6813 -13.6813 -13.6721 -13.6721  -4.9618  -4.9618  -4.8106  -4.8106
     0.4058   0.4058   1.1923   1.1923   3.0519   3.0519   3.5834   3.5834
     4.2836   4.2836   5.0326   5.0326   5.5315   5.5315   6.4821   6.4821
     9.4877   9.4877  11.0804  11.0804  12.0805  12.0805  12.2577  12.2577
    12.4550  12.4550

          k = 0.5000 0.4004 0.0000 (  4102 PWs)   bands (ev):

   -13.7575 -13.7575 -13.7510 -13.7510 -13.7357 -13.7357 -13.7302 -13.7302
   -13.7257 -13.7257 -13.7150 -13.7150 -13.7035 -13.7035 -13.6925 -13.6925
   -13.6807 -13.6807 -13.6722 -13.6722  -4.9382  -4.9382  -4.8016  -4.8016
     0.4599   0.4599   1.1743   1.1743   2.9911   2.9911   3.5530   3.5530
     4.2133   4.2133   4.9993   4.9993   5.4564   5.4564   6.4409   6.4409
     9.5723   9.5723  11.0481  11.0481  12.0840  12.0840  12.2832  12.2832
    12.5782  12.5782

          k = 0.5000 0.4186 0.0000 (  4094 PWs)   bands (ev):

   -13.7579 -13.7579 -13.7517 -13.7517 -13.7354 -13.7354 -13.7295 -13.7295
   -13.7254 -13.7254 -13.7154 -13.7154 -13.7032 -13.7032 -13.6929 -13.6929
   -13.6802 -13.6802 -13.6723 -13.6723  -4.9157  -4.9157  -4.7944  -4.7944
     0.5137   0.5137   1.1520   1.1520   2.9399   2.9399   3.5252   3.5252
     4.1515   4.1515   4.9550   4.9550   5.4039   5.4039   6.4018   6.4018
     9.6585   9.6585  10.9956  10.9956  12.0887  12.0887  12.3011  12.3011
    12.6917  12.6917

          k = 0.5000 0.4368 0.0000 (  4094 PWs)   bands (ev):

   -13.7584 -13.7584 -13.7523 -13.7523 -13.7352 -13.7352 -13.7288 -13.7288
   -13.7251 -13.7251 -13.7159 -13.7159 -13.7029 -13.7029 -13.6932 -13.6932
   -13.6796 -13.6796 -13.6725 -13.6725  -4.8943  -4.8943  -4.7889  -4.7889
     0.5669   0.5669   1.1257   1.1257   2.8981   2.8981   3.4982   3.4982
     4.1025   4.1025   4.8972   4.8972   5.3748   5.3748   6.3652   6.3652
     9.7460   9.7460  10.9287  10.9287  12.0955  12.0955  12.3115  12.3115
    12.7917  12.7917

          k = 0.5000 0.4550 0.0000 (  4094 PWs)   bands (ev):

   -13.7588 -13.7588 -13.7528 -13.7528 -13.7350 -13.7350 -13.7283 -13.7283
   -13.7248 -13.7248 -13.7163 -13.7163 -13.7026 -13.7026 -13.6935 -13.6935
   -13.6792 -13.6792 -13.6726 -13.6726  -4.8744  -4.8744  -4.7855  -4.7855
     0.6190   0.6190   1.0959   1.0959   2.8654   2.8654   3.4705   3.4705
     4.0689   4.0689   4.8301   4.8301   5.3640   5.3640   6.3316   6.3316
     9.8342   9.8342  10.8524  10.8524  12.1047  12.1047  12.3143  12.3143
    12.8766  12.8766

          k = 0.5000 0.4732 0.0000 (  4098 PWs)   bands (ev):

   -13.7591 -13.7591 -13.7532 -13.7532 -13.7349 -13.7349 -13.7279 -13.7279
   -13.7245 -13.7245 -13.7166 -13.7166 -13.7024 -13.7024 -13.6937 -13.6937
   -13.6787 -13.6787 -13.6728 -13.6728  -4.8561  -4.8561  -4.7842  -4.7842
     0.6694   0.6694   1.0634   1.0634   2.8410   2.8410   3.4424   3.4424
     4.0509   4.0509   4.7609   4.7609   5.3646   5.3646   6.3020   6.3020
     9.9221   9.9221  10.7709  10.7709  12.1160  12.1160  12.3106  12.3106
    12.9460  12.9460

          k = 0.5000 0.4914 0.0000 (  4080 PWs)   bands (ev):

   -13.7593 -13.7593 -13.7535 -13.7535 -13.7347 -13.7347 -13.7276 -13.7276
   -13.7242 -13.7242 -13.7169 -13.7169 -13.7023 -13.7023 -13.6939 -13.6939
   -13.6783 -13.6783 -13.6729 -13.6729  -4.8397  -4.8397  -4.7850  -4.7850
     0.7173   0.7173   1.0293   1.0293   2.8240   2.8240   3.4158   3.4158
     4.0461   4.0461   4.6966   4.6966   5.3705   5.3705   6.2773   6.2773
    10.0078  10.0078  10.6884  10.6884  12.1286  12.1286  12.3022  12.3022
    12.9997  12.9997

          k = 0.5000 0.5096 0.0000 (  4068 PWs)   bands (ev):

   -13.7595 -13.7595 -13.7538 -13.7538 -13.7346 -13.7346 -13.7275 -13.7275
   -13.7239 -13.7239 -13.7172 -13.7172 -13.7021 -13.7021 -13.6940 -13.6940
   -13.6780 -13.6780 -13.6730 -13.6730  -4.8254  -4.8254  -4.7881  -4.7881
     0.7607   0.7607   0.9955   0.9955   2.8131   2.8131   3.3937   3.3937
     4.0496   4.0496   4.6435   4.6435   5.3775   5.3775   6.2587   6.2587
    10.0871  10.0871  10.6104  10.6104  12.1409  12.1409  12.2920  12.2920
    13.0379  13.0379

          k = 0.5000 0.5278 0.0000 (  4066 PWs)   bands (ev):

   -13.7596 -13.7596 -13.7539 -13.7539 -13.7346 -13.7346 -13.7273 -13.7273
   -13.7238 -13.7238 -13.7173 -13.7173 -13.7020 -13.7020 -13.6941 -13.6941
   -13.6779 -13.6779 -13.6731 -13.6731  -4.8135  -4.8135  -4.7931  -4.7931
     0.7951   0.7951   0.9668   0.9668   2.8072   2.8072   3.3789   3.3789
     4.0554   4.0554   4.6081   4.6081   5.3828   5.3828   6.2470   6.2470
    10.1502  10.1502  10.5477  10.5477  12.1505  12.1505  12.2832  12.2832
    13.0608  13.0608

          k = 0.5000 0.5460 0.0000 (  4060 PWs)   bands (ev):

   -13.7596 -13.7596 -13.7539 -13.7539 -13.7346 -13.7346 -13.7273 -13.7273
   -13.7237 -13.7237 -13.7174 -13.7174 -13.7020 -13.7020 -13.6942 -13.6942
   -13.6778 -13.6778 -13.6731 -13.6731  -4.8069  -4.8069  -4.7974  -4.7974
     0.8097   0.8097   0.9542   0.9542   2.8054   2.8054   3.3737   3.3737
     4.0581   4.0581   4.5956   4.5956   5.3847   5.3847   6.2430   6.2430
    10.1764  10.1764  10.5216  10.5216  12.1542  12.1542  12.2796  12.2796
    13.0684  13.0684

          k = 0.4833 0.5460 0.0000 (  4064 PWs)   bands (ev):

   -13.7596 -13.7596 -13.7539 -13.7539 -13.7346 -13.7346 -13.7273 -13.7273
   -13.7237 -13.7237 -13.7174 -13.7174 -13.7020 -13.7020 -13.6942 -13.6942
   -13.6778 -13.6778 -13.6731 -13.6731  -4.8077  -4.8077  -4.7978  -4.7978
     0.8058   0.8058   0.9539   0.9539   2.8090   2.8090   3.3790   3.3790
     4.0581   4.0581   4.6031   4.6031   5.3828   5.3828   6.2462   6.2462
    10.1572  10.1572  10.5376  10.5376  12.1493  12.1493  12.2792  12.2792
    13.0574  13.0574

          k = 0.4667 0.5460 0.0000 (  4076 PWs)   bands (ev):

   -13.7596 -13.7596 -13.7539 -13.7539 -13.7346 -13.7346 -13.7273 -13.7273
   -13.7237 -13.7237 -13.7174 -13.7174 -13.7021 -13.7021 -13.6942 -13.6942
   -13.6778 -13.6778 -13.6732 -13.6732  -4.8099  -4.8099  -4.7988  -4.7988
     0.7945   0.7945   0.9531   0.9531   2.8200   2.8200   3.3944   3.3944
     4.0586   4.0586   4.6251   4.6251   5.3772   5.3772   6.2555   6.2555
    10.1076  10.1076  10.5778  10.5778  12.1352  12.1352  12.2768  12.2768
    13.0247  13.0247

          k = 0.4500 0.5460 0.0000 (  4078 PWs)   bands (ev):

   -13.7594 -13.7594 -13.7538 -13.7538 -13.7346 -13.7346 -13.7274 -13.7274
   -13.7238 -13.7238 -13.7174 -13.7174 -13.7021 -13.7021 -13.6943 -13.6943
   -13.6778 -13.6778 -13.6732 -13.6732  -4.8135  -4.8135  -4.8007  -4.8007
     0.7764   0.7764   0.9511   0.9511   2.8383   2.8383   3.4195   3.4195
     4.0608   4.0608   4.6602   4.6602   5.3684   5.3684   6.2706   6.2706
    10.0400  10.0400  10.6293  10.6293  12.1129  12.1129  12.2703  12.2703
    12.9718  12.9718

          k = 0.4333 0.5460 0.0000 (  4088 PWs)   bands (ev):

   -13.7593 -13.7593 -13.7537 -13.7537 -13.7346 -13.7346 -13.7274 -13.7274
   -13.7238 -13.7238 -13.7175 -13.7175 -13.7022 -13.7022 -13.6944 -13.6944
   -13.6778 -13.6778 -13.6732 -13.6732  -4.8183  -4.8183  -4.8035  -4.8035
     0.7527   0.7527   0.9476   0.9476   2.8638   2.8638   3.4534   3.4534
     4.0666   4.0666   4.7066   4.7066   5.3575   5.3575   6.2909   6.2909
     9.9619   9.9619  10.6842  10.6842  12.0830  12.0830  12.2571  12.2571
    12.9009  12.9009

          k = 0.4167 0.5460 0.0000 (  4100 PWs)   bands (ev):

   -13.7591 -13.7591 -13.7535 -13.7535 -13.7345 -13.7345 -13.7274 -13.7274
   -13.7238 -13.7238 -13.7175 -13.7175 -13.7023 -13.7023 -13.6945 -13.6945
   -13.6778 -13.6778 -13.6732 -13.6732  -4.8242  -4.8242  -4.8072  -4.8072
     0.7243   0.7243   0.9422   0.9422   2.8966   2.8966   3.4947   3.4947
     4.0776   4.0776   4.7623   4.7623   5.3455   5.3455   6.3158   6.3158
     9.8769   9.8769  10.7379  10.7379  12.0454  12.0454  12.2349  12.2349
    12.8151  12.8151

          k = 0.4000 0.5460 0.0000 (  4096 PWs)   bands (ev):

   -13.7588 -13.7588 -13.7534 -13.7534 -13.7345 -13.7345 -13.7275 -13.7275
   -13.7239 -13.7239 -13.7175 -13.7175 -13.7024 -13.7024 -13.6946 -13.6946
   -13.6777 -13.6777 -13.6732 -13.6732  -4.8311  -4.8311  -4.8118  -4.8118
     0.6920   0.6920   0.9349   0.9349   2.9365   2.9365   3.5420   3.5420
     4.0956   4.0956   4.8251   4.8251   5.3341   5.3341   6.3446   6.3446
     9.7869   9.7869  10.7874  10.7874  11.9996  11.9996  12.2017  12.2017
    12.7184  12.7184

          k = 0.3833 0.5460 0.0000 (  4100 PWs)   bands (ev):

   -13.7585 -13.7585 -13.7531 -13.7531 -13.7345 -13.7345 -13.7275 -13.7275
   -13.7239 -13.7239 -13.7176 -13.7176 -13.7025 -13.7025 -13.6948 -13.6948
   -13.6777 -13.6777 -13.6733 -13.6733  -4.8389  -4.8389  -4.8172  -4.8172
     0.6567   0.6567   0.9255   0.9255   2.9835   2.9835   3.5938   3.5938
     4.1219   4.1219   4.8927   4.8927   5.3252   5.3252   6.3766   6.3766
     9.6928   9.6928  10.8298  10.8298  11.9458  11.9458  12.1555  12.1555
[...]
     8.6649   8.6649   8.8314   8.8314   9.4672   9.4672  10.2606  10.2606
    10.8975  10.8975

          k = 0.0167 0.5460 0.0000 (  4140 PWs)   bands (ev):

   -13.7504 -13.7504 -13.7473 -13.7473 -13.7338 -13.7338 -13.7303 -13.7303
   -13.7249 -13.7249 -13.7201 -13.7201 -13.7037 -13.7037 -13.6997 -13.6997
   -13.6762 -13.6762 -13.6744 -13.6744  -5.0193  -5.0193  -4.9664  -4.9664
     0.0335   0.0335   0.6326   0.6326   4.1658   4.1658   5.2808   5.2808
     5.3508   5.3508   5.8957   5.8957   6.6050   6.6050   6.6431   6.6431
     8.6797   8.6797   8.8247   8.8247   9.4259   9.4259  10.1982  10.1982
    10.8802  10.8802

          k = 0.0000 0.5460 0.0000 (  4146 PWs)   bands (ev):

   -13.7504 -13.7504 -13.7473 -13.7473 -13.7338 -13.7338 -13.7303 -13.7303
   -13.7249 -13.7249 -13.7201 -13.7201 -13.7037 -13.7037 -13.6997 -13.6997
   -13.6762 -13.6762 -13.6744 -13.6744  -5.0198  -5.0198  -4.9669  -4.9669
     0.0320   0.0320   0.6317   0.6317   4.1665   4.1665   5.3047   5.3047
     5.3603   5.3603   5.8783   5.8783   6.6130   6.6130   6.6424   6.6424
     8.6814   8.6814   8.8264   8.8264   9.4124   9.4124  10.1760  10.1760
    10.8746  10.8746

          k = 0.0000 0.5278 0.0000 (  4138 PWs)   bands (ev):

   -13.7506 -13.7502 -13.7475 -13.7471 -13.7341 -13.7336 -13.7305 -13.7301
   -13.7253 -13.7246 -13.7210 -13.7192 -13.7046 -13.7029 -13.7002 -13.6992
   -13.6768 -13.6756 -13.6747 -13.6741  -5.0648  -4.9893  -4.9765  -4.9470
    -0.0072   0.0785   0.6008   0.6686   4.0891   4.2416   5.2806   5.3018
     5.3225   5.4183   5.7902   5.9606   6.6094   6.6151   6.6266   6.6628
     8.6804   8.6983   8.7517   8.8951   9.3953   9.4380  10.1334  10.2288
    10.8414  10.9235

          k = 0.0000 0.5096 0.0000 (  4134 PWs)   bands (ev):

   -13.7507 -13.7499 -13.7476 -13.7468 -13.7344 -13.7334 -13.7308 -13.7300
   -13.7256 -13.7243 -13.7219 -13.7184 -13.7054 -13.7020 -13.7007 -13.6988
   -13.6774 -13.6750 -13.6750 -13.6739  -5.1111  -5.0141  -4.9352  -4.9300
    -0.0391   0.1321   0.5764   0.7112   4.0104   4.3132   5.2441   5.2511
     5.3337   5.4751   5.7002   6.0317   6.5815   6.6212   6.6462   6.6765
     8.6727   8.6959   8.7301   8.9555   9.3876   9.4717  10.1020  10.2908
    10.8262  10.9858

          k = 0.0000 0.4914 0.0000 (  4142 PWs)   bands (ev):

   -13.7507 -13.7495 -13.7476 -13.7465 -13.7348 -13.7333 -13.7311 -13.7299
   -13.7261 -13.7240 -13.7227 -13.7175 -13.7062 -13.7012 -13.7010 -13.6983
   -13.6781 -13.6754 -13.6745 -13.6737  -5.1586  -5.0411  -4.9158  -4.8959
    -0.0638   0.1927   0.5586   0.7592   3.9312   4.3797   5.1883   5.2169
     5.3380   5.5299   5.6105   6.0855   6.5424   6.6543   6.6692   6.6841
     8.5911   8.7279   8.7752   9.0047   9.3900   9.5141  10.0827  10.3607
    10.8305  11.0593

          k = 0.0000 0.4732 0.0000 (  4126 PWs)   bands (ev):

   -13.7507 -13.7491 -13.7476 -13.7462 -13.7353 -13.7332 -13.7314 -13.7297
   -13.7265 -13.7237 -13.7236 -13.7167 -13.7070 -13.7016 -13.7001 -13.6978
   -13.6787 -13.6758 -13.6740 -13.6735  -5.2069  -5.0701  -4.9044  -4.8591
    -0.0814   0.2600   0.5475   0.8120   3.8522   4.4392   5.1359   5.1790
     5.3354   5.5226   5.5819   6.1182   6.4989   6.6869   6.6938   6.7120
     8.5083   8.7757   8.8319   9.0402   9.4033   9.5663  10.0763  10.4376
    10.8553  11.1420

          k = 0.0000 0.4550 0.0000 (  4126 PWs)   bands (ev):

   -13.7506 -13.7486 -13.7476 -13.7459 -13.7358 -13.7332 -13.7318 -13.7297
   -13.7270 -13.7244 -13.7235 -13.7160 -13.7078 -13.7021 -13.6991 -13.6972
   -13.6794 -13.6762 -13.6736 -13.6734  -5.2557  -5.1008  -4.8960  -4.8247
    -0.0922   0.3339   0.5434   0.8691   3.7742   4.4894   5.0888   5.1384
     5.3261   5.4373   5.6306   6.1311   6.4524   6.6866   6.7188   6.7920
     8.4258   8.8385   8.8985   9.0601   9.4278   9.6296  10.0836  10.5201
    10.9005  11.2320

          k = 0.0000 0.4368 0.0000 (  4122 PWs)   bands (ev):

   -13.7504 -13.7480 -13.7475 -13.7456 -13.7363 -13.7333 -13.7323 -13.7297
   -13.7274 -13.7252 -13.7233 -13.7152 -13.7086 -13.7026 -13.6982 -13.6967
   -13.6801 -13.6766 -13.6733 -13.6731  -5.3049  -5.1328  -4.8905  -4.7930
    -0.0963   0.4140   0.5463   0.9301   3.6975   4.5275   5.0491   5.0962
     5.3107   5.3551   5.6755   6.1288   6.4040   6.6850   6.7431   6.8885
     8.3457   8.9148   8.9734   9.0645   9.4634   9.7041  10.1049  10.6068
    10.9647  11.3278

          k = 0.0000 0.4186 0.0000 (  4122 PWs)   bands (ev):

   -13.7502 -13.7475 -13.7473 -13.7453 -13.7368 -13.7334 -13.7328 -13.7298
   -13.7278 -13.7259 -13.7231 -13.7145 -13.7094 -13.7030 -13.6972 -13.6962
   -13.6808 -13.6770 -13.6732 -13.6727  -5.3540  -5.1660  -4.8877  -4.7641
    -0.0942   0.5000   0.5560   0.9943   3.6227   4.5509   5.0189   5.0535
     5.2761   5.2898   5.7161   6.1161   6.3548   6.6842   6.7663   6.9944
     8.2704   9.0032   9.0550   9.0553   9.5100   9.7889  10.1405  10.6963
    11.0462  11.4279

          k = 0.0000 0.4004 0.0000 (  4122 PWs)   bands (ev):

   -13.7500 -13.7471 -13.7468 -13.7450 -13.7374 -13.7336 -13.7333 -13.7302
   -13.7280 -13.7266 -13.7229 -13.7139 -13.7102 -13.7035 -13.6962 -13.6957
   -13.6815 -13.6775 -13.6732 -13.6723  -5.4028  -5.1999  -4.8876  -4.7380
    -0.0864   0.5725   0.5914   1.0612   3.5501   4.5582   4.9991   5.0113
     5.2005   5.2641   5.7524   6.0964   6.3058   6.6859   6.7878   7.1027
     8.2040   9.0351   9.1022   9.1423   9.5669   9.8825  10.1899  10.7869
    11.1428  11.5309

          k = 0.0000 0.3822 0.0000 (  4112 PWs)   bands (ev):

   -13.7496 -13.7469 -13.7461 -13.7448 -13.7378 -13.7339 -13.7338 -13.7308
   -13.7280 -13.7271 -13.7227 -13.7132 -13.7110 -13.7040 -13.6951 -13.6951
   -13.6822 -13.6780 -13.6732 -13.6720  -5.4511  -5.2344  -4.8899  -4.7147
    -0.0732   0.5956   0.6879   1.1300   3.4803   4.5505   4.9706   4.9882
     5.1282   5.2344   5.7842   6.0720   6.2579   6.6917   6.8072   7.2051
     8.1524   9.0066   9.2105   9.2342   9.6333   9.9829  10.2527  10.8766
    11.2523  11.6354

          k = 0.0000 0.3640 0.0000 (  4106 PWs)   bands (ev):

   -13.7493 -13.7466 -13.7454 -13.7449 -13.7381 -13.7345 -13.7341 -13.7315
   -13.7278 -13.7276 -13.7226 -13.7127 -13.7117 -13.7044 -13.6946 -13.6941
   -13.6829 -13.6784 -13.6732 -13.6717  -5.4986  -5.2692  -4.8944  -4.6942
    -0.0552   0.6249   0.7889   1.2001   3.4135   4.5310   4.9320   4.9827
     5.0594   5.2016   5.8116   6.0443   6.2118   6.7026   6.8245   7.2909
     8.1253   8.9722   9.3267   9.3301   9.7083  10.0885  10.3276  10.9630
    11.3726  11.7402

          k = 0.0000 0.3458 0.0000 (  4108 PWs)   bands (ev):

   -13.7489 -13.7463 -13.7452 -13.7447 -13.7383 -13.7351 -13.7344 -13.7323
   -13.7280 -13.7277 -13.7224 -13.7125 -13.7121 -13.7049 -13.6941 -13.6931
   -13.6836 -13.6789 -13.6733 -13.6714  -5.5451  -5.3039  -4.9009  -4.6763
    -0.0331   0.6600   0.8940   1.2708   3.3501   4.5038   4.8961   4.9787
     4.9943   5.1664   5.8349   6.0140   6.1680   6.7191   6.8393   7.3472
     8.1346   8.9338   9.4293   9.4497   9.7909  10.1974  10.4132  11.0435
    11.5018  11.8437

          k = 0.0000 0.3276 0.0000 (  4104 PWs)   bands (ev):

   -13.7485 -13.7459 -13.7457 -13.7439 -13.7382 -13.7357 -13.7348 -13.7332
   -13.7284 -13.7274 -13.7223 -13.7132 -13.7116 -13.7053 -13.6935 -13.6921
   -13.6843 -13.6793 -13.6734 -13.6711  -5.5904  -5.3383  -4.9092  -4.6611
    -0.0075   0.7005   1.0027   1.3413   3.2903   4.4726   4.8627   4.9335
     4.9731   5.1297   5.8543   5.9819   6.1271   6.7413   6.8517   7.3658
     8.1881   8.8931   9.5314   9.5781   9.8797  10.3076  10.5076  11.1153
    11.6384  11.9445

          k = 0.0000 0.3094 0.0000 (  4106 PWs)   bands (ev):

   -13.7481 -13.7464 -13.7455 -13.7431 -13.7380 -13.7364 -13.7352 -13.7342
   -13.7286 -13.7271 -13.7222 -13.7140 -13.7112 -13.7058 -13.6930 -13.6911
   -13.6850 -13.6798 -13.6735 -13.6708  -5.6343  -5.3722  -4.9189  -4.6483
     0.0211   0.7458   1.1144   1.4109   3.2346   4.4399   4.8298   4.8798
     4.9639   5.0921   5.8703   5.9483   6.0894   6.7686   6.8617   7.3496
     8.2826   8.8510   9.6356   9.7109   9.9735  10.4168  10.6084  11.1757
    11.7808  12.0318

          k = 0.0000 0.2912 0.0000 (  4102 PWs)   bands (ev):

   -13.7477 -13.7473 -13.7452 -13.7424 -13.7376 -13.7370 -13.7357 -13.7351
   -13.7288 -13.7268 -13.7222 -13.7147 -13.7107 -13.7063 -13.6925 -13.6901
   -13.6856 -13.6802 -13.6736 -13.6706  -5.6766  -5.4053  -4.9298  -4.6378
     0.0518   0.7952   1.2285   1.4787   3.1831   4.4078   4.7908   4.8398
     4.9504   5.0541   5.8833   5.9136   6.0554   6.8002   6.8694   7.3088
     8.4073   8.8085   9.7410   9.8469  10.0709  10.5224  10.7132  11.2225
    11.9278  12.0132

          k = 0.0000 0.2730 0.0000 (  4118 PWs)   bands (ev):

   -13.7483 -13.7473 -13.7447 -13.7416 -13.7376 -13.7372 -13.7362 -13.7361
   -13.7289 -13.7265 -13.7222 -13.7154 -13.7104 -13.7068 -13.6920 -13.6892
   -13.6863 -13.6807 -13.6737 -13.6703  -5.7171  -5.4374  -4.9415  -4.6294
     0.0841   0.8481   1.3443   1.5441   3.1362   4.3775   4.7442   4.8155
     4.9323   5.0164   5.8780   5.8935   6.0254   6.8350   6.8750   7.2534
     8.5522   8.7662   9.8462   9.9845  10.1703  10.6211  10.8193  11.2546
    11.9897  12.0778

          k = 0.0000 0.2548 0.0000 (  4132 PWs)   bands (ev):

   -13.7493 -13.7469 -13.7443 -13.7408 -13.7381 -13.7371 -13.7368 -13.7367
   -13.7289 -13.7261 -13.7222 -13.7160 -13.7100 -13.7072 -13.6915 -13.6882
   -13.6869 -13.6811 -13.6739 -13.6701  -5.7556  -5.4684  -4.9539  -4.6228
     0.1173   0.9036   1.4610   1.6061   3.0940   4.3500   4.6961   4.8008
     4.9099   4.9795   5.8418   5.9005   6.0007   6.8717   6.8785   7.1900
     8.7102   8.7247   9.9493  10.1222  10.2700  10.7091  10.9240  11.2722
    11.9576  12.2294

          k = 0.0000 0.2366 0.0000 (  4124 PWs)   bands (ev):

   -13.7504 -13.7466 -13.7439 -13.7401 -13.7386 -13.7381 -13.7372 -13.7363
   -13.7289 -13.7257 -13.7222 -13.7167 -13.7097 -13.7077 -13.6910 -13.6875
   -13.6873 -13.6815 -13.6740 -13.6699  -5.7921  -5.4979  -4.9667  -4.6179
     0.1508   0.9610   1.5780   1.6642   3.0568   4.3259   4.6495   4.7928
     4.8838   4.9438   5.8051   5.9031   5.9831   6.8803   6.9090   7.1228
     8.6842   8.8770  10.0475  10.2574  10.3684  10.7819  11.0252  11.2770
    11.9157  12.3438

          k = 0.0000 0.2184 0.0000 (  4126 PWs)   bands (ev):

   -13.7514 -13.7463 -13.7435 -13.7393 -13.7391 -13.7389 -13.7377 -13.7359
   -13.7288 -13.7253 -13.7222 -13.7173 -13.7094 -13.7081 -13.6906 -13.6881
   -13.6865 -13.6819 -13.6741 -13.6697  -5.8264  -5.5260  -4.9795  -4.6144
     0.1840   1.0193   1.6943   1.7176   3.0247   4.3057   4.6055   4.7902
     4.8545   4.9095   5.7680   5.8988   5.9753   6.8806   6.9457   7.0545
     8.6451   9.0497  10.1376  10.3867  10.4635  10.8354  11.1217  11.2721
    11.8669  12.3907

          k = 0.0000 0.2002 0.0000 (  4118 PWs)   bands (ev):

   -13.7525 -13.7462 -13.7431 -13.7400 -13.7391 -13.7386 -13.7382 -13.7354
   -13.7286 -13.7249 -13.7223 -13.7179 -13.7092 -13.7086 -13.6901 -13.6886
   -13.6857 -13.6822 -13.6742 -13.6695  -5.8583  -5.5523  -4.9922  -4.6122
     0.2163   1.0776   1.7659   1.8090   2.9976   4.2899   4.5644   4.7923
     4.8225   4.8772   5.7309   5.8882   5.9771   6.8795   6.9807   6.9867
     8.6076   9.2261  10.2155  10.5044  10.5533  10.8658  11.2140  11.2632
    11.8166  12.4243

          k = 0.0000 0.1820 0.0000 (  4114 PWs)   bands (ev):

   -13.7535 -13.7462 -13.7427 -13.7409 -13.7392 -13.7387 -13.7379 -13.7350
   -13.7284 -13.7245 -13.7224 -13.7185 -13.7090 -13.7089 -13.6897 -13.6891
   -13.6850 -13.6826 -13.6743 -13.6693  -5.8878  -5.5767  -5.0046  -4.6109
     0.2473   1.1349   1.8087   1.9209   2.9755   4.2788   4.5266   4.7886
     4.7986   4.8470   5.6938   5.8745   5.9854   6.8773   6.9209   7.0131
     8.5719   9.4044  10.2773  10.6016  10.6360  10.8720  11.2595  11.3042
    11.7710  12.4452

          k = 0.0000 0.1638 0.0000 (  4114 PWs)   bands (ev):

   -13.7544 -13.7463 -13.7423 -13.7418 -13.7392 -13.7391 -13.7373 -13.7346
   -13.7282 -13.7241 -13.7225 -13.7190 -13.7094 -13.7088 -13.6896 -13.6894
   -13.6843 -13.6829 -13.6744 -13.6691  -5.9148  -5.5992  -5.0164  -4.6104
     0.2766   1.1904   1.8458   2.0290   2.9581   4.2725   4.4921   4.7530
     4.8084   4.8191   5.6571   5.8603   5.9975   6.8581   6.8744   7.0421
     8.5382   9.5828  10.3203  10.6669  10.7100  10.8556  11.2731  11.3956
    11.7352  12.4550

          k = 0.0000 0.1456 0.0000 (  4108 PWs)   bands (ev):

   -13.7553 -13.7464 -13.7426 -13.7420 -13.7396 -13.7390 -13.7367 -13.7343
   -13.7279 -13.7236 -13.7226 -13.7195 -13.7098 -13.7086 -13.6900 -13.6891
   -13.6837 -13.6832 -13.6745 -13.6689  -5.9392  -5.6197  -5.0274  -4.6106
     0.3036   1.2430   1.8773   2.1319   2.9451   4.2712   4.4610   4.7163
     4.7939   4.8208   5.6211   5.8467   6.0120   6.7993   6.8709   7.0674
     8.5068   9.7596  10.3438  10.6934  10.7737  10.8210  11.3109  11.4909
    11.7133  12.4554

          k = 0.0000 0.1274 0.0000 (  4119 PWs)   bands (ev):

   -13.7562 -13.7466 -13.7433 -13.7417 -13.7400 -13.7388 -13.7361 -13.7340
   -13.7276 -13.7232 -13.7227 -13.7200 -13.7102 -13.7085 -13.6904 -13.6888
   -13.6835 -13.6832 -13.6745 -13.6687  -5.9608  -5.6379  -5.0375  -4.6111
     0.3281   1.2918   1.9033   2.2282   2.9359   4.2749   4.4334   4.6788
     4.7713   4.8351   5.5863   5.8343   6.0279   6.7454   6.8671   7.0888
     8.4778   9.9324  10.3496  10.6864  10.7742  10.8266  11.3650  11.5910
    11.7103  12.4482

          k = 0.0000 0.1092 0.0000 (  4127 PWs)   bands (ev):

   -13.7569 -13.7469 -13.7440 -13.7414 -13.7403 -13.7386 -13.7357 -13.7338
   -13.7273 -13.7229 -13.7229 -13.7204 -13.7106 -13.7083 -13.6908 -13.6885
   -13.6837 -13.6828 -13.6746 -13.6686  -5.9797  -5.6539  -5.0466  -4.6119
     0.3498   1.3361   1.9243   2.3165   2.9298   4.2834   4.4093   4.6408
     4.7517   4.8503   5.5533   5.8232   6.0443   6.6970   6.8632   7.1062
     8.4516  10.0987  10.3417  10.6593  10.7215  10.8686  11.4161  11.6945
    11.7328  12.4347

          k = 0.0000 0.0910 0.0000 (  4121 PWs)   bands (ev):

   -13.7575 -13.7471 -13.7445 -13.7412 -13.7405 -13.7384 -13.7353 -13.7336
   -13.7270 -13.7230 -13.7225 -13.7208 -13.7109 -13.7082 -13.6911 -13.6883
   -13.6839 -13.6824 -13.6746 -13.6684  -5.9958  -5.6675  -5.0545  -4.6128
     0.3686   1.3749   1.9408   2.3950   2.9262   4.2967   4.3889   4.6027
     4.7350   4.8653   5.5229   5.8137   6.0603   6.6550   6.8594   7.1198
     8.4286  10.2548  10.3250  10.6241  10.6684  10.9005  11.4499  11.7825
    11.7982  12.4156

          k = 0.0000 0.0728 0.0000 (  4121 PWs)   bands (ev):

   -13.7581 -13.7474 -13.7450 -13.7412 -13.7406 -13.7381 -13.7349 -13.7334
   -13.7267 -13.7231 -13.7222 -13.7211 -13.7112 -13.7082 -13.6913 -13.6881
   -13.6841 -13.6821 -13.6747 -13.6683  -6.0090  -5.6788  -5.0611  -4.6137
     0.3841   1.4077   1.9533   2.4622   2.9244   4.3144   4.3721   4.5648
     4.7214   4.8793   5.4960   5.8059   6.0750   6.6198   6.8560   7.1301
     8.4090  10.3041  10.3963  10.5886  10.6195  10.9236  11.4663  11.8493
    11.8975  12.3918

          k = 0.0000 0.0546 0.0000 (  4123 PWs)   bands (ev):

   -13.7585 -13.7475 -13.7454 -13.7413 -13.7405 -13.7379 -13.7347 -13.7333
   -13.7265 -13.7232 -13.7219 -13.7214 -13.7115 -13.7081 -13.6915 -13.6880
   -13.6842 -13.6818 -13.6747 -13.6682  -6.0193  -5.6876  -5.0663  -4.6146
     0.3963   1.4338   1.9624   2.5164   2.9237   4.3362   4.3590   4.5274
     4.7108   4.8914   5.4736   5.7997   6.0876   6.5920   6.8532   7.1374
     8.3933  10.2835  10.5175  10.5577  10.5783  10.9396  11.4728  11.9178
    11.9867  12.3655

          k = 0.0000 0.0364 0.0000 (  4123 PWs)   bands (ev):

   -13.7588 -13.7477 -13.7456 -13.7414 -13.7405 -13.7378 -13.7345 -13.7332
   -13.7263 -13.7233 -13.7217 -13.7216 -13.7116 -13.7081 -13.6916 -13.6879
   -13.6843 -13.6817 -13.6747 -13.6681  -6.0267  -5.6939  -5.0700  -4.6152
     0.4051   1.4528   1.9685   2.5563   2.9236   4.3496   4.3617   4.4908
     4.7032   4.9006   5.4568   5.7952   6.0973   6.5719   6.8511   7.1423
     8.3818  10.2663  10.5341  10.5472  10.6116  10.9502  11.4749  11.9756
    12.0588  12.3404

          k = 0.0000 0.0182 0.0000 (  4125 PWs)   bands (ev):

   -13.7590 -13.7478 -13.7458 -13.7415 -13.7404 -13.7377 -13.7343 -13.7332
   -13.7262 -13.7233 -13.7218 -13.7216 -13.7118 -13.7080 -13.6917 -13.6879
   -13.6844 -13.6815 -13.6747 -13.6681  -6.0312  -5.6977  -5.0723  -4.6156
     0.4104   1.4643   1.9720   2.5808   2.9237   4.3440   4.3902   4.4556
     4.6987   4.9064   5.4463   5.7926   6.1033   6.5597   6.8497   7.1450
     8.3748  10.2551  10.5194  10.5279  10.6715  10.9564  11.4753  12.0139
    12.1065  12.3220

          k = 0.0000 0.0000 0.0000 (  4129 PWs)   bands (ev):

   -13.7590 -13.7478 -13.7458 -13.7415 -13.7404 -13.7377 -13.7343 -13.7332
   -13.7262 -13.7233 -13.7218 -13.7216 -13.7118 -13.7080 -13.6918 -13.6878
   -13.6844 -13.6815 -13.6747 -13.6681  -6.0326  -5.6990  -5.0731  -4.6158
     0.4122   1.4682   1.9732   2.5890   2.9238   4.3421   4.4184   4.4252
     4.6972   4.9083   5.4427   5.7917   6.1054   6.5556   6.8493   7.1459
     8.3724  10.2511  10.5145  10.5214  10.6921  10.9585  11.4753  12.0273
    12.1233  12.3152

     Writing output data file ./tmp/SnSe_pnma.save/

     init_run     :      1.55s CPU      1.87s WALL (       1 calls)
     electrons    :    459.42s CPU    324.74s WALL (       1 calls)

     Called by init_run:
     wfcinit      :      0.00s CPU      0.00s WALL (       1 calls)
     wfcinit:atom :      0.15s CPU      0.13s WALL (     121 calls)
     wfcinit:wfcr :      8.99s CPU      6.78s WALL (     121 calls)
     potinit      :      0.11s CPU      0.15s WALL (       1 calls)
     hinit0       :      1.00s CPU      1.02s WALL (       1 calls)

     Called by electrons:
     c_bands      :    459.42s CPU    324.73s WALL (       1 calls)
     v_of_rho     :      0.09s CPU      0.12s WALL (       1 calls)
     v_h          :      0.01s CPU      0.01s WALL (       1 calls)
     v_xc         :      0.09s CPU      0.11s WALL (       1 calls)
     newd         :      0.36s CPU      0.60s WALL (       1 calls)

     Called by c_bands:
     init_us_2    :      0.23s CPU      0.20s WALL (     121 calls)
     cegterg      :    446.18s CPU    314.15s WALL (     355 calls)

     Called by sum_band:

     Called by *egterg:
     cdiaghg      :     25.05s CPU     19.73s WALL (    6149 calls)
     cegterg:over :     36.62s CPU     19.06s WALL (    6028 calls)
     cegterg:upda :     21.81s CPU     11.63s WALL (    6028 calls)
     cegterg:last :     63.91s CPU     33.59s WALL (    4600 calls)
     h_psi        :    262.31s CPU    210.66s WALL (    6504 calls)
     s_psi        :     33.21s CPU     17.15s WALL (    6504 calls)
     g_psi        :      4.65s CPU      3.72s WALL (    6028 calls)

     Called by h_psi:
     h_psi:calbec :     30.32s CPU     15.88s WALL (    6504 calls)
     vloc_psi     :    197.68s CPU    176.56s WALL (    6504 calls)
     add_vuspsi   :     32.59s CPU     16.77s WALL (    6504 calls)

     General routines
     calbec       :     30.28s CPU     15.86s WALL (    6504 calls)
     fft          :      0.06s CPU      0.07s WALL (      13 calls)
     ffts         :      0.00s CPU      0.00s WALL (       1 calls)
     fftw         :    166.47s CPU    148.90s WALL (  473444 calls)
     interpolate  :      0.01s CPU      0.01s WALL (       1 calls)
     davcio       :      0.08s CPU      0.28s WALL (     242 calls)

     Parallel routines
     fft_scatt_xy :     30.97s CPU     27.91s WALL (  473458 calls)
     fft_scatt_yz :     26.73s CPU     23.44s WALL (  473458 calls)

     PWSCF        :   7m42.17s CPU   5m28.39s WALL


   This run was terminated on:  13:17:12  23May2026            

=------------------------------------------------------------------------------=
   JOB DONE.
=------------------------------------------------------------------------------=
