
     Program PWSCF v.6.7MaX starts on 22May2026 at 12:22:55 

     This program is part of the open-source Quantum ESPRESSO suite
     for quantum simulation of materials; please cite
         "P. Giannozzi et al., J. Phys.:Condens. Matter 21 395502 (2009);
         "P. Giannozzi et al., J. Phys.:Condens. Matter 29 465901 (2017);
          URL http://www.quantum-espresso.org", 
     in publications or presentations arising from this work. More details at
     http://www.quantum-espresso.org/quote

     Parallel version (MPI), running on     6 processors

     MPI processes distributed on     1 nodes
     K-points division:     npool     =       3
     R & G space division:  proc/nbgrp/npool/nimage =       2
     Waiting for input...
     Reading input from standard input

     Current dimensions of program PWSCF are:
     Max number of different atomic species (ntypx) = 10
     Max number of k-points (npk) =  40000
     Max angular momentum in pseudopotentials (lmaxx) =  3

     --------------------------------------------
     Parameters for DFT-D3 Dispersion Correction:
     --------------------------------------------
       Reference C6 values for interpolation: 

         atom   Coordination number   C6
         Se         0.000           427.35
         Se         0.990           427.57
         Se         1.981           421.05
         Sn         0.000          1255.14
         Sn         0.951          1084.09
         Sn         1.950          1010.83
         Sn         2.926           818.29
         Sn         3.912           672.20

       Values used:

         atom   Coordination number  R0_AB[au]  C6      C8
         Se         3.412            3.332    421.05  29958.36
         Sn         4.106            3.957    672.80  84444.47
         Se         3.412            3.332    421.05  29958.36
         Sn         4.106            3.957    672.80  84444.47
         Se         3.412            3.332    421.05  29958.36
         Sn         4.106            3.957    672.80  84444.47
         Se         3.412            3.332    421.05  29958.36
         Sn         4.106            3.957    672.80  84444.47

         Molecular C6 ( Ry / a.u.^6 ) =     34513.28


     Subspace diagonalization in iterative solution of the eigenvalue problem:
     a serial algorithm will be used


     Parallelization info
     --------------------
     sticks:   dense  smooth     PW     G-vecs:    dense   smooth      PW
     Min         814     320    101                65006    16415    2747
     Max         815     321    102                65007    16418    2748
     Sum        1629     641    203               130013    32833    5495



     bravais-lattice index     =            8
     lattice parameter (alat)  =       8.6086  a.u.
     unit-cell volume          =    1481.0643 (a.u.)^3
     number of atoms/cell      =            8
     number of atomic types    =            2
     number of electrons       =        80.00
     number of Kohn-Sham states=           50
     kinetic-energy cutoff     =      30.0000  Ry
     charge density cutoff     =     300.0000  Ry
     scf convergence threshold =      1.0E-08
     mixing beta               =       0.7000
     number of iterations used =            8  plain     mixing
     Exchange-correlation= SLA  PW   PBE  PBE
                           (   1   4   3   4   0   0   0)

     celldm(1)=   8.608647  celldm(2)=   0.915684  celldm(3)=   2.535265
     celldm(4)=   0.000000  celldm(5)=   0.000000  celldm(6)=   0.000000

     crystal axes: (cart. coord. in units of alat)
               a(1) = (   1.000000   0.000000   0.000000 )  
               a(2) = (   0.000000   0.915684   0.000000 )  
               a(3) = (   0.000000   0.000000   2.535265 )  

     reciprocal axes: (cart. coord. in units 2 pi/alat)
               b(1) = (  1.000000  0.000000  0.000000 )  
               b(2) = (  0.000000  1.092079  0.000000 )  
               b(3) = (  0.000000  0.000000  0.394436 )  


     PseudoPot. # 1 for Sn read from file:
     ../pseudo/Sn_pbe_v1.uspp.F.UPF
     MD5 check sum: 4cf58ce39ec5d5d420df3dd08604eb00
     Pseudo is Ultrasoft + core correction, Zval = 14.0
     Generated by new atomic code, or converted to UPF format
     Using radial grid of  891 points,  6 beta functions with: 
                l(1) =   0
                l(2) =   0
                l(3) =   1
                l(4) =   1
                l(5) =   2
                l(6) =   2
     Q(r) pseudized with  6 coefficients,  rinner =    1.200   1.200   1.200
                                                       1.200   1.200

     PseudoPot. # 2 for Se read from file:
     ../pseudo/Se_pbe_v1.uspp.F.UPF
     MD5 check sum: 1b3568f3a8ae88f9a2a0ad0698632c85
     Pseudo is Ultrasoft + core correction, Zval =  6.0
     Generated by new atomic code, or converted to UPF format
     Using radial grid of  877 points,  6 beta functions with: 
                l(1) =   0
                l(2) =   0
                l(3) =   1
                l(4) =   1
                l(5) =   2
                l(6) =   2
     Q(r) pseudized with  8 coefficients,  rinner =    1.300   1.300   1.300
                                                       1.300   1.300

     atomic species   valence    mass     pseudopotential
        Sn            14.00   118.71000     Sn( 1.00)
        Se             6.00    78.97100     Se( 1.00)

      8 Sym. Ops., with inversion, found ( 6 have fractional translation)


                                    s                        frac. trans.

      isym =  1     identity                                     

 cryst.   s( 1) = (     1          0          0      )
                  (     0          1          0      )
                  (     0          0          1      )

 cart.    s( 1) = (  1.0000000  0.0000000  0.0000000 )
                  (  0.0000000  1.0000000  0.0000000 )
                  (  0.0000000  0.0000000  1.0000000 )


      isym =  2     180 deg rotation - cart. axis [0,0,1]        

 cryst.   s( 2) = (    -1          0          0      )    f =(  0.5000000 )
                  (     0         -1          0      )       (  0.5000000 )
                  (     0          0          1      )       (  0.5000000 )

 cart.    s( 2) = ( -1.0000000  0.0000000  0.0000000 )    f =(  0.5000000 )
                  (  0.0000000 -1.0000000  0.0000000 )       (  0.4578422 )
                  (  0.0000000  0.0000000  1.0000000 )       (  1.2676325 )


      isym =  3     180 deg rotation - cart. axis [0,1,0]        

 cryst.   s( 3) = (    -1          0          0      )    f =(  0.0000000 )
                  (     0          1          0      )       (  0.5000000 )
                  (     0          0         -1      )       (  0.0000000 )

 cart.    s( 3) = ( -1.0000000  0.0000000  0.0000000 )    f =(  0.0000000 )
                  (  0.0000000  1.0000000  0.0000000 )       (  0.4578422 )
                  (  0.0000000  0.0000000 -1.0000000 )       (  0.0000000 )


      isym =  4     180 deg rotation - cart. axis [1,0,0]        

 cryst.   s( 4) = (     1          0          0      )    f =( -0.5000000 )
                  (     0         -1          0      )       (  0.0000000 )
                  (     0          0         -1      )       (  0.5000000 )

 cart.    s( 4) = (  1.0000000  0.0000000  0.0000000 )    f =( -0.5000000 )
                  (  0.0000000 -1.0000000  0.0000000 )       (  0.0000000 )
                  (  0.0000000  0.0000000 -1.0000000 )       (  1.2676325 )


      isym =  5     inversion                                    

 cryst.   s( 5) = (    -1          0          0      )
                  (     0         -1          0      )
                  (     0          0         -1      )

 cart.    s( 5) = ( -1.0000000  0.0000000  0.0000000 )
                  (  0.0000000 -1.0000000  0.0000000 )
                  (  0.0000000  0.0000000 -1.0000000 )


      isym =  6     inv. 180 deg rotation - cart. axis [0,0,1]   

 cryst.   s( 6) = (     1          0          0      )    f =( -0.5000000 )
                  (     0          1          0      )       (  0.5000000 )
                  (     0          0         -1      )       (  0.5000000 )

 cart.    s( 6) = (  1.0000000  0.0000000  0.0000000 )    f =( -0.5000000 )
                  (  0.0000000  1.0000000  0.0000000 )       (  0.4578422 )
                  (  0.0000000  0.0000000 -1.0000000 )       (  1.2676325 )


      isym =  7     inv. 180 deg rotation - cart. axis [0,1,0]   

 cryst.   s( 7) = (     1          0          0      )    f =(  0.0000000 )
                  (     0         -1          0      )       (  0.5000000 )
                  (     0          0          1      )       (  0.0000000 )

 cart.    s( 7) = (  1.0000000  0.0000000  0.0000000 )    f =(  0.0000000 )
                  (  0.0000000 -1.0000000  0.0000000 )       (  0.4578422 )
                  (  0.0000000  0.0000000  1.0000000 )       (  0.0000000 )


      isym =  8     inv. 180 deg rotation - cart. axis [1,0,0]   

 cryst.   s( 8) = (    -1          0          0      )    f =(  0.5000000 )
                  (     0          1          0      )       (  0.0000000 )
                  (     0          0          1      )       (  0.5000000 )

 cart.    s( 8) = ( -1.0000000  0.0000000  0.0000000 )    f =(  0.5000000 )
                  (  0.0000000  1.0000000  0.0000000 )       (  0.0000000 )
                  (  0.0000000  0.0000000  1.0000000 )       (  1.2676325 )


     point group D_2h (mmm) 
     there are  8 classes
     the character table:

       E     C2    C2'   C2''  i     s_v   s_v'  s_v''
A_g    1.00  1.00  1.00  1.00  1.00  1.00  1.00  1.00
B_1g   1.00  1.00 -1.00 -1.00  1.00  1.00 -1.00 -1.00
B_2g   1.00 -1.00  1.00 -1.00  1.00 -1.00  1.00 -1.00
B_3g   1.00 -1.00 -1.00  1.00  1.00 -1.00 -1.00  1.00
A_u    1.00  1.00  1.00  1.00 -1.00 -1.00 -1.00 -1.00
B_1u   1.00  1.00 -1.00 -1.00 -1.00 -1.00  1.00  1.00
B_2u   1.00 -1.00  1.00 -1.00 -1.00  1.00 -1.00  1.00
B_3u   1.00 -1.00 -1.00  1.00 -1.00  1.00  1.00 -1.00

     the symmetry operations in each class and the name of the first element:

     E        1
          identity                                               
     C2       2
          180 deg rotation - cart. axis [0,0,1]                  
     C2'      4
          180 deg rotation - cart. axis [1,0,0]                  
     C2''     3
          180 deg rotation - cart. axis [0,1,0]                  
     i        5
          inversion                                              
     s_v      6
          inv. 180 deg rotation - cart. axis [0,0,1]             
     s_v'     8
          inv. 180 deg rotation - cart. axis [1,0,0]             
     s_v''    7
          inv. 180 deg rotation - cart. axis [0,1,0]             

   Cartesian axes

     site n.     atom                  positions (alat units)
         1           Se  tau(   1) = (   0.4832481   0.6867633   2.1675410  )
         2           Sn  tau(   2) = (   0.1122870   0.6867633   0.2954585  )
         3           Se  tau(   3) = (   0.9832481   0.2289211   1.6353566  )
         4           Sn  tau(   4) = (   0.6122870   0.2289211   0.9721740  )
         5           Se  tau(   5) = (   0.0167519   0.6867633   0.8999084  )
         6           Sn  tau(   6) = (   0.3877130   0.6867633   1.5630911  )
         7           Se  tau(   7) = (   0.5167519   0.2289211   0.3677241  )
         8           Sn  tau(   8) = (   0.8877130   0.2289211   2.2398065  )

   Crystallographic axes

     site n.     atom                  positions (cryst. coord.)
         1           Se  tau(   1) = (  0.4832481  0.7500000  0.8549563  )
         2           Sn  tau(   2) = (  0.1122870  0.7500000  0.1165395  )
         3           Se  tau(   3) = (  0.9832481  0.2500000  0.6450437  )
         4           Sn  tau(   4) = (  0.6122870  0.2500000  0.3834605  )
         5           Se  tau(   5) = (  0.0167519  0.7500000  0.3549563  )
         6           Sn  tau(   6) = (  0.3877130  0.7500000  0.6165395  )
         7           Se  tau(   7) = (  0.5167519  0.2500000  0.1450437  )
         8           Sn  tau(   8) = (  0.8877130  0.2500000  0.8834605  )

     number of k points=    50
                       cart. coord. in units 2pi/alat
        k(    1) = (   0.0000000   0.0000000   0.0000000), wk =   0.0104167
        k(    2) = (   0.0000000   0.0000000   0.1314787), wk =   0.0208333
        k(    3) = (   0.0000000   0.1365099   0.0000000), wk =   0.0208333
        k(    4) = (   0.0000000   0.1365099   0.1314787), wk =   0.0416667
        k(    5) = (   0.0000000   0.2730198   0.0000000), wk =   0.0208333
        k(    6) = (   0.0000000   0.2730198   0.1314787), wk =   0.0416667
        k(    7) = (   0.0000000   0.4095298   0.0000000), wk =   0.0208333
        k(    8) = (   0.0000000   0.4095298   0.1314787), wk =   0.0416667
        k(    9) = (   0.0000000  -0.5460397   0.0000000), wk =   0.0104167
        k(   10) = (   0.0000000  -0.5460397   0.1314787), wk =   0.0208333
        k(   11) = (   0.1250000   0.0000000   0.0000000), wk =   0.0208333
        k(   12) = (   0.1250000   0.0000000   0.1314787), wk =   0.0416667
        k(   13) = (   0.1250000   0.1365099   0.0000000), wk =   0.0416667
        k(   14) = (   0.1250000   0.1365099   0.1314787), wk =   0.0833333
        k(   15) = (   0.1250000   0.2730198   0.0000000), wk =   0.0416667
        k(   16) = (   0.1250000   0.2730198   0.1314787), wk =   0.0833333
        k(   17) = (   0.1250000   0.4095298   0.0000000), wk =   0.0416667
        k(   18) = (   0.1250000   0.4095298   0.1314787), wk =   0.0833333
        k(   19) = (   0.1250000  -0.5460397   0.0000000), wk =   0.0208333
        k(   20) = (   0.1250000  -0.5460397   0.1314787), wk =   0.0416667
        k(   21) = (   0.2500000   0.0000000   0.0000000), wk =   0.0208333
        k(   22) = (   0.2500000   0.0000000   0.1314787), wk =   0.0416667
        k(   23) = (   0.2500000   0.1365099   0.0000000), wk =   0.0416667
        k(   24) = (   0.2500000   0.1365099   0.1314787), wk =   0.0833333
        k(   25) = (   0.2500000   0.2730198   0.0000000), wk =   0.0416667
        k(   26) = (   0.2500000   0.2730198   0.1314787), wk =   0.0833333
        k(   27) = (   0.2500000   0.4095298   0.0000000), wk =   0.0416667
        k(   28) = (   0.2500000   0.4095298   0.1314787), wk =   0.0833333
        k(   29) = (   0.2500000  -0.5460397   0.0000000), wk =   0.0208333
        k(   30) = (   0.2500000  -0.5460397   0.1314787), wk =   0.0416667
        k(   31) = (   0.3750000   0.0000000   0.0000000), wk =   0.0208333
        k(   32) = (   0.3750000   0.0000000   0.1314787), wk =   0.0416667
        k(   33) = (   0.3750000   0.1365099   0.0000000), wk =   0.0416667
        k(   34) = (   0.3750000   0.1365099   0.1314787), wk =   0.0833333
        k(   35) = (   0.3750000   0.2730198   0.0000000), wk =   0.0416667
        k(   36) = (   0.3750000   0.2730198   0.1314787), wk =   0.0833333
        k(   37) = (   0.3750000   0.4095298   0.0000000), wk =   0.0416667
        k(   38) = (   0.3750000   0.4095298   0.1314787), wk =   0.0833333
        k(   39) = (   0.3750000  -0.5460397   0.0000000), wk =   0.0208333
        k(   40) = (   0.3750000  -0.5460397   0.1314787), wk =   0.0416667
        k(   41) = (  -0.5000000   0.0000000   0.0000000), wk =   0.0104167
        k(   42) = (  -0.5000000   0.0000000   0.1314787), wk =   0.0208333
        k(   43) = (  -0.5000000   0.1365099   0.0000000), wk =   0.0208333
        k(   44) = (  -0.5000000   0.1365099   0.1314787), wk =   0.0416667
        k(   45) = (  -0.5000000   0.2730198   0.0000000), wk =   0.0208333
        k(   46) = (  -0.5000000   0.2730198   0.1314787), wk =   0.0416667
        k(   47) = (  -0.5000000   0.4095298   0.0000000), wk =   0.0208333
        k(   48) = (  -0.5000000   0.4095298   0.1314787), wk =   0.0416667
        k(   49) = (  -0.5000000  -0.5460397   0.0000000), wk =   0.0104167
        k(   50) = (  -0.5000000  -0.5460397   0.1314787), wk =   0.0208333

                       cryst. coord.
        k(    1) = (   0.0000000   0.0000000   0.0000000), wk =   0.0104167
        k(    2) = (   0.0000000   0.0000000   0.3333333), wk =   0.0208333
        k(    3) = (   0.0000000   0.1250000   0.0000000), wk =   0.0208333
        k(    4) = (   0.0000000   0.1250000   0.3333333), wk =   0.0416667
        k(    5) = (   0.0000000   0.2500000   0.0000000), wk =   0.0208333
        k(    6) = (   0.0000000   0.2500000   0.3333333), wk =   0.0416667
        k(    7) = (   0.0000000   0.3750000   0.0000000), wk =   0.0208333
        k(    8) = (   0.0000000   0.3750000   0.3333333), wk =   0.0416667
        k(    9) = (   0.0000000  -0.5000000   0.0000000), wk =   0.0104167
        k(   10) = (   0.0000000  -0.5000000   0.3333333), wk =   0.0208333
        k(   11) = (   0.1250000   0.0000000   0.0000000), wk =   0.0208333
        k(   12) = (   0.1250000   0.0000000   0.3333333), wk =   0.0416667
        k(   13) = (   0.1250000   0.1250000   0.0000000), wk =   0.0416667
        k(   14) = (   0.1250000   0.1250000   0.3333333), wk =   0.0833333
        k(   15) = (   0.1250000   0.2500000   0.0000000), wk =   0.0416667
        k(   16) = (   0.1250000   0.2500000   0.3333333), wk =   0.0833333
        k(   17) = (   0.1250000   0.3750000   0.0000000), wk =   0.0416667
        k(   18) = (   0.1250000   0.3750000   0.3333333), wk =   0.0833333
        k(   19) = (   0.1250000  -0.5000000   0.0000000), wk =   0.0208333
        k(   20) = (   0.1250000  -0.5000000   0.3333333), wk =   0.0416667
        k(   21) = (   0.2500000   0.0000000   0.0000000), wk =   0.0208333
        k(   22) = (   0.2500000   0.0000000   0.3333333), wk =   0.0416667
        k(   23) = (   0.2500000   0.1250000   0.0000000), wk =   0.0416667
        k(   24) = (   0.2500000   0.1250000   0.3333333), wk =   0.0833333
        k(   25) = (   0.2500000   0.2500000   0.0000000), wk =   0.0416667
        k(   26) = (   0.2500000   0.2500000   0.3333333), wk =   0.0833333
        k(   27) = (   0.2500000   0.3750000   0.0000000), wk =   0.0416667
        k(   28) = (   0.2500000   0.3750000   0.3333333), wk =   0.0833333
        k(   29) = (   0.2500000  -0.5000000   0.0000000), wk =   0.0208333
        k(   30) = (   0.2500000  -0.5000000   0.3333333), wk =   0.0416667
        k(   31) = (   0.3750000   0.0000000   0.0000000), wk =   0.0208333
        k(   32) = (   0.3750000   0.0000000   0.3333333), wk =   0.0416667
        k(   33) = (   0.3750000   0.1250000   0.0000000), wk =   0.0416667
        k(   34) = (   0.3750000   0.1250000   0.3333333), wk =   0.0833333
        k(   35) = (   0.3750000   0.2500000   0.0000000), wk =   0.0416667
        k(   36) = (   0.3750000   0.2500000   0.3333333), wk =   0.0833333
        k(   37) = (   0.3750000   0.3750000   0.0000000), wk =   0.0416667
        k(   38) = (   0.3750000   0.3750000   0.3333333), wk =   0.0833333
        k(   39) = (   0.3750000  -0.5000000   0.0000000), wk =   0.0208333
        k(   40) = (   0.3750000  -0.5000000   0.3333333), wk =   0.0416667
        k(   41) = (  -0.5000000   0.0000000   0.0000000), wk =   0.0104167
        k(   42) = (  -0.5000000   0.0000000   0.3333333), wk =   0.0208333
        k(   43) = (  -0.5000000   0.1250000   0.0000000), wk =   0.0208333
        k(   44) = (  -0.5000000   0.1250000   0.3333333), wk =   0.0416667
        k(   45) = (  -0.5000000   0.2500000   0.0000000), wk =   0.0208333
        k(   46) = (  -0.5000000   0.2500000   0.3333333), wk =   0.0416667
        k(   47) = (  -0.5000000   0.3750000   0.0000000), wk =   0.0208333
        k(   48) = (  -0.5000000   0.3750000   0.3333333), wk =   0.0416667
        k(   49) = (  -0.5000000  -0.5000000   0.0000000), wk =   0.0104167
        k(   50) = (  -0.5000000  -0.5000000   0.3333333), wk =   0.0208333

     Dense  grid:   130013 G-vectors     FFT dimensions: (  48,  48, 128)

     Smooth grid:    32833 G-vectors     FFT dimensions: (  32,  30,  80)

     Dynamical RAM for                 wfc:       1.57 MB

     Dynamical RAM for     wfc (w. buffer):      28.22 MB

     Dynamical RAM for           str. fact:       1.98 MB

     Dynamical RAM for           local pot:       0.00 MB

     Dynamical RAM for          nlocal pot:       4.52 MB

     Dynamical RAM for                qrad:       2.78 MB

     Dynamical RAM for          rho,v,vnew:       6.35 MB

     Dynamical RAM for               rhoin:       2.12 MB

     Dynamical RAM for            rho*nmix:      15.87 MB

     Dynamical RAM for           G-vectors:       3.84 MB

     Dynamical RAM for          h,s,v(r/c):       0.46 MB

     Dynamical RAM for          <psi|beta>:       0.11 MB

     Dynamical RAM for                 psi:       3.14 MB

     Dynamical RAM for                hpsi:       3.14 MB

     Dynamical RAM for                spsi:       3.14 MB

     Dynamical RAM for      wfcinit/wfcrot:       3.32 MB

     Dynamical RAM for           addusdens:      63.48 MB

     Dynamical RAM for          addusforce:      65.31 MB

     Estimated static dynamical RAM per process >      74.29 MB

     Estimated max dynamical RAM per process >     139.60 MB

     Estimated total dynamical RAM >     837.60 MB

     Initial potential from superposition of free atoms

     starting charge   75.99954, renormalised to   80.00000
     Starting wfcs are   52 randomized atomic wfcs

     total cpu time spent up to now is        7.2 secs

     Self-consistent Calculation

     iteration #  1     ecut=    30.00 Ry     beta= 0.70
     Davidson diagonalization with overlap
     ethr =  1.00E-02,  avg # of iterations =  3.9

     total cpu time spent up to now is       35.5 secs

     total energy              =    -826.64891524 Ry
     estimated scf accuracy    <       2.66708707 Ry

     iteration #  2     ecut=    30.00 Ry     beta= 0.70
     Davidson diagonalization with overlap
     ethr =  3.33E-03,  avg # of iterations =  2.0

     total cpu time spent up to now is       55.3 secs

     total energy              =    -827.42114549 Ry
     estimated scf accuracy    <       1.19989373 Ry

     iteration #  3     ecut=    30.00 Ry     beta= 0.70
     Davidson diagonalization with overlap
     ethr =  1.50E-03,  avg # of iterations =  2.0

     total cpu time spent up to now is       71.8 secs

     total energy              =    -827.72435589 Ry
     estimated scf accuracy    <       0.08313508 Ry

     iteration #  4     ecut=    30.00 Ry     beta= 0.70
     Davidson diagonalization with overlap
     ethr =  1.04E-04,  avg # of iterations =  2.3

     total cpu time spent up to now is       91.9 secs

     total energy              =    -827.73909098 Ry
     estimated scf accuracy    <       0.00387367 Ry

     iteration #  5     ecut=    30.00 Ry     beta= 0.70
     Davidson diagonalization with overlap
     ethr =  4.84E-06,  avg # of iterations =  6.5

     total cpu time spent up to now is      126.6 secs

     total energy              =    -827.73995809 Ry
     estimated scf accuracy    <       0.00081191 Ry

     iteration #  6     ecut=    30.00 Ry     beta= 0.70
     Davidson diagonalization with overlap
     ethr =  1.01E-06,  avg # of iterations =  3.6

     total cpu time spent up to now is      150.9 secs

     total energy              =    -827.74015426 Ry
     estimated scf accuracy    <       0.00005654 Ry

     iteration #  7     ecut=    30.00 Ry     beta= 0.70
     Davidson diagonalization with overlap
     ethr =  7.07E-08,  avg # of iterations =  4.7

     total cpu time spent up to now is      179.4 secs

     total energy              =    -827.74017287 Ry
     estimated scf accuracy    <       0.00000372 Ry

     iteration #  8     ecut=    30.00 Ry     beta= 0.70
     Davidson diagonalization with overlap
     ethr =  4.66E-09,  avg # of iterations =  2.2

     total cpu time spent up to now is      196.8 secs

     total energy              =    -827.74017402 Ry
     estimated scf accuracy    <       0.00000058 Ry

     iteration #  9     ecut=    30.00 Ry     beta= 0.70
     Davidson diagonalization with overlap
     ethr =  7.29E-10,  avg # of iterations =  2.0

     total cpu time spent up to now is      215.5 secs

     End of self-consistent calculation

          k = 0.0000 0.0000 0.0000 (  4129 PWs)   bands (ev):

   -13.7593 -13.7481 -13.7461 -13.7418 -13.7407 -13.7379 -13.7346 -13.7334
   -13.7264 -13.7236 -13.7221 -13.7218 -13.7121 -13.7083 -13.6920 -13.6881
   -13.6847 -13.6818 -13.6750 -13.6683  -6.0327  -5.6990  -5.0731  -4.6158
     0.4121   1.4681   1.9731   2.5890   2.9238   4.3421   4.4184   4.4252
     4.6972   4.9083   5.4427   5.7916   6.1053   6.5556   6.8492   7.1459
     8.3723  10.2511  10.5144  10.5213  10.6921  10.9584  11.4753  12.0272
    12.1232  12.3151

     occupation numbers 
     1.0000   1.0000   1.0000   1.0000   1.0000   1.0000   1.0000   1.0000
     1.0000   1.0000   1.0000   1.0000   1.0000   1.0000   1.0000   1.0000
     1.0000   1.0000   1.0000   1.0000   1.0000   1.0000   1.0000   1.0000
     1.0000   1.0000   1.0000   1.0000   1.0000   1.0000   1.0000   1.0000
     1.0000   1.0000   1.0000   1.0000   1.0000   1.0000   1.0000   1.0000
     0.0000   0.0000   0.0000   0.0000   0.0000   0.0000   0.0000   0.0000
     0.0000   0.0000

          k = 0.0000 0.0000 0.1315 (  4118 PWs)   bands (ev):

   -13.7571 -13.7519 -13.7445 -13.7426 -13.7402 -13.7389 -13.7338 -13.7333
   -13.7257 -13.7233 -13.7227 -13.7220 -13.7113 -13.7094 -13.6910 -13.6890
   -13.6839 -13.6825 -13.6732 -13.6699  -5.9717  -5.8150  -4.9264  -4.7078
     0.5566   0.9837   2.3657   2.5427   3.2359   3.9343   4.5002   4.6454
     4.7202   4.9137   5.6224   5.6729   5.7754   5.9792   6.9620   7.1139
     9.4678  10.1128  10.2219  10.5081  11.0761  11.0901  11.4776  11.5691
    12.3494  12.4541

     occupation numbers 
     1.0000   1.0000   1.0000   1.0000   1.0000   1.0000   1.0000   1.0000
     1.0000   1.0000   1.0000   1.0000   1.0000   1.0000   1.0000   1.0000
     1.0000   1.0000   1.0000   1.0000   1.0000   1.0000   1.0000   1.0000
     1.0000   1.0000   1.0000   1.0000   1.0000   1.0000   1.0000   1.0000
     1.0000   1.0000   1.0000   1.0000   1.0000   1.0000   1.0000   1.0000
     0.0000   0.0000   0.0000   0.0000   0.0000   0.0000   0.0000   0.0000
     0.0000   0.0000

          k = 0.0000 0.1365 0.0000 (  4113 PWs)   bands (ev):

   -13.7561 -13.7468 -13.7432 -13.7421 -13.7400 -13.7392 -13.7367 -13.7344
   -13.7280 -13.7237 -13.7230 -13.7200 -13.7103 -13.7088 -13.6905 -13.6892
   -13.6838 -13.6836 -13.6748 -13.6691  -5.9504  -5.6291  -5.0326  -4.6108
     0.3161   1.2679   1.8909   2.1810   2.9400   4.2724   4.4467   4.6976
     4.7822   4.8277   5.6035   5.8403   6.0198   6.7716   6.8690   7.0786
     8.4919   9.8466  10.3486  10.6933  10.7987  10.8015  11.3370  11.5404
    11.7090  12.4527

     occupation numbers 
     1.0000   1.0000   1.0000   1.0000   1.0000   1.0000   1.0000   1.0000
     1.0000   1.0000   1.0000   1.0000   1.0000   1.0000   1.0000   1.0000
     1.0000   1.0000   1.0000   1.0000   1.0000   1.0000   1.0000   1.0000
     1.0000   1.0000   1.0000   1.0000   1.0000   1.0000   1.0000   1.0000
     1.0000   1.0000   1.0000   1.0000   1.0000   1.0000   1.0000   1.0000
     0.0000   0.0000   0.0000   0.0000   0.0000   0.0000   0.0000   0.0000
     0.0000   0.0000

          k = 0.0000 0.1365 0.1315 (  4100 PWs)   bands (ev):

   -13.7541 -13.7495 -13.7425 -13.7418 -13.7407 -13.7402 -13.7355 -13.7345
   -13.7271 -13.7250 -13.7218 -13.7204 -13.7102 -13.7094 -13.6898 -13.6891
   -13.6840 -13.6840 -13.6732 -13.6704  -5.8914  -5.7403  -4.8961  -4.6947
     0.4563   0.8616   2.1186   2.1813   3.3005   4.0264   4.3786   4.6594
     4.9036   5.0279   5.6268   5.6801   5.9153   6.0354   7.0225   7.1193
     9.5297  10.0582  10.3477  10.3755  10.7006  10.9249  10.9547  11.5268
    12.1473  12.5160

     occupation numbers 
     1.0000   1.0000   1.0000   1.0000   1.0000   1.0000   1.0000   1.0000
     1.0000   1.0000   1.0000   1.0000   1.0000   1.0000   1.0000   1.0000
     1.0000   1.0000   1.0000   1.0000   1.0000   1.0000   1.0000   1.0000
     1.0000   1.0000   1.0000   1.0000   1.0000   1.0000   1.0000   1.0000
     1.0000   1.0000   1.0000   1.0000   1.0000   1.0000   1.0000   1.0000
     0.0000   0.0000   0.0000   0.0000   0.0000   0.0000   0.0000   0.0000
     0.0000   0.0000

          k = 0.0000 0.2730 0.0000 (  4118 PWs)   bands (ev):

   -13.7486 -13.7476 -13.7450 -13.7419 -13.7379 -13.7375 -13.7365 -13.7364
   -13.7292 -13.7268 -13.7224 -13.7156 -13.7106 -13.7070 -13.6923 -13.6894
   -13.6865 -13.6810 -13.6740 -13.6706  -5.7171  -5.4375  -4.9416  -4.6294
     0.0840   0.8480   1.3442   1.5440   3.1362   4.3775   4.7442   4.8154
     4.9322   5.0164   5.8780   5.8934   6.0254   6.8350   6.8750   7.2533
     8.5521   8.7662   9.8462   9.9845  10.1702  10.6210  10.8192  11.2546
    11.9896  12.0778

     occupation numbers 
     1.0000   1.0000   1.0000   1.0000   1.0000   1.0000   1.0000   1.0000
     1.0000   1.0000   1.0000   1.0000   1.0000   1.0000   1.0000   1.0000
     1.0000   1.0000   1.0000   1.0000   1.0000   1.0000   1.0000   1.0000
     1.0000   1.0000   1.0000   1.0000   1.0000   1.0000   1.0000   1.0000
     1.0000   1.0000   1.0000   1.0000   1.0000   1.0000   1.0000   1.0000
     0.0000   0.0000   0.0000   0.0000   0.0000   0.0000   0.0000   0.0000
     0.0000   0.0000

          k = 0.0000 0.2730 0.1315 (  4128 PWs)   bands (ev):

   -13.7484 -13.7479 -13.7437 -13.7419 -13.7382 -13.7380 -13.7372 -13.7366
   -13.7285 -13.7274 -13.7206 -13.7175 -13.7094 -13.7078 -13.6918 -13.6905
   -13.6847 -13.6821 -13.6731 -13.6714  -5.6650  -5.5330  -4.8373  -4.6890
     0.2147   0.5677   1.4129   1.5346   3.5400   4.3026   4.4747   4.7004
     5.1765   5.2786   5.7049   5.7880   5.9042   6.3121   7.0158   7.1581
     8.8301   9.4700   9.7917  10.0337  10.2739  10.7187  10.8047  11.3877
    11.5959  11.8285

     occupation numbers 
     1.0000   1.0000   1.0000   1.0000   1.0000   1.0000   1.0000   1.0000
     1.0000   1.0000   1.0000   1.0000   1.0000   1.0000   1.0000   1.0000
     1.0000   1.0000   1.0000   1.0000   1.0000   1.0000   1.0000   1.0000
     1.0000   1.0000   1.0000   1.0000   1.0000   1.0000   1.0000   1.0000
     1.0000   1.0000   1.0000   1.0000   1.0000   1.0000   1.0000   1.0000
     0.0000   0.0000   0.0000   0.0000   0.0000   0.0000   0.0000   0.0000
     0.0000   0.0000

          k = 0.0000 0.4095 0.0000 (  4120 PWs)   bands (ev):

   -13.7504 -13.7475 -13.7474 -13.7454 -13.7374 -13.7337 -13.7333 -13.7303
   -13.7282 -13.7265 -13.7233 -13.7145 -13.7101 -13.7035 -13.6969 -13.6962
   -13.6815 -13.6775 -13.6735 -13.6728  -5.3785  -5.1829  -4.8874  -4.7508
    -0.0910   0.5450   0.5634   1.0274   3.5861   4.5566   5.0077   5.0323
     5.2378   5.2774   5.7348   6.1069   6.3302   6.6846   6.7773   7.0487
     8.2358   9.0464   9.0514   9.0980   9.5372   9.8347  10.1634  10.7416
    11.0928  11.4791

     occupation numbers 
     1.0000   1.0000   1.0000   1.0000   1.0000   1.0000   1.0000   1.0000
     1.0000   1.0000   1.0000   1.0000   1.0000   1.0000   1.0000   1.0000
     1.0000   1.0000   1.0000   1.0000   1.0000   1.0000   1.0000   1.0000
     1.0000   1.0000   1.0000   1.0000   1.0000   1.0000   1.0000   1.0000
     1.0000   1.0000   1.0000   1.0000   1.0000   1.0000   1.0000   1.0000
     0.0000   0.0000   0.0000   0.0000   0.0000   0.0000   0.0000   0.0000
     0.0000   0.0000

          k = 0.0000 0.4095 0.1315 (  4134 PWs)   bands (ev):

   -13.7500 -13.7487 -13.7467 -13.7455 -13.7361 -13.7337 -13.7337 -13.7325
   -13.7274 -13.7265 -13.7211 -13.7173 -13.7075 -13.7047 -13.6969 -13.6965
   -13.6804 -13.6785 -13.6733 -13.6730  -5.3405  -5.2473  -4.8376  -4.7738
     0.0364   0.3524   0.6581   0.9010   3.9803   4.7350   4.7417   4.9527
     5.2442   5.5695   5.7182   5.8269   6.1082   6.2435   6.8622   6.9915
     8.4858   8.7929   9.4323   9.4426  10.0133  10.0901  10.1200  10.5802
    10.8838  11.4695

     occupation numbers 
     1.0000   1.0000   1.0000   1.0000   1.0000   1.0000   1.0000   1.0000
     1.0000   1.0000   1.0000   1.0000   1.0000   1.0000   1.0000   1.0000
     1.0000   1.0000   1.0000   1.0000   1.0000   1.0000   1.0000   1.0000
     1.0000   1.0000   1.0000   1.0000   1.0000   1.0000   1.0000   1.0000
     1.0000   1.0000   1.0000   1.0000   1.0000   1.0000   1.0000   1.0000
     0.0000   0.0000   0.0000   0.0000   0.0000   0.0000   0.0000   0.0000
     0.0000   0.0000

          k = 0.0000-0.5460 0.0000 (  4146 PWs)   bands (ev):

   -13.7507 -13.7507 -13.7476 -13.7476 -13.7341 -13.7341 -13.7306 -13.7306
   -13.7252 -13.7252 -13.7204 -13.7204 -13.7040 -13.7040 -13.7000 -13.7000
   -13.6765 -13.6765 -13.6747 -13.6747  -5.0199  -5.0199  -4.9669  -4.9669
     0.0320   0.0320   0.6316   0.6316   4.1665   4.1665   5.3046   5.3046
     5.3602   5.3602   5.8783   5.8783   6.6130   6.6130   6.6424   6.6424
     8.6813   8.6813   8.8264   8.8264   9.4124   9.4124  10.1760  10.1760
    10.8745  10.8745

     occupation numbers 
     1.0000   1.0000   1.0000   1.0000   1.0000   1.0000   1.0000   1.0000
     1.0000   1.0000   1.0000   1.0000   1.0000   1.0000   1.0000   1.0000
     1.0000   1.0000   1.0000   1.0000   1.0000   1.0000   1.0000   1.0000
     1.0000   1.0000   1.0000   1.0000   1.0000   1.0000   1.0000   1.0000
     1.0000   1.0000   1.0000   1.0000   1.0000   1.0000   1.0000   1.0000
     0.0000   0.0000   0.0000   0.0000   0.0000   0.0000   0.0000   0.0000
     0.0000   0.0000

          k = 0.0000-0.5460 0.1315 (  4124 PWs)   bands (ev):

   -13.7500 -13.7500 -13.7485 -13.7485 -13.7333 -13.7333 -13.7317 -13.7317
   -13.7236 -13.7236 -13.7213 -13.7213 -13.7030 -13.7030 -13.7010 -13.7010
   -13.6760 -13.6760 -13.6751 -13.6751  -5.0070  -5.0070  -4.9805  -4.9805
     0.1606   0.1606   0.4559   0.4559   4.5278   4.5278   5.1419   5.1419
     5.4172   5.4172   5.6628   5.6628   6.4481   6.4481   6.5389   6.5389
     8.8835   8.8835   9.0450   9.0450   9.6500   9.6500   9.9912   9.9912
    10.9677  10.9677

     occupation numbers 
     1.0000   1.0000   1.0000   1.0000   1.0000   1.0000   1.0000   1.0000
     1.0000   1.0000   1.0000   1.0000   1.0000   1.0000   1.0000   1.0000
     1.0000   1.0000   1.0000   1.0000   1.0000   1.0000   1.0000   1.0000
     1.0000   1.0000   1.0000   1.0000   1.0000   1.0000   1.0000   1.0000
     1.0000   1.0000   1.0000   1.0000   1.0000   1.0000   1.0000   1.0000
     0.0000   0.0000   0.0000   0.0000   0.0000   0.0000   0.0000   0.0000
     0.0000   0.0000

          k = 0.1250 0.0000 0.0000 (  4113 PWs)   bands (ev):

   -13.7586 -13.7476 -13.7463 -13.7417 -13.7413 -13.7387 -13.7347 -13.7334
   -13.7265 -13.7226 -13.7220 -13.7205 -13.7116 -13.7084 -13.6922 -13.6877
   -13.6852 -13.6821 -13.6748 -13.6686  -5.9733  -5.6449  -5.0672  -4.6321
     0.2033   1.3587   1.6367   2.3495   2.9194   4.3658   4.5096   4.7992
     4.9890   5.1160   5.4986   5.9173   6.1287   6.6713   6.8045   7.1609
     8.4085   9.7502  10.5195  10.5567  10.5646  10.7035  11.6373  11.6420
    11.8255  12.1931

     occupation numbers 
     1.0000   1.0000   1.0000   1.0000   1.0000   1.0000   1.0000   1.0000
     1.0000   1.0000   1.0000   1.0000   1.0000   1.0000   1.0000   1.0000
     1.0000   1.0000   1.0000   1.0000   1.0000   1.0000   1.0000   1.0000
     1.0000   1.0000   1.0000   1.0000   1.0000   1.0000   1.0000   1.0000
     1.0000   1.0000   1.0000   1.0000   1.0000   1.0000   1.0000   1.0000
     0.0000   0.0000   0.0000   0.0000   0.0000   0.0000   0.0000   0.0000
     0.0000   0.0000

          k = 0.1250 0.0000 0.1315 (  4098 PWs)   bands (ev):

   -13.7565 -13.7515 -13.7443 -13.7425 -13.7408 -13.7395 -13.7341 -13.7334
   -13.7256 -13.7234 -13.7216 -13.7206 -13.7110 -13.7094 -13.6911 -13.6889
   -13.6842 -13.6827 -13.6731 -13.6700  -5.9136  -5.7598  -4.9257  -4.7185
     0.3595   0.8145   2.0327   2.2801   3.3238   4.1127   4.5898   4.8049
     4.8315   5.1416   5.7197   5.7874   6.0101   6.1577   6.8452   7.0830
     9.4039   9.9158  10.3270  10.5246  10.7063  10.7981  11.1150  11.4771
    12.2629  12.3801

     occupation numbers 
     1.0000   1.0000   1.0000   1.0000   1.0000   1.0000   1.0000   1.0000
     1.0000   1.0000   1.0000   1.0000   1.0000   1.0000   1.0000   1.0000
     1.0000   1.0000   1.0000   1.0000   1.0000   1.0000   1.0000   1.0000
     1.0000   1.0000   1.0000   1.0000   1.0000   1.0000   1.0000   1.0000
     1.0000   1.0000   1.0000   1.0000   1.0000   1.0000   1.0000   1.0000
     0.0000   0.0000   0.0000   0.0000   0.0000   0.0000   0.0000   0.0000
     0.0000   0.0000

          k = 0.1250 0.1365 0.0000 (  4106 PWs)   bands (ev):

   -13.7555 -13.7466 -13.7435 -13.7428 -13.7399 -13.7396 -13.7369 -13.7347
   -13.7284 -13.7239 -13.7215 -13.7188 -13.7103 -13.7085 -13.6908 -13.6886
   -13.6842 -13.6839 -13.6746 -13.6693  -5.8923  -5.5766  -5.0265  -4.6247
     0.1646   1.2254   1.5768   2.0906   2.9653   4.0163   4.2356   4.9735
     5.0927   5.3132   5.3297   5.9264   6.2767   6.7045   7.0358   7.1250
     8.5345   9.4650  10.0717  10.2956  10.5425  10.8278  11.2959  11.6090
    11.8473  12.3568

     occupation numbers 
     1.0000   1.0000   1.0000   1.0000   1.0000   1.0000   1.0000   1.0000
     1.0000   1.0000   1.0000   1.0000   1.0000   1.0000   1.0000   1.0000
     1.0000   1.0000   1.0000   1.0000   1.0000   1.0000   1.0000   1.0000
     1.0000   1.0000   1.0000   1.0000   1.0000   1.0000   1.0000   1.0000
     1.0000   1.0000   1.0000   1.0000   1.0000   1.0000   1.0000   1.0000
     0.0000   0.0000   0.0000   0.0000   0.0000   0.0000   0.0000   0.0000
     0.0000   0.0000

          k = 0.1250 0.1365 0.1315 (  4105 PWs)   bands (ev):

   -13.7536 -13.7493 -13.7427 -13.7425 -13.7405 -13.7404 -13.7359 -13.7349
   -13.7272 -13.7250 -13.7205 -13.7192 -13.7101 -13.7092 -13.6899 -13.6888
   -13.6844 -13.6843 -13.6731 -13.6705  -5.8347  -5.6866  -4.8947  -4.7036
     0.3172   0.7540   1.8650   2.0399   3.3789   3.9955   4.2941   4.5487
     5.0723   5.3938   5.4581   5.6540   6.2613   6.5081   6.9289   7.1205
     9.3929   9.5974  10.0416  10.3826  10.5290  10.7379  11.2119  11.5538
    11.8738  12.2102

     occupation numbers 
     1.0000   1.0000   1.0000   1.0000   1.0000   1.0000   1.0000   1.0000
     1.0000   1.0000   1.0000   1.0000   1.0000   1.0000   1.0000   1.0000
     1.0000   1.0000   1.0000   1.0000   1.0000   1.0000   1.0000   1.0000
     1.0000   1.0000   1.0000   1.0000   1.0000   1.0000   1.0000   1.0000
     1.0000   1.0000   1.0000   1.0000   1.0000   1.0000   1.0000   1.0000
     0.0000   0.0000   0.0000   0.0000   0.0000   0.0000   0.0000   0.0000
     0.0000   0.0000

          k = 0.1250 0.2730 0.0000 (  4111 PWs)   bands (ev):

   -13.7502 -13.7462 -13.7460 -13.7425 -13.7388 -13.7369 -13.7366 -13.7361
   -13.7292 -13.7268 -13.7211 -13.7146 -13.7109 -13.7065 -13.6920 -13.6894
   -13.6866 -13.6814 -13.6739 -13.6707  -5.6636  -5.3900  -4.9338  -4.6350
     0.0517   0.8957   1.2649   1.4857   3.2104   3.7693   4.1249   4.7828
     5.3308   5.4813   5.5237   5.8573   6.3857   6.7744   6.9494   7.0875
     8.7559   8.8804   9.3327   9.4873  10.5617  10.5908  11.2239  11.4635
    11.9781  12.0016

     occupation numbers 
     1.0000   1.0000   1.0000   1.0000   1.0000   1.0000   1.0000   1.0000
     1.0000   1.0000   1.0000   1.0000   1.0000   1.0000   1.0000   1.0000
     1.0000   1.0000   1.0000   1.0000   1.0000   1.0000   1.0000   1.0000
     1.0000   1.0000   1.0000   1.0000   1.0000   1.0000   1.0000   1.0000
     1.0000   1.0000   1.0000   1.0000   1.0000   1.0000   1.0000   1.0000
     0.0000   0.0000   0.0000   0.0000   0.0000   0.0000   0.0000   0.0000
     0.0000   0.0000

          k = 0.1250 0.2730 0.1315 (  4113 PWs)   bands (ev):

   -13.7496 -13.7479 -13.7442 -13.7423 -13.7392 -13.7382 -13.7364 -13.7362
   -13.7283 -13.7273 -13.7197 -13.7167 -13.7093 -13.7074 -13.6916 -13.6905
   -13.6848 -13.6824 -13.6730 -13.6714  -5.6129  -5.4841  -4.8329  -4.6915
     0.1929   0.5729   1.3690   1.4719   3.5604   3.8424   4.1988   4.5922
     5.0450   5.3372   5.7135   5.8148   6.3377   6.5011   6.9714   7.0591
     8.9042   9.1303   9.7299   9.9375  10.3294  10.6684  10.9955  11.2480
    11.6085  12.0076

     occupation numbers 
     1.0000   1.0000   1.0000   1.0000   1.0000   1.0000   1.0000   1.0000
     1.0000   1.0000   1.0000   1.0000   1.0000   1.0000   1.0000   1.0000
     1.0000   1.0000   1.0000   1.0000   1.0000   1.0000   1.0000   1.0000
     1.0000   1.0000   1.0000   1.0000   1.0000   1.0000   1.0000   1.0000
     1.0000   1.0000   1.0000   1.0000   1.0000   1.0000   1.0000   1.0000
     0.0000   0.0000   0.0000   0.0000   0.0000   0.0000   0.0000   0.0000
     0.0000   0.0000

          k = 0.1250 0.4095 0.0000 (  4111 PWs)   bands (ev):

   -13.7519 -13.7492 -13.7478 -13.7460 -13.7376 -13.7337 -13.7325 -13.7302
   -13.7279 -13.7266 -13.7221 -13.7144 -13.7094 -13.7035 -13.6963 -13.6958
   -13.6815 -13.6779 -13.6734 -13.6727  -5.3345  -5.1450  -4.8740  -4.7410
    -0.0356   0.6014   0.6349   1.0188   3.6483   3.9276   4.3033   4.8931
     5.2088   5.2640   5.8598   5.8919   6.1446   6.5566   6.8136   6.9077
     8.6046   8.6255   9.0068   9.2962  10.3182  10.4042  10.7153  10.8269
    11.6102  11.9270

     occupation numbers 
     1.0000   1.0000   1.0000   1.0000   1.0000   1.0000   1.0000   1.0000
     1.0000   1.0000   1.0000   1.0000   1.0000   1.0000   1.0000   1.0000
     1.0000   1.0000   1.0000   1.0000   1.0000   1.0000   1.0000   1.0000
     1.0000   1.0000   1.0000   1.0000   1.0000   1.0000   1.0000   1.0000
     1.0000   1.0000   1.0000   1.0000   1.0000   1.0000   1.0000   1.0000
     0.0000   0.0000   0.0000   0.0000   0.0000   0.0000   0.0000   0.0000
     0.0000   0.0000

          k = 0.1250 0.4095 0.1315 (  4132 PWs)   bands (ev):

   -13.7513 -13.7497 -13.7478 -13.7465 -13.7362 -13.7336 -13.7332 -13.7323
   -13.7270 -13.7261 -13.7205 -13.7171 -13.7069 -13.7044 -13.6965 -13.6961
   -13.6805 -13.6787 -13.6733 -13.6729  -5.2978  -5.2078  -4.8253  -4.7634
     0.0944   0.4133   0.7081   0.9152   3.9041   4.0202   4.4637   4.7557
     5.1181   5.3375   5.5889   5.9265   6.1440   6.2971   6.6397   6.8057
     8.9095   9.0295   9.2610   9.4060  10.3135  10.3573  10.6635  10.9170
    11.3130  11.7592

     occupation numbers 
     1.0000   1.0000   1.0000   1.0000   1.0000   1.0000   1.0000   1.0000
     1.0000   1.0000   1.0000   1.0000   1.0000   1.0000   1.0000   1.0000
     1.0000   1.0000   1.0000   1.0000   1.0000   1.0000   1.0000   1.0000
     1.0000   1.0000   1.0000   1.0000   1.0000   1.0000   1.0000   1.0000
     1.0000   1.0000   1.0000   1.0000   1.0000   1.0000   1.0000   1.0000
     0.0000   0.0000   0.0000   0.0000   0.0000   0.0000   0.0000   0.0000
     0.0000   0.0000

          k = 0.1250-0.5460 0.0000 (  4140 PWs)   bands (ev):

   -13.7521 -13.7521 -13.7486 -13.7486 -13.7343 -13.7343 -13.7299 -13.7299
   -13.7251 -13.7251 -13.7198 -13.7198 -13.7041 -13.7041 -13.6990 -13.6990
   -13.6769 -13.6769 -13.6744 -13.6744  -4.9914  -4.9914  -4.9420  -4.9420
     0.1135   0.1135   0.6803   0.6803   4.0986   4.0986   4.5964   4.5964
     5.0757   5.0757   5.9381   5.9381   6.1765   6.1765   6.8655   6.8655
     8.3907   8.3907   9.2974   9.2974  10.0976  10.0976  10.8590  10.8590
    11.2968  11.2968

     occupation numbers 
     1.0000   1.0000   1.0000   1.0000   1.0000   1.0000   1.0000   1.0000
     1.0000   1.0000   1.0000   1.0000   1.0000   1.0000   1.0000   1.0000
     1.0000   1.0000   1.0000   1.0000   1.0000   1.0000   1.0000   1.0000
     1.0000   1.0000   1.0000   1.0000   1.0000   1.0000   1.0000   1.0000
     1.0000   1.0000   1.0000   1.0000   1.0000   1.0000   1.0000   1.0000
     0.0000   0.0000   0.0000   0.0000   0.0000   0.0000   0.0000   0.0000
     0.0000   0.0000

          k = 0.1250-0.5460 0.1315 (  4140 PWs)   bands (ev):

   -13.7513 -13.7513 -13.7496 -13.7496 -13.7334 -13.7334 -13.7314 -13.7314
   -13.7234 -13.7234 -13.7209 -13.7209 -13.7027 -13.7027 -13.7002 -13.7002
   -13.6762 -13.6762 -13.6750 -13.6750  -4.9794  -4.9794  -4.9547  -4.9547
     0.2359   0.2359   0.5153   0.5153   4.3374   4.3374   4.5990   4.5990
     5.1087   5.1087   5.6551   5.6551   6.2536   6.2536   6.5413   6.5413
     8.9014   8.9014   9.2471   9.2471  10.3081  10.3081  10.7069  10.7069
    11.2435  11.2435

     occupation numbers 
     1.0000   1.0000   1.0000   1.0000   1.0000   1.0000   1.0000   1.0000
     1.0000   1.0000   1.0000   1.0000   1.0000   1.0000   1.0000   1.0000
     1.0000   1.0000   1.0000   1.0000   1.0000   1.0000   1.0000   1.0000
     1.0000   1.0000   1.0000   1.0000   1.0000   1.0000   1.0000   1.0000
     1.0000   1.0000   1.0000   1.0000   1.0000   1.0000   1.0000   1.0000
     0.0000   0.0000   0.0000   0.0000   0.0000   0.0000   0.0000   0.0000
     0.0000   0.0000

          k = 0.2500 0.0000 0.0000 (  4109 PWs)   bands (ev):

   -13.7565 -13.7470 -13.7464 -13.7426 -13.7416 -13.7407 -13.7350 -13.7336
   -13.7264 -13.7227 -13.7197 -13.7170 -13.7107 -13.7087 -13.6922 -13.6868
   -13.6866 -13.6827 -13.6741 -13.6694  -5.8062  -5.4924  -5.0730  -4.6940
    -0.1763   0.8800   1.1151   1.9059   3.0726   4.6366   4.7695   5.2161
     5.3497   5.6262   5.6758   6.1576   6.3647   6.4748   7.0817   7.3425
     8.6928   8.8875   9.7646   9.8450  10.3075  10.7814  10.8016  11.2306
    11.9470  12.2580

     occupation numbers 
     1.0000   1.0000   1.0000   1.0000   1.0000   1.0000   1.0000   1.0000
     1.0000   1.0000   1.0000   1.0000   1.0000   1.0000   1.0000   1.0000
     1.0000   1.0000   1.0000   1.0000   1.0000   1.0000   1.0000   1.0000
     1.0000   1.0000   1.0000   1.0000   1.0000   1.0000   1.0000   1.0000
     1.0000   1.0000   1.0000   1.0000   1.0000   1.0000   1.0000   1.0000
     0.0000   0.0000   0.0000   0.0000   0.0000   0.0000   0.0000   0.0000
     0.0000   0.0000

          k = 0.2500 0.0000 0.1315 (  4088 PWs)   bands (ev):

   -13.7548 -13.7507 -13.7441 -13.7423 -13.7421 -13.7410 -13.7349 -13.7340
   -13.7254 -13.7236 -13.7187 -13.7174 -13.7104 -13.7094 -13.6911 -13.6888
   -13.6848 -13.6834 -13.6728 -13.6705  -5.7508  -5.6062  -4.9429  -4.7657
    -0.0139   0.4292   1.4268   1.7506   3.5571   4.4541   4.8438   5.0429
     5.2459   5.5420   5.8205   6.0619   6.2333   6.6083   6.8093   7.1167
     9.1441   9.5407   9.9932  10.0278  10.1780  10.3943  10.6131  11.4154
    11.6181  12.0655

     occupation numbers 
     1.0000   1.0000   1.0000   1.0000   1.0000   1.0000   1.0000   1.0000
     1.0000   1.0000   1.0000   1.0000   1.0000   1.0000   1.0000   1.0000
     1.0000   1.0000   1.0000   1.0000   1.0000   1.0000   1.0000   1.0000
     1.0000   1.0000   1.0000   1.0000   1.0000   1.0000   1.0000   1.0000
     1.0000   1.0000   1.0000   1.0000   1.0000   1.0000   1.0000   1.0000
     0.0000   0.0000   0.0000   0.0000   0.0000   0.0000   0.0000   0.0000
     0.0000   0.0000

          k = 0.2500 0.1365 0.0000 (  4098 PWs)   bands (ev):

   -13.7540 -13.7461 -13.7450 -13.7436 -13.7403 -13.7397 -13.7373 -13.7357
   -13.7282 -13.7244 -13.7184 -13.7155 -13.7103 -13.7079 -13.6909 -13.6877
   -13.6855 -13.6844 -13.6739 -13.6699  -5.7295  -5.4289  -5.0305  -4.6789
    -0.1309   0.9058   1.1024   1.7973   3.1641   3.9632   4.1837   5.1249
     5.2785   5.5331   5.8475   5.9103   6.5463   6.7304   7.1508   7.2269
     8.7659   9.1996   9.3716   9.4472  10.5298  10.5461  11.0638  11.4159
    12.0711  12.1558

     occupation numbers 
     1.0000   1.0000   1.0000   1.0000   1.0000   1.0000   1.0000   1.0000
     1.0000   1.0000   1.0000   1.0000   1.0000   1.0000   1.0000   1.0000
     1.0000   1.0000   1.0000   1.0000   1.0000   1.0000   1.0000   1.0000
     1.0000   1.0000   1.0000   1.0000   1.0000   1.0000   1.0000   1.0000
     1.0000   1.0000   1.0000   1.0000   1.0000   1.0000   1.0000   1.0000
     0.0000   0.0000   0.0000   0.0000   0.0000   0.0000   0.0000   0.0000
     0.0000   0.0000

          k = 0.2500 0.1365 0.1315 (  4106 PWs)   bands (ev):

   -13.7524 -13.7487 -13.7445 -13.7436 -13.7405 -13.7400 -13.7367 -13.7359
   -13.7270 -13.7251 -13.7177 -13.7162 -13.7099 -13.7087 -13.6899 -13.6883
   -13.6854 -13.6849 -13.6728 -13.6708  -5.6762  -5.5375  -4.9090  -4.7449
     0.0294   0.4636   1.3940   1.6690   3.5956   4.0032   4.2929   4.8185
     5.0107   5.3580   5.8807   6.0225   6.5981   6.7349   6.9417   7.1099
     9.1563   9.2336   9.6416   9.9146  10.2653  10.6700  11.0622  11.1230
    11.7890  12.0017

     occupation numbers 
     1.0000   1.0000   1.0000   1.0000   1.0000   1.0000   1.0000   1.0000
     1.0000   1.0000   1.0000   1.0000   1.0000   1.0000   1.0000   1.0000
     1.0000   1.0000   1.0000   1.0000   1.0000   1.0000   1.0000   1.0000
     1.0000   1.0000   1.0000   1.0000   1.0000   1.0000   1.0000   1.0000
     1.0000   1.0000   1.0000   1.0000   1.0000   1.0000   1.0000   1.0000
     0.0000   0.0000   0.0000   0.0000   0.0000   0.0000   0.0000   0.0000
     0.0000   0.0000

          k = 0.2500 0.2730 0.0000 (  4110 PWs)   bands (ev):

   -13.7523 -13.7485 -13.7449 -13.7438 -13.7404 -13.7371 -13.7365 -13.7356
   -13.7287 -13.7269 -13.7183 -13.7119 -13.7111 -13.7057 -13.6913 -13.6893
   -13.6864 -13.6824 -13.6734 -13.6710  -5.5156  -5.2585  -4.9301  -4.6642
    -0.0234   0.9157   1.0026   1.4318   3.3330   3.4288   3.6582   4.5166
     4.7678   5.5938   5.6273   6.0786   6.2592   6.7031   6.7042   6.9521
     8.5311   9.2002   9.7403  10.0199  10.3581  10.6695  11.1012  11.9114
    12.2505  12.3506

     occupation numbers 
     1.0000   1.0000   1.0000   1.0000   1.0000   1.0000   1.0000   1.0000
     1.0000   1.0000   1.0000   1.0000   1.0000   1.0000   1.0000   1.0000
     1.0000   1.0000   1.0000   1.0000   1.0000   1.0000   1.0000   1.0000
     1.0000   1.0000   1.0000   1.0000   1.0000   1.0000   1.0000   1.0000
     1.0000   1.0000   1.0000   1.0000   1.0000   1.0000   1.0000   1.0000
     0.0000   0.0000   0.0000   0.0000   0.0000   0.0000   0.0000   0.0000
     0.0000   0.0000

          k = 0.2500 0.2730 0.1315 (  4121 PWs)   bands (ev):

   -13.7514 -13.7493 -13.7456 -13.7438 -13.7399 -13.7383 -13.7356 -13.7355
   -13.7279 -13.7271 -13.7175 -13.7149 -13.7085 -13.7065 -13.6912 -13.6903
   -13.6851 -13.6832 -13.6727 -13.6715  -5.4692  -5.3500  -4.8361  -4.7125
     0.1270   0.5215   1.2197   1.3686   3.4101   3.5355   4.0339   4.4228
     4.5666   5.1838   5.8479   6.1023   6.1456   6.2406   6.8811   7.0538
     9.1101   9.5055   9.6218   9.9907  10.2597  10.6590  11.0944  11.5189
    11.9149  12.3249

     occupation numbers 
     1.0000   1.0000   1.0000   1.0000   1.0000   1.0000   1.0000   1.0000
     1.0000   1.0000   1.0000   1.0000   1.0000   1.0000   1.0000   1.0000
     1.0000   1.0000   1.0000   1.0000   1.0000   1.0000   1.0000   1.0000
     1.0000   1.0000   1.0000   1.0000   1.0000   1.0000   1.0000   1.0000
     1.0000   1.0000   1.0000   1.0000   1.0000   1.0000   1.0000   1.0000
     0.0000   0.0000   0.0000   0.0000   0.0000   0.0000   0.0000   0.0000
     0.0000   0.0000

          k = 0.2500 0.4095 0.0000 (  4125 PWs)   bands (ev):

   -13.7550 -13.7526 -13.7495 -13.7481 -13.7376 -13.7339 -13.7312 -13.7301
   -13.7273 -13.7263 -13.7197 -13.7142 -13.7075 -13.7034 -13.6948 -13.6947
   -13.6816 -13.6788 -13.6731 -13.6725  -5.2159  -5.0434  -4.8501  -4.7250
     0.1103   0.7152   0.8275   0.9995   3.2086   3.6782   3.7927   4.1712
     4.5678   5.1824   5.2181   5.5694   5.9143   6.0739   6.6114   6.8783
     8.3452   9.5973   9.7954  10.3441  10.8114  11.0243  11.7194  11.7684
    11.9686  11.9922

     occupation numbers 
     1.0000   1.0000   1.0000   1.0000   1.0000   1.0000   1.0000   1.0000
     1.0000   1.0000   1.0000   1.0000   1.0000   1.0000   1.0000   1.0000
     1.0000   1.0000   1.0000   1.0000   1.0000   1.0000   1.0000   1.0000
     1.0000   1.0000   1.0000   1.0000   1.0000   1.0000   1.0000   1.0000
     1.0000   1.0000   1.0000   1.0000   1.0000   1.0000   1.0000   1.0000
     0.0000   0.0000   0.0000   0.0000   0.0000   0.0000   0.0000   0.0000
     0.0000   0.0000

          k = 0.2500 0.4095 0.1315 (  4123 PWs)   bands (ev):

   -13.7541 -13.7524 -13.7502 -13.7489 -13.7362 -13.7338 -13.7325 -13.7316
   -13.7261 -13.7253 -13.7192 -13.7165 -13.7053 -13.7035 -13.6956 -13.6952
   -13.6806 -13.6792 -13.6731 -13.6728  -5.1834  -5.1026  -4.8028  -4.7457
     0.2388   0.5446   0.8451   0.9557   3.3170   3.5345   4.2093   4.2288
     4.4723   4.9250   5.2174   5.6804   5.7072   6.1184   6.3953   6.8039
     9.1147   9.7344   9.8270  10.2526  10.6006  10.7467  11.4928  11.5623
    11.6622  11.9102

     occupation numbers 
     1.0000   1.0000   1.0000   1.0000   1.0000   1.0000   1.0000   1.0000
     1.0000   1.0000   1.0000   1.0000   1.0000   1.0000   1.0000   1.0000
     1.0000   1.0000   1.0000   1.0000   1.0000   1.0000   1.0000   1.0000
     1.0000   1.0000   1.0000   1.0000   1.0000   1.0000   1.0000   1.0000
     1.0000   1.0000   1.0000   1.0000   1.0000   1.0000   1.0000   1.0000
     0.0000   0.0000   0.0000   0.0000   0.0000   0.0000   0.0000   0.0000
     0.0000   0.0000

          k = 0.2500-0.5460 0.0000 (  4136 PWs)   bands (ev):

   -13.7554 -13.7554 -13.7509 -13.7509 -13.7346 -13.7346 -13.7287 -13.7287
   -13.7248 -13.7248 -13.7187 -13.7187 -13.7037 -13.7037 -13.6970 -13.6970
   -13.6775 -13.6775 -13.6739 -13.6739  -4.9201  -4.9201  -4.8811  -4.8811
     0.3402   0.3402   0.8013   0.8013   3.5756   3.5756   4.0310   4.0310
     4.6101   4.6101   5.2918   5.2918   5.6839   5.6839   6.7059   6.7059
     8.8489   8.8489  10.4247  10.4247  11.2490  11.2490  11.6302  11.6302
    11.8615  11.8615

     occupation numbers 
     1.0000   1.0000   1.0000   1.0000   1.0000   1.0000   1.0000   1.0000
     1.0000   1.0000   1.0000   1.0000   1.0000   1.0000   1.0000   1.0000
     1.0000   1.0000   1.0000   1.0000   1.0000   1.0000   1.0000   1.0000
     1.0000   1.0000   1.0000   1.0000   1.0000   1.0000   1.0000   1.0000
     1.0000   1.0000   1.0000   1.0000   1.0000   1.0000   1.0000   1.0000
     0.0000   0.0000   0.0000   0.0000   0.0000   0.0000   0.0000   0.0000
     0.0000   0.0000

          k = 0.2500-0.5460 0.1315 (  4124 PWs)   bands (ev):

   -13.7544 -13.7544 -13.7521 -13.7521 -13.7335 -13.7335 -13.7308 -13.7308
   -13.7228 -13.7228 -13.7200 -13.7200 -13.7018 -13.7018 -13.6985 -13.6985
   -13.6765 -13.6765 -13.6747 -13.6747  -4.9105  -4.9105  -4.8910  -4.8910
     0.4417   0.4417   0.6698   0.6698   3.6977   3.6977   3.9730   3.9730
     4.6481   4.6481   5.2024   5.2024   5.8263   5.8263   6.4235   6.4235
     9.4110   9.4110  10.2606  10.2606  10.8922  10.8922  11.2269  11.2269
    12.1208  12.1208

     occupation numbers 
     1.0000   1.0000   1.0000   1.0000   1.0000   1.0000   1.0000   1.0000
     1.0000   1.0000   1.0000   1.0000   1.0000   1.0000   1.0000   1.0000
     1.0000   1.0000   1.0000   1.0000   1.0000   1.0000   1.0000   1.0000
     1.0000   1.0000   1.0000   1.0000   1.0000   1.0000   1.0000   1.0000
     1.0000   1.0000   1.0000   1.0000   1.0000   1.0000   1.0000   1.0000
     0.0000   0.0000   0.0000   0.0000   0.0000   0.0000   0.0000   0.0000
     0.0000   0.0000

          k = 0.3750 0.0000 0.0000 (  4107 PWs)   bands (ev):

   -13.7536 -13.7484 -13.7449 -13.7437 -13.7427 -13.7422 -13.7352 -13.7343
   -13.7258 -13.7236 -13.7159 -13.7132 -13.7109 -13.7091 -13.6916 -13.6884
   -13.6857 -13.6836 -13.6730 -13.6705  -5.5678  -5.2711  -5.1463  -4.8257
    -0.3931   0.1750   0.9665   1.4079   3.4753   4.5496   5.1465   5.5386
     5.6911   5.9001   6.0178   6.0888   6.4481   6.9949   7.2391   7.4869
     8.5222   8.9323   9.2306   9.3539   9.6088   9.9331  10.2949  10.8472
    11.0598  11.4601

     occupation numbers 
     1.0000   1.0000   1.0000   1.0000   1.0000   1.0000   1.0000   1.0000
     1.0000   1.0000   1.0000   1.0000   1.0000   1.0000   1.0000   1.0000
     1.0000   1.0000   1.0000   1.0000   1.0000   1.0000   1.0000   1.0000
     1.0000   1.0000   1.0000   1.0000   1.0000   1.0000   1.0000   1.0000
     1.0000   1.0000   1.0000   1.0000   1.0000   1.0000   1.0000   1.0000
     0.0000   0.0000   0.0000   0.0000   0.0000   0.0000   0.0000   0.0000
     0.0000   0.0000

          k = 0.3750 0.0000 0.1315 (  4101 PWs)   bands (ev):

   -13.7525 -13.7500 -13.7440 -13.7432 -13.7427 -13.7426 -13.7356 -13.7350
   -13.7250 -13.7239 -13.7152 -13.7138 -13.7105 -13.7096 -13.6907 -13.6892
   -13.6851 -13.6841 -13.6723 -13.6711  -5.5222  -5.3983  -5.0136  -4.8777
    -0.2578   0.0356   1.0003   1.2366   3.9541   4.7774   5.2075   5.2314
     5.3719   5.8330   5.8578   6.0249   6.5225   6.7481   7.2936   7.4612
     8.6830   9.0691   9.4824   9.4950   9.7687   9.9659  10.2263  10.9910
    11.1056  11.2942

     occupation numbers 
     1.0000   1.0000   1.0000   1.0000   1.0000   1.0000   1.0000   1.0000
     1.0000   1.0000   1.0000   1.0000   1.0000   1.0000   1.0000   1.0000
     1.0000   1.0000   1.0000   1.0000   1.0000   1.0000   1.0000   1.0000
     1.0000   1.0000   1.0000   1.0000   1.0000   1.0000   1.0000   1.0000
     1.0000   1.0000   1.0000   1.0000   1.0000   1.0000   1.0000   1.0000
     0.0000   0.0000   0.0000   0.0000   0.0000   0.0000   0.0000   0.0000
     0.0000   0.0000

          k = 0.3750 0.1365 0.0000 (  4090 PWs)   bands (ev):

   -13.7519 -13.7473 -13.7457 -13.7444 -13.7407 -13.7400 -13.7377 -13.7370
   -13.7273 -13.7252 -13.7151 -13.7118 -13.7108 -13.7078 -13.6903 -13.6872
   -13.6867 -13.6850 -13.6730 -13.6708  -5.4989  -5.2165  -5.0980  -4.7983
    -0.3020   0.2532   1.0181   1.4096   3.5531   4.1602   4.3588   5.1025
     5.2347   5.2973   5.9496   6.2455   6.7525   6.8376   7.1681   7.1981
     8.8124   8.9786   9.1045   9.4319  10.2048  10.3757  10.6521  11.2215
    11.6511  11.9519

     occupation numbers 
     1.0000   1.0000   1.0000   1.0000   1.0000   1.0000   1.0000   1.0000
     1.0000   1.0000   1.0000   1.0000   1.0000   1.0000   1.0000   1.0000
     1.0000   1.0000   1.0000   1.0000   1.0000   1.0000   1.0000   1.0000
     1.0000   1.0000   1.0000   1.0000   1.0000   1.0000   1.0000   1.0000
     1.0000   1.0000   1.0000   1.0000   1.0000   1.0000   1.0000   1.0000
     0.0000   0.0000   0.0000   0.0000   0.0000   0.0000   0.0000   0.0000
     0.0000   0.0000

          k = 0.3750 0.1365 0.1315 (  4095 PWs)   bands (ev):

   -13.7507 -13.7479 -13.7466 -13.7452 -13.7401 -13.7398 -13.7375 -13.7371
   -13.7264 -13.7254 -13.7146 -13.7132 -13.7097 -13.7084 -13.6894 -13.6879
   -13.6864 -13.6856 -13.6723 -13.6712  -5.4553  -5.3371  -4.9735  -4.8466
    -0.1697   0.1164   1.0479   1.2583   3.9326   4.2379   4.5585   4.8840
     5.1013   5.3637   5.6495   6.1150   6.7158   6.8392   6.9894   7.0948
     9.0514   9.3382   9.3690   9.7304  10.0583  10.5225  10.5685  10.8409
    11.7420  11.8395

     occupation numbers 
     1.0000   1.0000   1.0000   1.0000   1.0000   1.0000   1.0000   1.0000
     1.0000   1.0000   1.0000   1.0000   1.0000   1.0000   1.0000   1.0000
     1.0000   1.0000   1.0000   1.0000   1.0000   1.0000   1.0000   1.0000
     1.0000   1.0000   1.0000   1.0000   1.0000   1.0000   1.0000   1.0000
     1.0000   1.0000   1.0000   1.0000   1.0000   1.0000   1.0000   1.0000
     0.0000   0.0000   0.0000   0.0000   0.0000   0.0000   0.0000   0.0000
     0.0000   0.0000

          k = 0.3750 0.2730 0.0000 (  4094 PWs)   bands (ev):

   -13.7535 -13.7514 -13.7450 -13.7447 -13.7409 -13.7382 -13.7361 -13.7354
   -13.7278 -13.7270 -13.7153 -13.7115 -13.7086 -13.7055 -13.6904 -13.6892
   -13.6859 -13.6837 -13.6728 -13.6714  -5.3109  -5.0749  -4.9776  -4.7437
    -0.0498   0.4542   1.1048   1.3375   3.2957   3.6153   3.7086   4.2550
     4.4598   5.1546   5.2791   5.8711   6.0207   6.4597   6.6480   6.9767
     8.4635   9.8232   9.8548  10.7400  10.9160  11.0006  11.3481  12.0924
    12.2729  12.3666

     occupation numbers 
     1.0000   1.0000   1.0000   1.0000   1.0000   1.0000   1.0000   1.0000
     1.0000   1.0000   1.0000   1.0000   1.0000   1.0000   1.0000   1.0000
     1.0000   1.0000   1.0000   1.0000   1.0000   1.0000   1.0000   1.0000
     1.0000   1.0000   1.0000   1.0000   1.0000   1.0000   1.0000   1.0000
     1.0000   1.0000   1.0000   1.0000   1.0000   1.0000   1.0000   1.0000
     0.0000   0.0000   0.0000   0.0000   0.0000   0.0000   0.0000   0.0000
     0.0000   0.0000

          k = 0.3750 0.2730 0.1315 (  4110 PWs)   bands (ev):

   -13.7527 -13.7513 -13.7468 -13.7457 -13.7395 -13.7384 -13.7353 -13.7352
   -13.7274 -13.7270 -13.7152 -13.7136 -13.7069 -13.7057 -13.6906 -13.6901
   -13.6851 -13.6841 -13.6722 -13.6716  -5.2738  -5.1744  -4.8789  -4.7805
     0.0709   0.3291   1.1191   1.2454   3.3728   3.5300   4.0446   4.2069
     4.4571   5.1433   5.4264   5.7433   5.9306   6.0716   6.6281   6.8826
     9.2675   9.9641  10.0540  10.3496  10.7335  10.9294  11.2813  11.6132
    12.0491  12.3391

     occupation numbers 
     1.0000   1.0000   1.0000   1.0000   1.0000   1.0000   1.0000   1.0000
     1.0000   1.0000   1.0000   1.0000   1.0000   1.0000   1.0000   1.0000
     1.0000   1.0000   1.0000   1.0000   1.0000   1.0000   1.0000   1.0000
     1.0000   1.0000   1.0000   1.0000   1.0000   1.0000   1.0000   1.0000
     1.0000   1.0000   1.0000   1.0000   1.0000   1.0000   1.0000   1.0000
     0.0000   0.0000   0.0000   0.0000   0.0000   0.0000   0.0000   0.0000
     0.0000   0.0000

          k = 0.3750 0.4095 0.0000 (  4099 PWs)   bands (ev):

   -13.7575 -13.7561 -13.7511 -13.7504 -13.7369 -13.7347 -13.7304 -13.7300
   -13.7265 -13.7258 -13.7174 -13.7144 -13.7052 -13.7032 -13.6935 -13.6935
   -13.6814 -13.6798 -13.6728 -13.6724  -5.0617  -4.9124  -4.8556  -4.7347
     0.2958   0.6681   1.0565   1.0850   2.8579   3.3799   3.4619   3.8263
     4.2586   4.6472   4.6653   5.2855   5.5395   5.7048   6.4896   6.5225
     8.8941  10.2654  10.5992  10.7946  11.6218  11.6683  11.9405  12.2581
    12.4489  12.6882

     occupation numbers 
     1.0000   1.0000   1.0000   1.0000   1.0000   1.0000   1.0000   1.0000
     1.0000   1.0000   1.0000   1.0000   1.0000   1.0000   1.0000   1.0000
     1.0000   1.0000   1.0000   1.0000   1.0000   1.0000   1.0000   1.0000
     1.0000   1.0000   1.0000   1.0000   1.0000   1.0000   1.0000   1.0000
     1.0000   1.0000   1.0000   1.0000   1.0000   1.0000   1.0000   1.0000
     0.0000   0.0000   0.0000   0.0000   0.0000   0.0000   0.0000   0.0000
     0.0000   0.0000

          k = 0.3750 0.4095 0.1315 (  4109 PWs)   bands (ev):

   -13.7565 -13.7554 -13.7522 -13.7514 -13.7359 -13.7344 -13.7319 -13.7313
   -13.7251 -13.7247 -13.7177 -13.7162 -13.7034 -13.7024 -13.6946 -13.6943
   -13.6805 -13.6797 -13.6729 -13.6727  -5.0371  -4.9731  -4.8021  -4.7523
     0.3903   0.5824   1.0314   1.0563   2.9883   3.2632   3.5810   3.9406
     4.0989   4.5326   4.6282   5.2115   5.5804   6.0309   6.2521   6.5374
     9.4729  10.0627  10.4128  10.7503  10.9750  11.2662  12.0440  12.1755
    12.4467  12.6693

     occupation numbers 
     1.0000   1.0000   1.0000   1.0000   1.0000   1.0000   1.0000   1.0000
     1.0000   1.0000   1.0000   1.0000   1.0000   1.0000   1.0000   1.0000
     1.0000   1.0000   1.0000   1.0000   1.0000   1.0000   1.0000   1.0000
     1.0000   1.0000   1.0000   1.0000   1.0000   1.0000   1.0000   1.0000
     1.0000   1.0000   1.0000   1.0000   1.0000   1.0000   1.0000   1.0000
     0.0000   0.0000   0.0000   0.0000   0.0000   0.0000   0.0000   0.0000
     0.0000   0.0000

          k = 0.3750-0.5460 0.0000 (  4100 PWs)   bands (ev):

   -13.7587 -13.7587 -13.7533 -13.7533 -13.7348 -13.7348 -13.7279 -13.7279
   -13.7243 -13.7243 -13.7179 -13.7179 -13.7028 -13.7028 -13.6952 -13.6952
   -13.6780 -13.6780 -13.6736 -13.6736  -4.8431  -4.8431  -4.8202  -4.8202
     0.6381   0.6381   0.9201   0.9201   3.0095   3.0095   3.6207   3.6207
     4.1384   4.1384   4.9273   4.9273   5.3225   5.3225   6.3937   6.3937
     9.6443   9.6443  10.8472  10.8472  11.9161  11.9161  12.1271  12.1271
    12.5621  12.5621

     occupation numbers 
     1.0000   1.0000   1.0000   1.0000   1.0000   1.0000   1.0000   1.0000
     1.0000   1.0000   1.0000   1.0000   1.0000   1.0000   1.0000   1.0000
     1.0000   1.0000   1.0000   1.0000   1.0000   1.0000   1.0000   1.0000
     1.0000   1.0000   1.0000   1.0000   1.0000   1.0000   1.0000   1.0000
     1.0000   1.0000   1.0000   1.0000   1.0000   1.0000   1.0000   1.0000
     0.0000   0.0000   0.0000   0.0000   0.0000   0.0000   0.0000   0.0000
     0.0000   0.0000

          k = 0.3750-0.5460 0.1315 (  4100 PWs)   bands (ev):

   -13.7573 -13.7573 -13.7546 -13.7546 -13.7337 -13.7337 -13.7306 -13.7306
   -13.7219 -13.7219 -13.7192 -13.7192 -13.7007 -13.7007 -13.6969 -13.6969
   -13.6767 -13.6767 -13.6745 -13.6745  -4.8374  -4.8374  -4.8260  -4.8260
     0.7000   0.7000   0.8397   0.8397   3.1704   3.1704   3.5563   3.5563
     4.0710   4.0710   4.5747   4.5747   5.7920   5.7920   6.3325   6.3325
     9.8043   9.8043  10.4388  10.4388  11.6878  11.6878  11.7653  11.7653
    13.2357  13.2357

     occupation numbers 
     1.0000   1.0000   1.0000   1.0000   1.0000   1.0000   1.0000   1.0000
     1.0000   1.0000   1.0000   1.0000   1.0000   1.0000   1.0000   1.0000
     1.0000   1.0000   1.0000   1.0000   1.0000   1.0000   1.0000   1.0000
     1.0000   1.0000   1.0000   1.0000   1.0000   1.0000   1.0000   1.0000
     1.0000   1.0000   1.0000   1.0000   1.0000   1.0000   1.0000   1.0000
     0.0000   0.0000   0.0000   0.0000   0.0000   0.0000   0.0000   0.0000
     0.0000   0.0000

          k =-0.5000 0.0000 0.0000 (  4068 PWs)   bands (ev):

   -13.7507 -13.7507 -13.7438 -13.7438 -13.7433 -13.7433 -13.7350 -13.7350
   -13.7248 -13.7248 -13.7127 -13.7127 -13.7104 -13.7104 -13.6901 -13.6901
   -13.6846 -13.6846 -13.6717 -13.6717  -5.3225  -5.3225  -5.0301  -5.0301
    -0.2799  -0.2799   1.0614   1.0614   4.0231   4.0231   5.5187   5.5187
     5.8638   5.8638   6.2738   6.2738   6.7289   6.7289   7.3624   7.3624
     8.8183   8.8183   9.2690   9.2690   9.3865   9.3865  10.2201  10.2201
    10.9299  10.9299

     occupation numbers 
     1.0000   1.0000   1.0000   1.0000   1.0000   1.0000   1.0000   1.0000
     1.0000   1.0000   1.0000   1.0000   1.0000   1.0000   1.0000   1.0000
     1.0000   1.0000   1.0000   1.0000   1.0000   1.0000   1.0000   1.0000
     1.0000   1.0000   1.0000   1.0000   1.0000   1.0000   1.0000   1.0000
     1.0000   1.0000   1.0000   1.0000   1.0000   1.0000   1.0000   1.0000
     0.0000   0.0000   0.0000   0.0000   0.0000   0.0000   0.0000   0.0000
     0.0000   0.0000

          k =-0.5000 0.0000 0.1315 (  4114 PWs)   bands (ev):

   -13.7506 -13.7506 -13.7435 -13.7435 -13.7435 -13.7435 -13.7357 -13.7357
   -13.7244 -13.7244 -13.7125 -13.7125 -13.7106 -13.7106 -13.6900 -13.6900
   -13.6848 -13.6848 -13.6717 -13.6717  -5.3207  -5.3207  -5.0327  -5.0327
    -0.2317  -0.2317   0.9425   0.9425   4.4629   4.4629   5.5068   5.5068
     5.5256   5.5256   5.8538   5.8538   7.0239   7.0239   7.3521   7.3521
     8.7784   8.7784   9.3616   9.3616   9.4221   9.4221  10.5857  10.5857
    10.8650  10.8650

     occupation numbers 
     1.0000   1.0000   1.0000   1.0000   1.0000   1.0000   1.0000   1.0000
     1.0000   1.0000   1.0000   1.0000   1.0000   1.0000   1.0000   1.0000
     1.0000   1.0000   1.0000   1.0000   1.0000   1.0000   1.0000   1.0000
     1.0000   1.0000   1.0000   1.0000   1.0000   1.0000   1.0000   1.0000
     1.0000   1.0000   1.0000   1.0000   1.0000   1.0000   1.0000   1.0000
     0.0000   0.0000   0.0000   0.0000   0.0000   0.0000   0.0000   0.0000
     0.0000   0.0000

          k =-0.5000 0.1365 0.0000 (  4074 PWs)   bands (ev):

   -13.7496 -13.7496 -13.7452 -13.7452 -13.7404 -13.7404 -13.7377 -13.7377
   -13.7262 -13.7262 -13.7123 -13.7123 -13.7090 -13.7090 -13.6889 -13.6889
   -13.6857 -13.6857 -13.6719 -13.6719  -5.2642  -5.2642  -4.9883  -4.9883
    -0.1808  -0.1808   1.1141   1.1141   4.0136   4.0136   4.7657   4.7657
     5.1471   5.1471   6.1183   6.1183   6.9675   6.9675   7.1222   7.1222
     8.7410   8.7410   9.3107   9.3107  10.3624  10.3624  10.7977  10.7977
    11.4731  11.4731

     occupation numbers 
     1.0000   1.0000   1.0000   1.0000   1.0000   1.0000   1.0000   1.0000
     1.0000   1.0000   1.0000   1.0000   1.0000   1.0000   1.0000   1.0000
     1.0000   1.0000   1.0000   1.0000   1.0000   1.0000   1.0000   1.0000
     1.0000   1.0000   1.0000   1.0000   1.0000   1.0000   1.0000   1.0000
     1.0000   1.0000   1.0000   1.0000   1.0000   1.0000   1.0000   1.0000
     0.0000   0.0000   0.0000   0.0000   0.0000   0.0000   0.0000   0.0000
     0.0000   0.0000

          k =-0.5000 0.1365 0.1315 (  4090 PWs)   bands (ev):

   -13.7488 -13.7488 -13.7466 -13.7466 -13.7399 -13.7399 -13.7377 -13.7377
   -13.7259 -13.7259 -13.7126 -13.7126 -13.7090 -13.7090 -13.6886 -13.6886
   -13.6863 -13.6863 -13.6717 -13.6717  -5.2625  -5.2625  -4.9907  -4.9907
    -0.1358  -0.1358   1.0059   1.0059   4.3203   4.3203   4.7602   4.7602
     5.1629   5.1629   5.7789   5.7789   6.8146   6.8146   7.0568   7.0568
     9.1708   9.1708   9.5290   9.5290  10.1535  10.1535  10.7763  10.7763
    11.5293  11.5293

     occupation numbers 
     1.0000   1.0000   1.0000   1.0000   1.0000   1.0000   1.0000   1.0000
     1.0000   1.0000   1.0000   1.0000   1.0000   1.0000   1.0000   1.0000
     1.0000   1.0000   1.0000   1.0000   1.0000   1.0000   1.0000   1.0000
     1.0000   1.0000   1.0000   1.0000   1.0000   1.0000   1.0000   1.0000
     1.0000   1.0000   1.0000   1.0000   1.0000   1.0000   1.0000   1.0000
     0.0000   0.0000   0.0000   0.0000   0.0000   0.0000   0.0000   0.0000
     0.0000   0.0000

          k =-0.5000 0.2730 0.0000 (  4094 PWs)   bands (ev):

   -13.7533 -13.7533 -13.7452 -13.7452 -13.7397 -13.7397 -13.7357 -13.7357
   -13.7272 -13.7272 -13.7129 -13.7129 -13.7064 -13.7064 -13.6896 -13.6896
   -13.6850 -13.6850 -13.6721 -13.6721  -5.1110  -5.1110  -4.8876  -4.8876
     0.0978   0.0978   1.2092   1.2092   3.5846   3.5846   3.8972   3.8972
     4.6156   4.6156   5.4029   5.4029   6.1732   6.1732   6.7766   6.7766
     9.0281   9.0281  10.6277  10.6277  11.4847  11.4847  11.8900  11.8900
    12.1708  12.1709

     occupation numbers 
     1.0000   1.0000   1.0000   1.0000   1.0000   1.0000   1.0000   1.0000
     1.0000   1.0000   1.0000   1.0000   1.0000   1.0000   1.0000   1.0000
     1.0000   1.0000   1.0000   1.0000   1.0000   1.0000   1.0000   1.0000
     1.0000   1.0000   1.0000   1.0000   1.0000   1.0000   1.0000   1.0000
     1.0000   1.0000   1.0000   1.0000   1.0000   1.0000   1.0000   1.0000
     0.0000   0.0000   0.0000   0.0000   0.0000   0.0000   0.0000   0.0000
     0.0000   0.0000

          k =-0.5000 0.2730 0.1315 (  4090 PWs)   bands (ev):

   -13.7527 -13.7527 -13.7469 -13.7469 -13.7388 -13.7388 -13.7352 -13.7352
   -13.7270 -13.7270 -13.7138 -13.7138 -13.7057 -13.7057 -13.6902 -13.6902
   -13.6848 -13.6848 -13.6718 -13.6718  -5.1096  -5.1096  -4.8894  -4.8894
     0.1320   0.1320   1.1363   1.1363   3.6476   3.6476   3.8429   3.8429
     4.8431   4.8431   5.4447   5.4447   5.9210   5.9210   6.5836   6.5836
     9.6114   9.6114  10.7546  10.7546  10.8828  10.8828  11.5210  11.5210
    12.2892  12.2892

     occupation numbers 
     1.0000   1.0000   1.0000   1.0000   1.0000   1.0000   1.0000   1.0000
     1.0000   1.0000   1.0000   1.0000   1.0000   1.0000   1.0000   1.0000
     1.0000   1.0000   1.0000   1.0000   1.0000   1.0000   1.0000   1.0000
     1.0000   1.0000   1.0000   1.0000   1.0000   1.0000   1.0000   1.0000
     1.0000   1.0000   1.0000   1.0000   1.0000   1.0000   1.0000   1.0000
     0.0000   0.0000   0.0000   0.0000   0.0000   0.0000   0.0000   0.0000
     0.0000   0.0000

          k =-0.5000 0.4095 0.0000 (  4094 PWs)   bands (ev):

   -13.7580 -13.7580 -13.7517 -13.7517 -13.7359 -13.7359 -13.7301 -13.7301
   -13.7259 -13.7259 -13.7155 -13.7155 -13.7036 -13.7036 -13.6930 -13.6930
   -13.6807 -13.6807 -13.6725 -13.6725  -4.9269  -4.9269  -4.7978  -4.7978
     0.4868   0.4868   1.1636   1.1636   2.9643   2.9643   3.5389   3.5389
     4.1810   4.1810   4.9788   4.9788   5.4271   5.4271   6.4211   6.4211
     9.6152   9.6152  11.0239  11.0239  12.0861  12.0861  12.2930  12.2930
    12.6364  12.6364

     occupation numbers 
     1.0000   1.0000   1.0000   1.0000   1.0000   1.0000   1.0000   1.0000
     1.0000   1.0000   1.0000   1.0000   1.0000   1.0000   1.0000   1.0000
     1.0000   1.0000   1.0000   1.0000   1.0000   1.0000   1.0000   1.0000
     1.0000   1.0000   1.0000   1.0000   1.0000   1.0000   1.0000   1.0000
     1.0000   1.0000   1.0000   1.0000   1.0000   1.0000   1.0000   1.0000
     0.0000   0.0000   0.0000   0.0000   0.0000   0.0000   0.0000   0.0000
     0.0000   0.0000

          k =-0.5000 0.4095 0.1315 (  4102 PWs)   bands (ev):

   -13.7570 -13.7570 -13.7527 -13.7527 -13.7353 -13.7353 -13.7314 -13.7314
   -13.7246 -13.7246 -13.7166 -13.7166 -13.7022 -13.7022 -13.6940 -13.6940
   -13.6802 -13.6802 -13.6728 -13.6728  -4.9260  -4.9260  -4.7989  -4.7989
     0.5029   0.5029   1.1320   1.1320   3.0944   3.0944   3.4247   3.4247
     4.1927   4.1927   4.7357   4.7357   5.7626   5.7626   6.3597   6.3597
     9.7477   9.7477  10.6586  10.6586  11.8582  11.8582  11.9676  11.9676
    13.2373  13.2374

     occupation numbers 
     1.0000   1.0000   1.0000   1.0000   1.0000   1.0000   1.0000   1.0000
     1.0000   1.0000   1.0000   1.0000   1.0000   1.0000   1.0000   1.0000
     1.0000   1.0000   1.0000   1.0000   1.0000   1.0000   1.0000   1.0000
     1.0000   1.0000   1.0000   1.0000   1.0000   1.0000   1.0000   1.0000
     1.0000   1.0000   1.0000   1.0000   1.0000   1.0000   1.0000   1.0000
     0.0000   0.0000   0.0000   0.0000   0.0000   0.0000   0.0000   0.0000
     0.0000   0.0000

          k =-0.5000-0.5460 0.0000 (  4060 PWs)   bands (ev):

   -13.7599 -13.7599 -13.7542 -13.7542 -13.7348 -13.7348 -13.7276 -13.7276
   -13.7240 -13.7240 -13.7177 -13.7177 -13.7023 -13.7023 -13.6944 -13.6944
   -13.6781 -13.6781 -13.6734 -13.6734  -4.8070  -4.8070  -4.7975  -4.7975
     0.8096   0.8096   0.9541   0.9541   2.8053   2.8053   3.3737   3.3737
     4.0581   4.0581   4.5956   4.5956   5.3847   5.3847   6.2430   6.2430
    10.1764  10.1764  10.5215  10.5215  12.1542  12.1542  12.2796  12.2796
    13.0683  13.0683

     occupation numbers 
     1.0000   1.0000   1.0000   1.0000   1.0000   1.0000   1.0000   1.0000
     1.0000   1.0000   1.0000   1.0000   1.0000   1.0000   1.0000   1.0000
     1.0000   1.0000   1.0000   1.0000   1.0000   1.0000   1.0000   1.0000
     1.0000   1.0000   1.0000   1.0000   1.0000   1.0000   1.0000   1.0000
     1.0000   1.0000   1.0000   1.0000   1.0000   1.0000   1.0000   1.0000
     0.0000   0.0000   0.0000   0.0000   0.0000   0.0000   0.0000   0.0000
     0.0000   0.0000

          k =-0.5000-0.5460 0.1315 (  4072 PWs)   bands (ev):

   -13.7585 -13.7585 -13.7556 -13.7556 -13.7338 -13.7338 -13.7306 -13.7306
   -13.7216 -13.7216 -13.7189 -13.7189 -13.7001 -13.7001 -13.6963 -13.6963
   -13.6768 -13.6768 -13.6745 -13.6745  -4.8046  -4.8046  -4.7999  -4.7999
     0.8372   0.8372   0.9087   0.9087   2.9965   2.9965   3.3973   3.3973
     3.8438   3.8438   4.2556   4.2556   5.8568   5.8568   6.2842   6.2842
     9.9721   9.9721  10.2069  10.2069  12.1586  12.1586  12.1846  12.1846
    13.7440  13.7440

     occupation numbers 
     1.0000   1.0000   1.0000   1.0000   1.0000   1.0000   1.0000   1.0000
     1.0000   1.0000   1.0000   1.0000   1.0000   1.0000   1.0000   1.0000
     1.0000   1.0000   1.0000   1.0000   1.0000   1.0000   1.0000   1.0000
     1.0000   1.0000   1.0000   1.0000   1.0000   1.0000   1.0000   1.0000
     1.0000   1.0000   1.0000   1.0000   1.0000   1.0000   1.0000   1.0000
     0.0000   0.0000   0.0000   0.0000   0.0000   0.0000   0.0000   0.0000
     0.0000   0.0000

     highest occupied, lowest unoccupied level (ev):     7.4869    8.2358

!    total energy              =    -827.74017415 Ry
     estimated scf accuracy    <          2.5E-09 Ry

     The total energy is the sum of the following terms:
     one-electron contribution =    -266.47101876 Ry
     hartree contribution      =     182.42924562 Ry
     xc contribution           =    -308.99344471 Ry
     ewald contribution        =    -434.58518412 Ry
     DFT-D3 Dispersion         =      -0.11977218 Ry

     convergence has been achieved in   9 iterations

     Forces acting on atoms (cartesian axes, Ry/au):

     atom    1 type  2   force =    -0.00030305    0.00000000   -0.00015141
     atom    2 type  1   force =    -0.00003096    0.00000000    0.00006194
     atom    3 type  2   force =    -0.00030305   -0.00000000    0.00015141
     atom    4 type  1   force =    -0.00003096    0.00000000   -0.00006194
     atom    5 type  2   force =     0.00030305    0.00000000   -0.00015141
     atom    6 type  1   force =     0.00003096    0.00000000    0.00006194
     atom    7 type  2   force =     0.00030305    0.00000000    0.00015141
     atom    8 type  1   force =     0.00003096    0.00000000   -0.00006194
     The non-local contrib.  to forces
     atom    1 type  2   force =     0.11388683    0.00000000   -0.10478625
     atom    2 type  1   force =     0.30211038   -0.00000000    0.34926037
     atom    3 type  2   force =     0.11388683    0.00000000    0.10478625
     atom    4 type  1   force =     0.30211038    0.00000000   -0.34926037
     atom    5 type  2   force =    -0.11388683   -0.00000000   -0.10478625
     atom    6 type  1   force =    -0.30211038    0.00000000    0.34926037
     atom    7 type  2   force =    -0.11388683    0.00000000    0.10478625
     atom    8 type  1   force =    -0.30211038   -0.00000000   -0.34926037
     The ionic contribution  to forces
     atom    1 type  2   force =    -1.31153196    0.00000000    1.14652820
     atom    2 type  1   force =    -0.74633219    0.00000000   -0.60889419
     atom    3 type  2   force =    -1.31153196    0.00000000   -1.14652820
     atom    4 type  1   force =    -0.74633219   -0.00000000    0.60889419
     atom    5 type  2   force =     1.31153196    0.00000000    1.14652820
     atom    6 type  1   force =     0.74633219    0.00000000   -0.60889419
     atom    7 type  2   force =     1.31153196   -0.00000000   -1.14652820
     atom    8 type  1   force =     0.74633219   -0.00000000    0.60889419
     The local contribution  to forces
     atom    1 type  2   force =     1.20847578   -0.00000000   -1.05313814
     atom    2 type  1   force =     0.44817818    0.00000000    0.26678335
     atom    3 type  2   force =     1.20847578   -0.00000000    1.05313814
     atom    4 type  1   force =     0.44817818    0.00000000   -0.26678335
     atom    5 type  2   force =    -1.20847578   -0.00000000   -1.05313814
     atom    6 type  1   force =    -0.44817818    0.00000000    0.26678335
     atom    7 type  2   force =    -1.20847578    0.00000000    1.05313814
     atom    8 type  1   force =    -0.44817818    0.00000000   -0.26678335
     The core correction contribution to forces
     atom    1 type  2   force =    -0.01279570   -0.00000000    0.01189837
     atom    2 type  1   force =    -0.00497693   -0.00000000   -0.00640606
     atom    3 type  2   force =    -0.01279570   -0.00000000   -0.01189837
     atom    4 type  1   force =    -0.00497693    0.00000000    0.00640606
     atom    5 type  2   force =     0.01279570    0.00000000    0.01189837
     atom    6 type  1   force =     0.00497693    0.00000000   -0.00640606
     atom    7 type  2   force =     0.01279570    0.00000000   -0.01189837
     atom    8 type  1   force =     0.00497693   -0.00000000    0.00640606
     The Hubbard contrib.    to forces
     atom    1 type  2   force =     0.00000000    0.00000000    0.00000000
     atom    2 type  1   force =     0.00000000    0.00000000    0.00000000
     atom    3 type  2   force =     0.00000000    0.00000000    0.00000000
     atom    4 type  1   force =     0.00000000    0.00000000    0.00000000
     atom    5 type  2   force =     0.00000000    0.00000000    0.00000000
     atom    6 type  1   force =     0.00000000    0.00000000    0.00000000
     atom    7 type  2   force =     0.00000000    0.00000000    0.00000000
     atom    8 type  1   force =     0.00000000    0.00000000    0.00000000
     The SCF correction term to forces
     atom    1 type  2   force =     0.00000193    0.00000000    0.00002493
     atom    2 type  1   force =     0.00001845   -0.00000000   -0.00005431
     atom    3 type  2   force =     0.00000193    0.00000000   -0.00002493
     atom    4 type  1   force =     0.00001845    0.00000000    0.00005431
     atom    5 type  2   force =    -0.00000193    0.00000000    0.00002493
     atom    6 type  1   force =    -0.00001845   -0.00000000   -0.00005431
     atom    7 type  2   force =    -0.00000193   -0.00000000   -0.00002493
     atom    8 type  1   force =    -0.00001845    0.00000000    0.00005431

     DFT-D3 dispersion contribution to forces:
     atom    1 type  2   force =     0.00166007   -0.00000000   -0.00067853
     atom    2 type  1   force =     0.00097115    0.00000000   -0.00062722
     atom    3 type  2   force =     0.00166007    0.00000000    0.00067853
     atom    4 type  1   force =     0.00097115   -0.00000000    0.00062722
     atom    5 type  2   force =    -0.00166007    0.00000000   -0.00067853
     atom    6 type  1   force =    -0.00097115    0.00000000   -0.00062722
     atom    7 type  2   force =    -0.00166007   -0.00000000    0.00067853
     atom    8 type  1   force =    -0.00097115   -0.00000000    0.00062722

     Total force =     0.000692     Total SCF correction =     0.000125

     DFT-D3 dispersion Force =     0.004267
     SCF correction compared to forces is large: reduce conv_thr to get better values

     Writing output data file ./tmp/SnSe_pnma.save/

     init_run     :      5.78s CPU      6.97s WALL (       1 calls)
     electrons    :    168.52s CPU    208.25s WALL (       1 calls)
     forces       :      5.97s CPU      6.32s WALL (       1 calls)

     Called by init_run:
     wfcinit      :      3.53s CPU      4.13s WALL (       1 calls)
     wfcinit:atom :      0.03s CPU      0.02s WALL (      17 calls)
     wfcinit:wfcr :      3.30s CPU      3.93s WALL (      17 calls)
     potinit      :      0.64s CPU      0.69s WALL (       1 calls)
     hinit0       :      1.01s CPU      1.03s WALL (       1 calls)

     Called by electrons:
     c_bands      :    145.92s CPU    181.43s WALL (       9 calls)
     sum_band     :     14.45s CPU     16.22s WALL (       9 calls)
     v_of_rho     :      1.71s CPU      1.97s WALL (      10 calls)
     v_h          :      0.13s CPU      0.15s WALL (      10 calls)
     v_xc         :      1.74s CPU      2.01s WALL (      11 calls)
     newd         :      6.27s CPU      9.07s WALL (      10 calls)
     mix_rho      :      0.26s CPU      0.27s WALL (       9 calls)

     Called by c_bands:
     init_us_2    :      1.03s CPU      0.86s WALL (     340 calls)
     cegterg      :    112.35s CPU    150.34s WALL (     153 calls)

     Called by sum_band:
     sum_band:wei :      0.02s CPU      0.01s WALL (       9 calls)
     sum_band:loo :     10.26s CPU     11.81s WALL (       9 calls)
     sum_band:buf :      0.08s CPU      0.07s WALL (     153 calls)
     sum_band:ini :      0.42s CPU      0.36s WALL (     153 calls)
     sum_band:cal :      3.31s CPU      5.49s WALL (     153 calls)
     sum_band:bec :      0.01s CPU      0.02s WALL (     153 calls)
     addusdens    :      2.69s CPU      3.03s WALL (       9 calls)
     addusd:skk   :      0.01s CPU      0.02s WALL (      18 calls)
     addusd:dgemm :      0.95s CPU      0.99s WALL (      18 calls)
     addusd:qvan2 :      1.38s CPU      1.35s WALL (      18 calls)

     Called by *egterg:
     cdiaghg      :     24.12s CPU     56.96s WALL (     704 calls)
     cegterg:over :     17.16s CPU     23.60s WALL (     551 calls)
     cegterg:upda :      3.22s CPU      4.05s WALL (     551 calls)
     cegterg:last :      4.83s CPU      3.34s WALL (     307 calls)
     h_psi        :     50.36s CPU     50.31s WALL (     721 calls)
     s_psi        :      5.89s CPU      3.49s WALL (     721 calls)
     g_psi        :      0.31s CPU      0.27s WALL (     551 calls)

     Called by h_psi:
     h_psi:calbec :     14.09s CPU     19.23s WALL (     721 calls)
     vloc_psi     :     29.82s CPU     27.18s WALL (     721 calls)
     add_vuspsi   :      6.22s CPU      3.65s WALL (     721 calls)

     General routines
     calbec       :     19.40s CPU     26.99s WALL (     942 calls)
     fft          :      1.49s CPU      1.60s WALL (     139 calls)
     ffts         :      0.09s CPU      0.08s WALL (      19 calls)
     fftw         :     30.96s CPU     28.21s WALL (   47940 calls)
     interpolate  :      0.13s CPU      0.14s WALL (      10 calls)

     Parallel routines
     fft_scatt_xy :      5.10s CPU      4.64s WALL (   48098 calls)
     fft_scatt_yz :     10.40s CPU      9.67s WALL (   48098 calls)

     PWSCF        :   3m 0.56s CPU   3m41.97s WALL


   This run was terminated on:  12:26:37  22May2026            

=------------------------------------------------------------------------------=
   JOB DONE.
=------------------------------------------------------------------------------=
