
     Program PWSCF v.6.7MaX starts on 23May2026 at 14:55:10 

     This program is part of the open-source Quantum ESPRESSO suite
     for quantum simulation of materials; please cite
         "P. Giannozzi et al., J. Phys.:Condens. Matter 21 395502 (2009);
         "P. Giannozzi et al., J. Phys.:Condens. Matter 29 465901 (2017);
          URL http://www.quantum-espresso.org", 
     in publications or presentations arising from this work. More details at
     http://www.quantum-espresso.org/quote

     Parallel version (MPI), running on     4 processors

     MPI processes distributed on     1 nodes
     R & G space division:  proc/nbgrp/npool/nimage =       4
     Waiting for input...
     Reading input from standard input

     Current dimensions of program PWSCF are:
     Max number of different atomic species (ntypx) = 10
     Max number of k-points (npk) =  40000
     Max angular momentum in pseudopotentials (lmaxx) =  3

     Atomic positions and unit cell read from directory:
     ./tmp/SnSe_pnma.save/
     Atomic positions from file used, from input discarded


     --------------------------------------------
     Parameters for DFT-D3 Dispersion Correction:
     --------------------------------------------
       Reference C6 values for interpolation: 

         atom   Coordination number   C6
         Se         0.000           427.35
         Se         0.990           427.57
         Se         1.981           421.05
         Sn         0.000          1255.14
         Sn         0.951          1084.09
         Sn         1.950          1010.83
         Sn         2.926           818.29
         Sn         3.912           672.20

       Values used:

         atom   Coordination number  R0_AB[au]  C6      C8
         Se         3.412            3.332    421.05  29958.36
         Sn         4.106            3.957    672.80  84444.47
         Se         3.412            3.332    421.05  29958.36
         Sn         4.106            3.957    672.80  84444.47
         Se         3.412            3.332    421.05  29958.36
         Sn         4.106            3.957    672.80  84444.47
         Se         3.412            3.332    421.05  29958.36
         Sn         4.106            3.957    672.80  84444.47

         Molecular C6 ( Ry / a.u.^6 ) =     34513.28


     Subspace diagonalization in iterative solution of the eigenvalue problem:
     one sub-group per band group will be used
     scalapack distributed-memory algorithm (size of sub-group:  2*  2 procs)


     Parallelization info
     --------------------
     sticks:   dense  smooth     PW     G-vecs:    dense   smooth      PW
     Min         407     160     50                32503     8205    1380
     Max         408     161     51                32504     8210    1381
     Sum        1629     641    203               130013    32833    5523



     bravais-lattice index     =            8
     lattice parameter (alat)  =       8.6086  a.u.
     unit-cell volume          =    1481.0643 (a.u.)^3
     number of atoms/cell      =            8
     number of atomic types    =            2
     number of electrons       =        80.00
     number of Kohn-Sham states=           50
     kinetic-energy cutoff     =      30.0000  Ry
     charge density cutoff     =     300.0000  Ry
     Exchange-correlation= SLA  PW   PBE  PBE
                           (   1   4   3   4   0   0   0)

     celldm(1)=   8.608647  celldm(2)=   0.915684  celldm(3)=   2.535265
     celldm(4)=   0.000000  celldm(5)=   0.000000  celldm(6)=   0.000000

     crystal axes: (cart. coord. in units of alat)
               a(1) = (   1.000000   0.000000   0.000000 )  
               a(2) = (   0.000000   0.915684   0.000000 )  
               a(3) = (   0.000000   0.000000   2.535265 )  

     reciprocal axes: (cart. coord. in units 2 pi/alat)
               b(1) = (  1.000000  0.000000  0.000000 )  
               b(2) = (  0.000000  1.092079  0.000000 )  
               b(3) = (  0.000000  0.000000  0.394436 )  


     PseudoPot. # 1 for Sn read from file:
     ../pseudo/Sn_pbe_v1.uspp.F.UPF
     MD5 check sum: 4cf58ce39ec5d5d420df3dd08604eb00
     Pseudo is Ultrasoft + core correction, Zval = 14.0
     Generated by new atomic code, or converted to UPF format
     Using radial grid of  891 points,  6 beta functions with: 
                l(1) =   0
                l(2) =   0
                l(3) =   1
                l(4) =   1
                l(5) =   2
                l(6) =   2
     Q(r) pseudized with  6 coefficients,  rinner =    1.200   1.200   1.200
                                                       1.200   1.200

     PseudoPot. # 2 for Se read from file:
     ../pseudo/Se_pbe_v1.uspp.F.UPF
     MD5 check sum: 1b3568f3a8ae88f9a2a0ad0698632c85
     Pseudo is Ultrasoft + core correction, Zval =  6.0
     Generated by new atomic code, or converted to UPF format
     Using radial grid of  877 points,  6 beta functions with: 
                l(1) =   0
                l(2) =   0
                l(3) =   1
                l(4) =   1
                l(5) =   2
                l(6) =   2
     Q(r) pseudized with  8 coefficients,  rinner =    1.300   1.300   1.300
                                                       1.300   1.300

     atomic species   valence    mass     pseudopotential
        Sn            14.00   118.71000     Sn( 1.00)
        Se             6.00    78.97100     Se( 1.00)

      8 Sym. Ops., with inversion, found ( 6 have fractional translation)


                                    s                        frac. trans.

      isym =  1     identity                                     

 cryst.   s( 1) = (     1          0          0      )
                  (     0          1          0      )
                  (     0          0          1      )

 cart.    s( 1) = (  1.0000000  0.0000000  0.0000000 )
                  (  0.0000000  1.0000000  0.0000000 )
                  (  0.0000000  0.0000000  1.0000000 )


      isym =  2     180 deg rotation - cart. axis [0,0,1]        

 cryst.   s( 2) = (    -1          0          0      )    f =(  0.5000000 )
                  (     0         -1          0      )       (  0.5000000 )
                  (     0          0          1      )       (  0.5000000 )

 cart.    s( 2) = ( -1.0000000  0.0000000  0.0000000 )    f =(  0.5000000 )
                  (  0.0000000 -1.0000000  0.0000000 )       (  0.4578422 )
                  (  0.0000000  0.0000000  1.0000000 )       (  1.2676325 )


      isym =  3     180 deg rotation - cart. axis [0,1,0]        

 cryst.   s( 3) = (    -1          0          0      )    f =(  0.0000000 )
                  (     0          1          0      )       (  0.5000000 )
                  (     0          0         -1      )       (  0.0000000 )

 cart.    s( 3) = ( -1.0000000  0.0000000  0.0000000 )    f =(  0.0000000 )
                  (  0.0000000  1.0000000  0.0000000 )       (  0.4578422 )
                  (  0.0000000  0.0000000 -1.0000000 )       (  0.0000000 )


      isym =  4     180 deg rotation - cart. axis [1,0,0]        

 cryst.   s( 4) = (     1          0          0      )    f =( -0.5000000 )
                  (     0         -1          0      )       (  0.0000000 )
                  (     0          0         -1      )       ( -0.5000000 )

 cart.    s( 4) = (  1.0000000  0.0000000  0.0000000 )    f =( -0.5000000 )
                  (  0.0000000 -1.0000000  0.0000000 )       (  0.0000000 )
                  (  0.0000000  0.0000000 -1.0000000 )       ( -1.2676325 )


      isym =  5     inversion                                    

 cryst.   s( 5) = (    -1          0          0      )
                  (     0         -1          0      )
                  (     0          0         -1      )

 cart.    s( 5) = ( -1.0000000  0.0000000  0.0000000 )
                  (  0.0000000 -1.0000000  0.0000000 )
                  (  0.0000000  0.0000000 -1.0000000 )


      isym =  6     inv. 180 deg rotation - cart. axis [0,0,1]   

 cryst.   s( 6) = (     1          0          0      )    f =( -0.5000000 )
                  (     0          1          0      )       (  0.5000000 )
                  (     0          0         -1      )       ( -0.5000000 )

 cart.    s( 6) = (  1.0000000  0.0000000  0.0000000 )    f =( -0.5000000 )
                  (  0.0000000  1.0000000  0.0000000 )       (  0.4578422 )
                  (  0.0000000  0.0000000 -1.0000000 )       ( -1.2676325 )


      isym =  7     inv. 180 deg rotation - cart. axis [0,1,0]   

 cryst.   s( 7) = (     1          0          0      )    f =(  0.0000000 )
                  (     0         -1          0      )       (  0.5000000 )
                  (     0          0          1      )       (  0.0000000 )

 cart.    s( 7) = (  1.0000000  0.0000000  0.0000000 )    f =(  0.0000000 )
                  (  0.0000000 -1.0000000  0.0000000 )       (  0.4578422 )
                  (  0.0000000  0.0000000  1.0000000 )       (  0.0000000 )


      isym =  8     inv. 180 deg rotation - cart. axis [1,0,0]   

 cryst.   s( 8) = (    -1          0          0      )    f =(  0.5000000 )
                  (     0          1          0      )       (  0.0000000 )
                  (     0          0          1      )       (  0.5000000 )

 cart.    s( 8) = ( -1.0000000  0.0000000  0.0000000 )    f =(  0.5000000 )
                  (  0.0000000  1.0000000  0.0000000 )       (  0.0000000 )
                  (  0.0000000  0.0000000  1.0000000 )       (  1.2676325 )


     point group D_2h (mmm) 
     there are  8 classes
     the character table:

       E     C2    C2'   C2''  i     s_v   s_v'  s_v''
A_g    1.00  1.00  1.00  1.00  1.00  1.00  1.00  1.00
B_1g   1.00  1.00 -1.00 -1.00  1.00  1.00 -1.00 -1.00
B_2g   1.00 -1.00  1.00 -1.00  1.00 -1.00  1.00 -1.00
B_3g   1.00 -1.00 -1.00  1.00  1.00 -1.00 -1.00  1.00
A_u    1.00  1.00  1.00  1.00 -1.00 -1.00 -1.00 -1.00
B_1u   1.00  1.00 -1.00 -1.00 -1.00 -1.00  1.00  1.00
B_2u   1.00 -1.00  1.00 -1.00 -1.00  1.00 -1.00  1.00
B_3u   1.00 -1.00 -1.00  1.00 -1.00  1.00  1.00 -1.00

     the symmetry operations in each class and the name of the first element:

     E        1
          identity                                               
     C2       2
          180 deg rotation - cart. axis [0,0,1]                  
     C2'      4
          180 deg rotation - cart. axis [1,0,0]                  
     C2''     3
          180 deg rotation - cart. axis [0,1,0]                  
     i        5
          inversion                                              
     s_v      6
          inv. 180 deg rotation - cart. axis [0,0,1]             
     s_v'     8
          inv. 180 deg rotation - cart. axis [1,0,0]             
     s_v''    7
          inv. 180 deg rotation - cart. axis [0,1,0]             

   Cartesian axes

     site n.     atom                  positions (alat units)
         1           Se  tau(   1) = (   0.4832481   0.6867633   2.1675410  )
         2           Sn  tau(   2) = (   0.1122870   0.6867633   0.2954585  )
         3           Se  tau(   3) = (   0.9832481   0.2289211   1.6353566  )
         4           Sn  tau(   4) = (   0.6122870   0.2289211   0.9721740  )
         5           Se  tau(   5) = (   0.0167519   0.6867633   0.8999084  )
         6           Sn  tau(   6) = (   0.3877130   0.6867633   1.5630911  )
         7           Se  tau(   7) = (   0.5167519   0.2289211   0.3677241  )
         8           Sn  tau(   8) = (   0.8877130   0.2289211   2.2398065  )

   Crystallographic axes

     site n.     atom                  positions (cryst. coord.)
         1           Se  tau(   1) = (  0.4832481  0.7500000  0.8549563  )
         2           Sn  tau(   2) = (  0.1122870  0.7500000  0.1165395  )
         3           Se  tau(   3) = (  0.9832481  0.2500000  0.6450437  )
         4           Sn  tau(   4) = (  0.6122870  0.2500000  0.3834605  )
         5           Se  tau(   5) = (  0.0167519  0.7500000  0.3549563  )
         6           Sn  tau(   6) = (  0.3877130  0.7500000  0.6165395  )
         7           Se  tau(   7) = (  0.5167519  0.2500000  0.1450437  )
         8           Sn  tau(   8) = (  0.8877130  0.2500000  0.8834605  )

     number of k points=   271
                       cart. coord. in units 2pi/alat
        k(    1) = (   0.0000000   0.0000000   0.0000000), wk =   0.0073801
        k(    2) = (   0.0166667   0.0000000   0.0000000), wk =   0.0073801
        k(    3) = (   0.0333333   0.0000000   0.0000000), wk =   0.0073801
        k(    4) = (   0.0500000   0.0000000   0.0000000), wk =   0.0073801
        k(    5) = (   0.0666667   0.0000000   0.0000000), wk =   0.0073801
        k(    6) = (   0.0833333   0.0000000   0.0000000), wk =   0.0073801
        k(    7) = (   0.1000000   0.0000000   0.0000000), wk =   0.0073801
        k(    8) = (   0.1166667   0.0000000   0.0000000), wk =   0.0073801
        k(    9) = (   0.1333333   0.0000000   0.0000000), wk =   0.0073801
        k(   10) = (   0.1500000   0.0000000   0.0000000), wk =   0.0073801
        k(   11) = (   0.1666667   0.0000000   0.0000000), wk =   0.0073801
        k(   12) = (   0.1833333   0.0000000   0.0000000), wk =   0.0073801
        k(   13) = (   0.2000000   0.0000000   0.0000000), wk =   0.0073801
        k(   14) = (   0.2166667   0.0000000   0.0000000), wk =   0.0073801
        k(   15) = (   0.2333333   0.0000000   0.0000000), wk =   0.0073801
        k(   16) = (   0.2500000   0.0000000   0.0000000), wk =   0.0073801
        k(   17) = (   0.2666667   0.0000000   0.0000000), wk =   0.0073801
        k(   18) = (   0.2833333   0.0000000   0.0000000), wk =   0.0073801
        k(   19) = (   0.3000000   0.0000000   0.0000000), wk =   0.0073801
        k(   20) = (   0.3166667   0.0000000   0.0000000), wk =   0.0073801
        k(   21) = (   0.3333333   0.0000000   0.0000000), wk =   0.0073801
        k(   22) = (   0.3500000   0.0000000   0.0000000), wk =   0.0073801
        k(   23) = (   0.3666667   0.0000000   0.0000000), wk =   0.0073801
        k(   24) = (   0.3833333   0.0000000   0.0000000), wk =   0.0073801
        k(   25) = (   0.4000000   0.0000000   0.0000000), wk =   0.0073801
        k(   26) = (   0.4166667   0.0000000   0.0000000), wk =   0.0073801
        k(   27) = (   0.4333333   0.0000000   0.0000000), wk =   0.0073801
        k(   28) = (   0.4500000   0.0000000   0.0000000), wk =   0.0073801
        k(   29) = (   0.4666667   0.0000000   0.0000000), wk =   0.0073801
        k(   30) = (   0.4833333   0.0000000   0.0000000), wk =   0.0073801
        k(   31) = (   0.5000000   0.0000000   0.0000000), wk =   0.0073801
        k(   32) = (   0.5000000   0.0182013   0.0000000), wk =   0.0073801
        k(   33) = (   0.5000000   0.0364026   0.0000000), wk =   0.0073801
        k(   34) = (   0.5000000   0.0546040   0.0000000), wk =   0.0073801
        k(   35) = (   0.5000000   0.0728053   0.0000000), wk =   0.0073801
        k(   36) = (   0.5000000   0.0910066   0.0000000), wk =   0.0073801
        k(   37) = (   0.5000000   0.1092079   0.0000000), wk =   0.0073801
        k(   38) = (   0.5000000   0.1274093   0.0000000), wk =   0.0073801
        k(   39) = (   0.5000000   0.1456106   0.0000000), wk =   0.0073801
        k(   40) = (   0.5000000   0.1638119   0.0000000), wk =   0.0073801
        k(   41) = (   0.5000000   0.1820132   0.0000000), wk =   0.0073801
        k(   42) = (   0.5000000   0.2002146   0.0000000), wk =   0.0073801
        k(   43) = (   0.5000000   0.2184159   0.0000000), wk =   0.0073801
        k(   44) = (   0.5000000   0.2366172   0.0000000), wk =   0.0073801
        k(   45) = (   0.5000000   0.2548185   0.0000000), wk =   0.0073801
        k(   46) = (   0.5000000   0.2730198   0.0000000), wk =   0.0073801
        k(   47) = (   0.5000000   0.2912212   0.0000000), wk =   0.0073801
        k(   48) = (   0.5000000   0.3094225   0.0000000), wk =   0.0073801
        k(   49) = (   0.5000000   0.3276238   0.0000000), wk =   0.0073801
        k(   50) = (   0.5000000   0.3458251   0.0000000), wk =   0.0073801
        k(   51) = (   0.5000000   0.3640265   0.0000000), wk =   0.0073801
        k(   52) = (   0.5000000   0.3822278   0.0000000), wk =   0.0073801
        k(   53) = (   0.5000000   0.4004291   0.0000000), wk =   0.0073801
        k(   54) = (   0.5000000   0.4186304   0.0000000), wk =   0.0073801
        k(   55) = (   0.5000000   0.4368318   0.0000000), wk =   0.0073801
        k(   56) = (   0.5000000   0.4550331   0.0000000), wk =   0.0073801
        k(   57) = (   0.5000000   0.4732344   0.0000000), wk =   0.0073801
        k(   58) = (   0.5000000   0.4914357   0.0000000), wk =   0.0073801
        k(   59) = (   0.5000000   0.5096371   0.0000000), wk =   0.0073801
        k(   60) = (   0.5000000   0.5278384   0.0000000), wk =   0.0073801
        k(   61) = (   0.5000000   0.5460397   0.0000000), wk =   0.0073801
        k(   62) = (   0.4833333   0.5460397   0.0000000), wk =   0.0073801
        k(   63) = (   0.4666667   0.5460397   0.0000000), wk =   0.0073801
        k(   64) = (   0.4500000   0.5460397   0.0000000), wk =   0.0073801
        k(   65) = (   0.4333333   0.5460397   0.0000000), wk =   0.0073801
        k(   66) = (   0.4166667   0.5460397   0.0000000), wk =   0.0073801
        k(   67) = (   0.4000000   0.5460397   0.0000000), wk =   0.0073801
        k(   68) = (   0.3833333   0.5460397   0.0000000), wk =   0.0073801
        k(   69) = (   0.3666667   0.5460397   0.0000000), wk =   0.0073801
        k(   70) = (   0.3500000   0.5460397   0.0000000), wk =   0.0073801
        k(   71) = (   0.3333333   0.5460397   0.0000000), wk =   0.0073801
        k(   72) = (   0.3166667   0.5460397   0.0000000), wk =   0.0073801
        k(   73) = (   0.3000000   0.5460397   0.0000000), wk =   0.0073801
        k(   74) = (   0.2833333   0.5460397   0.0000000), wk =   0.0073801
        k(   75) = (   0.2666667   0.5460397   0.0000000), wk =   0.0073801
        k(   76) = (   0.2500000   0.5460397   0.0000000), wk =   0.0073801
        k(   77) = (   0.2333333   0.5460397   0.0000000), wk =   0.0073801
        k(   78) = (   0.2166667   0.5460397   0.0000000), wk =   0.0073801
        k(   79) = (   0.2000000   0.5460397   0.0000000), wk =   0.0073801
        k(   80) = (   0.1833333   0.5460397   0.0000000), wk =   0.0073801
        k(   81) = (   0.1666667   0.5460397   0.0000000), wk =   0.0073801
        k(   82) = (   0.1500000   0.5460397   0.0000000), wk =   0.0073801
        k(   83) = (   0.1333333   0.5460397   0.0000000), wk =   0.0073801
        k(   84) = (   0.1166667   0.5460397   0.0000000), wk =   0.0073801
        k(   85) = (   0.1000000   0.5460397   0.0000000), wk =   0.0073801
        k(   86) = (   0.0833333   0.5460397   0.0000000), wk =   0.0073801
        k(   87) = (   0.0666667   0.5460397   0.0000000), wk =   0.0073801
        k(   88) = (   0.0500000   0.5460397   0.0000000), wk =   0.0073801
        k(   89) = (   0.0333333   0.5460397   0.0000000), wk =   0.0073801
        k(   90) = (   0.0166667   0.5460397   0.0000000), wk =   0.0073801
        k(   91) = (   0.0000000   0.5460397   0.0000000), wk =   0.0073801
        k(   92) = (   0.0000000   0.5278384   0.0000000), wk =   0.0073801
        k(   93) = (   0.0000000   0.5096371   0.0000000), wk =   0.0073801
        k(   94) = (   0.0000000   0.4914357   0.0000000), wk =   0.0073801
        k(   95) = (   0.0000000   0.4732344   0.0000000), wk =   0.0073801
        k(   96) = (   0.0000000   0.4550331   0.0000000), wk =   0.0073801
        k(   97) = (   0.0000000   0.4368318   0.0000000), wk =   0.0073801
        k(   98) = (   0.0000000   0.4186304   0.0000000), wk =   0.0073801
        k(   99) = (   0.0000000   0.4004291   0.0000000), wk =   0.0073801
        k(  100) = (   0.0000000   0.3822278   0.0000000), wk =   0.0073801
        k(  101) = (   0.0000000   0.3640265   0.0000000), wk =   0.0073801
        k(  102) = (   0.0000000   0.3458251   0.0000000), wk =   0.0073801
        k(  103) = (   0.0000000   0.3276238   0.0000000), wk =   0.0073801
        k(  104) = (   0.0000000   0.3094225   0.0000000), wk =   0.0073801
        k(  105) = (   0.0000000   0.2912212   0.0000000), wk =   0.0073801
        k(  106) = (   0.0000000   0.2730198   0.0000000), wk =   0.0073801
        k(  107) = (   0.0000000   0.2548185   0.0000000), wk =   0.0073801
        k(  108) = (   0.0000000   0.2366172   0.0000000), wk =   0.0073801
        k(  109) = (   0.0000000   0.2184159   0.0000000), wk =   0.0073801
        k(  110) = (   0.0000000   0.2002146   0.0000000), wk =   0.0073801
        k(  111) = (   0.0000000   0.1820132   0.0000000), wk =   0.0073801
        k(  112) = (   0.0000000   0.1638119   0.0000000), wk =   0.0073801
        k(  113) = (   0.0000000   0.1456106   0.0000000), wk =   0.0073801
        k(  114) = (   0.0000000   0.1274093   0.0000000), wk =   0.0073801
        k(  115) = (   0.0000000   0.1092079   0.0000000), wk =   0.0073801
        k(  116) = (   0.0000000   0.0910066   0.0000000), wk =   0.0073801
        k(  117) = (   0.0000000   0.0728053   0.0000000), wk =   0.0073801
        k(  118) = (   0.0000000   0.0546040   0.0000000), wk =   0.0073801
        k(  119) = (   0.0000000   0.0364026   0.0000000), wk =   0.0073801
        k(  120) = (   0.0000000   0.0182013   0.0000000), wk =   0.0073801
        k(  121) = (   0.0000000   0.0000000   0.0000000), wk =   0.0073801
        k(  122) = (   0.0000000   0.0000000   0.0065739), wk =   0.0073801
        k(  123) = (   0.0000000   0.0000000   0.0131479), wk =   0.0073801
        k(  124) = (   0.0000000   0.0000000   0.0197218), wk =   0.0073801
        k(  125) = (   0.0000000   0.0000000   0.0262957), wk =   0.0073801
        k(  126) = (   0.0000000   0.0000000   0.0328697), wk =   0.0073801
        k(  127) = (   0.0000000   0.0000000   0.0394436), wk =   0.0073801
        k(  128) = (   0.0000000   0.0000000   0.0460175), wk =   0.0073801
        k(  129) = (   0.0000000   0.0000000   0.0525915), wk =   0.0073801
        k(  130) = (   0.0000000   0.0000000   0.0591654), wk =   0.0073801
        k(  131) = (   0.0000000   0.0000000   0.0657393), wk =   0.0073801
        k(  132) = (   0.0000000   0.0000000   0.0723133), wk =   0.0073801
        k(  133) = (   0.0000000   0.0000000   0.0788872), wk =   0.0073801
        k(  134) = (   0.0000000   0.0000000   0.0854611), wk =   0.0073801
        k(  135) = (   0.0000000   0.0000000   0.0920351), wk =   0.0073801
        k(  136) = (   0.0000000   0.0000000   0.0986090), wk =   0.0073801
        k(  137) = (   0.0000000   0.0000000   0.1051830), wk =   0.0073801
        k(  138) = (   0.0000000   0.0000000   0.1117569), wk =   0.0073801
        k(  139) = (   0.0000000   0.0000000   0.1183308), wk =   0.0073801
        k(  140) = (   0.0000000   0.0000000   0.1249048), wk =   0.0073801
        k(  141) = (   0.0000000   0.0000000   0.1314787), wk =   0.0073801
        k(  142) = (   0.0000000   0.0000000   0.1380526), wk =   0.0073801
        k(  143) = (   0.0000000   0.0000000   0.1446266), wk =   0.0073801
        k(  144) = (   0.0000000   0.0000000   0.1512005), wk =   0.0073801
        k(  145) = (   0.0000000   0.0000000   0.1577744), wk =   0.0073801
        k(  146) = (   0.0000000   0.0000000   0.1643484), wk =   0.0073801
        k(  147) = (   0.0000000   0.0000000   0.1709223), wk =   0.0073801
        k(  148) = (   0.0000000   0.0000000   0.1774962), wk =   0.0073801
        k(  149) = (   0.0000000   0.0000000   0.1840702), wk =   0.0073801
        k(  150) = (   0.0000000   0.0000000   0.1906441), wk =   0.0073801
        k(  151) = (   0.0000000   0.0000000   0.1972180), wk =   0.0073801
        k(  152) = (   0.0166667   0.0000000   0.1972180), wk =   0.0073801
        k(  153) = (   0.0333333   0.0000000   0.1972180), wk =   0.0073801
        k(  154) = (   0.0500000   0.0000000   0.1972180), wk =   0.0073801
        k(  155) = (   0.0666667   0.0000000   0.1972180), wk =   0.0073801
        k(  156) = (   0.0833333   0.0000000   0.1972180), wk =   0.0073801
        k(  157) = (   0.1000000   0.0000000   0.1972180), wk =   0.0073801
        k(  158) = (   0.1166667   0.0000000   0.1972180), wk =   0.0073801
        k(  159) = (   0.1333333   0.0000000   0.1972180), wk =   0.0073801
        k(  160) = (   0.1500000   0.0000000   0.1972180), wk =   0.0073801
        k(  161) = (   0.1666667   0.0000000   0.1972180), wk =   0.0073801
        k(  162) = (   0.1833333   0.0000000   0.1972180), wk =   0.0073801
        k(  163) = (   0.2000000   0.0000000   0.1972180), wk =   0.0073801
        k(  164) = (   0.2166667   0.0000000   0.1972180), wk =   0.0073801
        k(  165) = (   0.2333333   0.0000000   0.1972180), wk =   0.0073801
        k(  166) = (   0.2500000   0.0000000   0.1972180), wk =   0.0073801
        k(  167) = (   0.2666667   0.0000000   0.1972180), wk =   0.0073801
        k(  168) = (   0.2833333   0.0000000   0.1972180), wk =   0.0073801
        k(  169) = (   0.3000000   0.0000000   0.1972180), wk =   0.0073801
        k(  170) = (   0.3166667   0.0000000   0.1972180), wk =   0.0073801
        k(  171) = (   0.3333333   0.0000000   0.1972180), wk =   0.0073801
        k(  172) = (   0.3500000   0.0000000   0.1972180), wk =   0.0073801
        k(  173) = (   0.3666667   0.0000000   0.1972180), wk =   0.0073801
        k(  174) = (   0.3833333   0.0000000   0.1972180), wk =   0.0073801
        k(  175) = (   0.4000000   0.0000000   0.1972180), wk =   0.0073801
        k(  176) = (   0.4166667   0.0000000   0.1972180), wk =   0.0073801
        k(  177) = (   0.4333333   0.0000000   0.1972180), wk =   0.0073801
        k(  178) = (   0.4500000   0.0000000   0.1972180), wk =   0.0073801
        k(  179) = (   0.4666667   0.0000000   0.1972180), wk =   0.0073801
        k(  180) = (   0.4833333   0.0000000   0.1972180), wk =   0.0073801
        k(  181) = (   0.5000000   0.0000000   0.1972180), wk =   0.0073801
        k(  182) = (   0.5000000   0.0182013   0.1972180), wk =   0.0073801
        k(  183) = (   0.5000000   0.0364026   0.1972180), wk =   0.0073801
        k(  184) = (   0.5000000   0.0546040   0.1972180), wk =   0.0073801
        k(  185) = (   0.5000000   0.0728053   0.1972180), wk =   0.0073801
        k(  186) = (   0.5000000   0.0910066   0.1972180), wk =   0.0073801
        k(  187) = (   0.5000000   0.1092079   0.1972180), wk =   0.0073801
        k(  188) = (   0.5000000   0.1274093   0.1972180), wk =   0.0073801
        k(  189) = (   0.5000000   0.1456106   0.1972180), wk =   0.0073801
        k(  190) = (   0.5000000   0.1638119   0.1972180), wk =   0.0073801
        k(  191) = (   0.5000000   0.1820132   0.1972180), wk =   0.0073801
        k(  192) = (   0.5000000   0.2002146   0.1972180), wk =   0.0073801
        k(  193) = (   0.5000000   0.2184159   0.1972180), wk =   0.0073801
        k(  194) = (   0.5000000   0.2366172   0.1972180), wk =   0.0073801
        k(  195) = (   0.5000000   0.2548185   0.1972180), wk =   0.0073801
        k(  196) = (   0.5000000   0.2730198   0.1972180), wk =   0.0073801
        k(  197) = (   0.5000000   0.2912212   0.1972180), wk =   0.0073801
        k(  198) = (   0.5000000   0.3094225   0.1972180), wk =   0.0073801
        k(  199) = (   0.5000000   0.3276238   0.1972180), wk =   0.0073801
        k(  200) = (   0.5000000   0.3458251   0.1972180), wk =   0.0073801
        k(  201) = (   0.5000000   0.3640265   0.1972180), wk =   0.0073801
        k(  202) = (   0.5000000   0.3822278   0.1972180), wk =   0.0073801
        k(  203) = (   0.5000000   0.4004291   0.1972180), wk =   0.0073801
        k(  204) = (   0.5000000   0.4186304   0.1972180), wk =   0.0073801
        k(  205) = (   0.5000000   0.4368318   0.1972180), wk =   0.0073801
        k(  206) = (   0.5000000   0.4550331   0.1972180), wk =   0.0073801
        k(  207) = (   0.5000000   0.4732344   0.1972180), wk =   0.0073801
        k(  208) = (   0.5000000   0.4914357   0.1972180), wk =   0.0073801
        k(  209) = (   0.5000000   0.5096371   0.1972180), wk =   0.0073801
        k(  210) = (   0.5000000   0.5278384   0.1972180), wk =   0.0073801
        k(  211) = (   0.5000000   0.5460397   0.1972180), wk =   0.0073801
        k(  212) = (   0.4833333   0.5460397   0.1972180), wk =   0.0073801
        k(  213) = (   0.4666667   0.5460397   0.1972180), wk =   0.0073801
        k(  214) = (   0.4500000   0.5460397   0.1972180), wk =   0.0073801
        k(  215) = (   0.4333333   0.5460397   0.1972180), wk =   0.0073801
        k(  216) = (   0.4166667   0.5460397   0.1972180), wk =   0.0073801
        k(  217) = (   0.4000000   0.5460397   0.1972180), wk =   0.0073801
        k(  218) = (   0.3833333   0.5460397   0.1972180), wk =   0.0073801
        k(  219) = (   0.3666667   0.5460397   0.1972180), wk =   0.0073801
        k(  220) = (   0.3500000   0.5460397   0.1972180), wk =   0.0073801
        k(  221) = (   0.3333333   0.5460397   0.1972180), wk =   0.0073801
        k(  222) = (   0.3166667   0.5460397   0.1972180), wk =   0.0073801
        k(  223) = (   0.3000000   0.5460397   0.1972180), wk =   0.0073801
        k(  224) = (   0.2833333   0.5460397   0.1972180), wk =   0.0073801
        k(  225) = (   0.2666667   0.5460397   0.1972180), wk =   0.0073801
        k(  226) = (   0.2500000   0.5460397   0.1972180), wk =   0.0073801
        k(  227) = (   0.2333333   0.5460397   0.1972180), wk =   0.0073801
        k(  228) = (   0.2166667   0.5460397   0.1972180), wk =   0.0073801
        k(  229) = (   0.2000000   0.5460397   0.1972180), wk =   0.0073801
        k(  230) = (   0.1833333   0.5460397   0.1972180), wk =   0.0073801
        k(  231) = (   0.1666667   0.5460397   0.1972180), wk =   0.0073801
        k(  232) = (   0.1500000   0.5460397   0.1972180), wk =   0.0073801
        k(  233) = (   0.1333333   0.5460397   0.1972180), wk =   0.0073801
        k(  234) = (   0.1166667   0.5460397   0.1972180), wk =   0.0073801
        k(  235) = (   0.1000000   0.5460397   0.1972180), wk =   0.0073801
        k(  236) = (   0.0833333   0.5460397   0.1972180), wk =   0.0073801
        k(  237) = (   0.0666667   0.5460397   0.1972180), wk =   0.0073801
        k(  238) = (   0.0500000   0.5460397   0.1972180), wk =   0.0073801
        k(  239) = (   0.0333333   0.5460397   0.1972180), wk =   0.0073801
        k(  240) = (   0.0166667   0.5460397   0.1972180), wk =   0.0073801
        k(  241) = (   0.0000000   0.5460397   0.1972180), wk =   0.0073801
        k(  242) = (   0.0000000   0.5278384   0.1972180), wk =   0.0073801
        k(  243) = (   0.0000000   0.5096371   0.1972180), wk =   0.0073801
        k(  244) = (   0.0000000   0.4914357   0.1972180), wk =   0.0073801
        k(  245) = (   0.0000000   0.4732344   0.1972180), wk =   0.0073801
        k(  246) = (   0.0000000   0.4550331   0.1972180), wk =   0.0073801
        k(  247) = (   0.0000000   0.4368318   0.1972180), wk =   0.0073801
        k(  248) = (   0.0000000   0.4186304   0.1972180), wk =   0.0073801
        k(  249) = (   0.0000000   0.4004291   0.1972180), wk =   0.0073801
        k(  250) = (   0.0000000   0.3822278   0.1972180), wk =   0.0073801
        k(  251) = (   0.0000000   0.3640265   0.1972180), wk =   0.0073801
        k(  252) = (   0.0000000   0.3458251   0.1972180), wk =   0.0073801
        k(  253) = (   0.0000000   0.3276238   0.1972180), wk =   0.0073801
        k(  254) = (   0.0000000   0.3094225   0.1972180), wk =   0.0073801
        k(  255) = (   0.0000000   0.2912212   0.1972180), wk =   0.0073801
        k(  256) = (   0.0000000   0.2730198   0.1972180), wk =   0.0073801
        k(  257) = (   0.0000000   0.2548185   0.1972180), wk =   0.0073801
        k(  258) = (   0.0000000   0.2366172   0.1972180), wk =   0.0073801
        k(  259) = (   0.0000000   0.2184159   0.1972180), wk =   0.0073801
        k(  260) = (   0.0000000   0.2002146   0.1972180), wk =   0.0073801
        k(  261) = (   0.0000000   0.1820132   0.1972180), wk =   0.0073801
        k(  262) = (   0.0000000   0.1638119   0.1972180), wk =   0.0073801
        k(  263) = (   0.0000000   0.1456106   0.1972180), wk =   0.0073801
        k(  264) = (   0.0000000   0.1274093   0.1972180), wk =   0.0073801
        k(  265) = (   0.0000000   0.1092079   0.1972180), wk =   0.0073801
        k(  266) = (   0.0000000   0.0910066   0.1972180), wk =   0.0073801
        k(  267) = (   0.0000000   0.0728053   0.1972180), wk =   0.0073801
        k(  268) = (   0.0000000   0.0546040   0.1972180), wk =   0.0073801
        k(  269) = (   0.0000000   0.0364026   0.1972180), wk =   0.0073801
        k(  270) = (   0.0000000   0.0182013   0.1972180), wk =   0.0073801
        k(  271) = (   0.0000000   0.0000000   0.1972180), wk =   0.0073801

                       cryst. coord.
        k(    1) = (   0.0000000   0.0000000   0.0000000), wk =   0.0073801
        k(    2) = (   0.0166667   0.0000000   0.0000000), wk =   0.0073801
        k(    3) = (   0.0333333   0.0000000   0.0000000), wk =   0.0073801
        k(    4) = (   0.0500000   0.0000000   0.0000000), wk =   0.0073801
        k(    5) = (   0.0666667   0.0000000   0.0000000), wk =   0.0073801
        k(    6) = (   0.0833333   0.0000000   0.0000000), wk =   0.0073801
        k(    7) = (   0.1000000   0.0000000   0.0000000), wk =   0.0073801
        k(    8) = (   0.1166667   0.0000000   0.0000000), wk =   0.0073801
        k(    9) = (   0.1333333   0.0000000   0.0000000), wk =   0.0073801
        k(   10) = (   0.1500000   0.0000000   0.0000000), wk =   0.0073801
        k(   11) = (   0.1666667   0.0000000   0.0000000), wk =   0.0073801
        k(   12) = (   0.1833333   0.0000000   0.0000000), wk =   0.0073801
        k(   13) = (   0.2000000   0.0000000   0.0000000), wk =   0.0073801
        k(   14) = (   0.2166667   0.0000000   0.0000000), wk =   0.0073801
        k(   15) = (   0.2333333   0.0000000   0.0000000), wk =   0.0073801
        k(   16) = (   0.2500000   0.0000000   0.0000000), wk =   0.0073801
        k(   17) = (   0.2666667   0.0000000   0.0000000), wk =   0.0073801
        k(   18) = (   0.2833333   0.0000000   0.0000000), wk =   0.0073801
        k(   19) = (   0.3000000   0.0000000   0.0000000), wk =   0.0073801
        k(   20) = (   0.3166667   0.0000000   0.0000000), wk =   0.0073801
        k(   21) = (   0.3333333   0.0000000   0.0000000), wk =   0.0073801
        k(   22) = (   0.3500000   0.0000000   0.0000000), wk =   0.0073801
        k(   23) = (   0.3666667   0.0000000   0.0000000), wk =   0.0073801
        k(   24) = (   0.3833333   0.0000000   0.0000000), wk =   0.0073801
        k(   25) = (   0.4000000   0.0000000   0.0000000), wk =   0.0073801
        k(   26) = (   0.4166667   0.0000000   0.0000000), wk =   0.0073801
        k(   27) = (   0.4333333   0.0000000   0.0000000), wk =   0.0073801
        k(   28) = (   0.4500000   0.0000000   0.0000000), wk =   0.0073801
        k(   29) = (   0.4666667   0.0000000   0.0000000), wk =   0.0073801
        k(   30) = (   0.4833333   0.0000000   0.0000000), wk =   0.0073801
        k(   31) = (   0.5000000   0.0000000   0.0000000), wk =   0.0073801
        k(   32) = (   0.5000000   0.0166667   0.0000000), wk =   0.0073801
        k(   33) = (   0.5000000   0.0333333   0.0000000), wk =   0.0073801
        k(   34) = (   0.5000000   0.0500000   0.0000000), wk =   0.0073801
        k(   35) = (   0.5000000   0.0666667   0.0000000), wk =   0.0073801
        k(   36) = (   0.5000000   0.0833333   0.0000000), wk =   0.0073801
        k(   37) = (   0.5000000   0.1000000   0.0000000), wk =   0.0073801
        k(   38) = (   0.5000000   0.1166667   0.0000000), wk =   0.0073801
        k(   39) = (   0.5000000   0.1333333   0.0000000), wk =   0.0073801
        k(   40) = (   0.5000000   0.1500000   0.0000000), wk =   0.0073801
        k(   41) = (   0.5000000   0.1666667   0.0000000), wk =   0.0073801
        k(   42) = (   0.5000000   0.1833333   0.0000000), wk =   0.0073801
        k(   43) = (   0.5000000   0.2000000   0.0000000), wk =   0.0073801
        k(   44) = (   0.5000000   0.2166667   0.0000000), wk =   0.0073801
        k(   45) = (   0.5000000   0.2333333   0.0000000), wk =   0.0073801
        k(   46) = (   0.5000000   0.2500000   0.0000000), wk =   0.0073801
        k(   47) = (   0.5000000   0.2666667   0.0000000), wk =   0.0073801
        k(   48) = (   0.5000000   0.2833333   0.0000000), wk =   0.0073801
        k(   49) = (   0.5000000   0.3000000   0.0000000), wk =   0.0073801
        k(   50) = (   0.5000000   0.3166667   0.0000000), wk =   0.0073801
        k(   51) = (   0.5000000   0.3333333   0.0000000), wk =   0.0073801
        k(   52) = (   0.5000000   0.3500000   0.0000000), wk =   0.0073801
        k(   53) = (   0.5000000   0.3666667   0.0000000), wk =   0.0073801
        k(   54) = (   0.5000000   0.3833333   0.0000000), wk =   0.0073801
        k(   55) = (   0.5000000   0.4000000   0.0000000), wk =   0.0073801
        k(   56) = (   0.5000000   0.4166667   0.0000000), wk =   0.0073801
        k(   57) = (   0.5000000   0.4333333   0.0000000), wk =   0.0073801
        k(   58) = (   0.5000000   0.4500000   0.0000000), wk =   0.0073801
        k(   59) = (   0.5000000   0.4666667   0.0000000), wk =   0.0073801
        k(   60) = (   0.5000000   0.4833333   0.0000000), wk =   0.0073801
        k(   61) = (   0.5000000   0.5000000   0.0000000), wk =   0.0073801
        k(   62) = (   0.4833333   0.5000000   0.0000000), wk =   0.0073801
        k(   63) = (   0.4666667   0.5000000   0.0000000), wk =   0.0073801
        k(   64) = (   0.4500000   0.5000000   0.0000000), wk =   0.0073801
        k(   65) = (   0.4333333   0.5000000   0.0000000), wk =   0.0073801
        k(   66) = (   0.4166667   0.5000000   0.0000000), wk =   0.0073801
        k(   67) = (   0.4000000   0.5000000   0.0000000), wk =   0.0073801
        k(   68) = (   0.3833333   0.5000000   0.0000000), wk =   0.0073801
        k(   69) = (   0.3666667   0.5000000   0.0000000), wk =   0.0073801
        k(   70) = (   0.3500000   0.5000000   0.0000000), wk =   0.0073801
        k(   71) = (   0.3333333   0.5000000   0.0000000), wk =   0.0073801
        k(   72) = (   0.3166667   0.5000000   0.0000000), wk =   0.0073801
        k(   73) = (   0.3000000   0.5000000   0.0000000), wk =   0.0073801
        k(   74) = (   0.2833333   0.5000000   0.0000000), wk =   0.0073801
        k(   75) = (   0.2666667   0.5000000   0.0000000), wk =   0.0073801
        k(   76) = (   0.2500000   0.5000000   0.0000000), wk =   0.0073801
        k(   77) = (   0.2333333   0.5000000   0.0000000), wk =   0.0073801
        k(   78) = (   0.2166667   0.5000000   0.0000000), wk =   0.0073801
        k(   79) = (   0.2000000   0.5000000   0.0000000), wk =   0.0073801
        k(   80) = (   0.1833333   0.5000000   0.0000000), wk =   0.0073801
        k(   81) = (   0.1666667   0.5000000   0.0000000), wk =   0.0073801
        k(   82) = (   0.1500000   0.5000000   0.0000000), wk =   0.0073801
        k(   83) = (   0.1333333   0.5000000   0.0000000), wk =   0.0073801
        k(   84) = (   0.1166667   0.5000000   0.0000000), wk =   0.0073801
        k(   85) = (   0.1000000   0.5000000   0.0000000), wk =   0.0073801
        k(   86) = (   0.0833333   0.5000000   0.0000000), wk =   0.0073801
        k(   87) = (   0.0666667   0.5000000   0.0000000), wk =   0.0073801
        k(   88) = (   0.0500000   0.5000000   0.0000000), wk =   0.0073801
        k(   89) = (   0.0333333   0.5000000   0.0000000), wk =   0.0073801
        k(   90) = (   0.0166667   0.5000000   0.0000000), wk =   0.0073801
        k(   91) = (   0.0000000   0.5000000   0.0000000), wk =   0.0073801
        k(   92) = (   0.0000000   0.4833333   0.0000000), wk =   0.0073801
        k(   93) = (   0.0000000   0.4666667   0.0000000), wk =   0.0073801
        k(   94) = (   0.0000000   0.4500000   0.0000000), wk =   0.0073801
        k(   95) = (   0.0000000   0.4333333   0.0000000), wk =   0.0073801
        k(   96) = (   0.0000000   0.4166667   0.0000000), wk =   0.0073801
        k(   97) = (   0.0000000   0.4000000   0.0000000), wk =   0.0073801
        k(   98) = (   0.0000000   0.3833333   0.0000000), wk =   0.0073801
        k(   99) = (   0.0000000   0.3666667   0.0000000), wk =   0.0073801
        k(  100) = (   0.0000000   0.3500000   0.0000000), wk =   0.0073801
        k(  101) = (   0.0000000   0.3333333   0.0000000), wk =   0.0073801
        k(  102) = (   0.0000000   0.3166667   0.0000000), wk =   0.0073801
        k(  103) = (   0.0000000   0.3000000   0.0000000), wk =   0.0073801
        k(  104) = (   0.0000000   0.2833333   0.0000000), wk =   0.0073801
        k(  105) = (   0.0000000   0.2666667   0.0000000), wk =   0.0073801
        k(  106) = (   0.0000000   0.2500000   0.0000000), wk =   0.0073801
        k(  107) = (   0.0000000   0.2333333   0.0000000), wk =   0.0073801
        k(  108) = (   0.0000000   0.2166667   0.0000000), wk =   0.0073801
        k(  109) = (   0.0000000   0.2000000   0.0000000), wk =   0.0073801
        k(  110) = (   0.0000000   0.1833333   0.0000000), wk =   0.0073801
        k(  111) = (   0.0000000   0.1666667   0.0000000), wk =   0.0073801
        k(  112) = (   0.0000000   0.1500000   0.0000000), wk =   0.0073801
        k(  113) = (   0.0000000   0.1333333   0.0000000), wk =   0.0073801
        k(  114) = (   0.0000000   0.1166667   0.0000000), wk =   0.0073801
        k(  115) = (   0.0000000   0.1000000   0.0000000), wk =   0.0073801
        k(  116) = (   0.0000000   0.0833333   0.0000000), wk =   0.0073801
        k(  117) = (   0.0000000   0.0666667   0.0000000), wk =   0.0073801
        k(  118) = (   0.0000000   0.0500000   0.0000000), wk =   0.0073801
        k(  119) = (   0.0000000   0.0333333   0.0000000), wk =   0.0073801
        k(  120) = (   0.0000000   0.0166667   0.0000000), wk =   0.0073801
        k(  121) = (   0.0000000   0.0000000   0.0000000), wk =   0.0073801
        k(  122) = (   0.0000000   0.0000000   0.0166667), wk =   0.0073801
        k(  123) = (   0.0000000   0.0000000   0.0333333), wk =   0.0073801
        k(  124) = (   0.0000000   0.0000000   0.0500000), wk =   0.0073801
        k(  125) = (   0.0000000   0.0000000   0.0666667), wk =   0.0073801
        k(  126) = (   0.0000000   0.0000000   0.0833333), wk =   0.0073801
        k(  127) = (   0.0000000   0.0000000   0.1000000), wk =   0.0073801
        k(  128) = (   0.0000000   0.0000000   0.1166667), wk =   0.0073801
        k(  129) = (   0.0000000   0.0000000   0.1333333), wk =   0.0073801
        k(  130) = (   0.0000000   0.0000000   0.1500000), wk =   0.0073801
        k(  131) = (   0.0000000   0.0000000   0.1666667), wk =   0.0073801
        k(  132) = (   0.0000000   0.0000000   0.1833333), wk =   0.0073801
        k(  133) = (   0.0000000   0.0000000   0.2000000), wk =   0.0073801
        k(  134) = (   0.0000000   0.0000000   0.2166667), wk =   0.0073801
        k(  135) = (   0.0000000   0.0000000   0.2333333), wk =   0.0073801
        k(  136) = (   0.0000000   0.0000000   0.2500000), wk =   0.0073801
        k(  137) = (   0.0000000   0.0000000   0.2666667), wk =   0.0073801
        k(  138) = (   0.0000000   0.0000000   0.2833333), wk =   0.0073801
        k(  139) = (   0.0000000   0.0000000   0.3000000), wk =   0.0073801
        k(  140) = (   0.0000000   0.0000000   0.3166667), wk =   0.0073801
        k(  141) = (   0.0000000   0.0000000   0.3333333), wk =   0.0073801
        k(  142) = (   0.0000000   0.0000000   0.3500000), wk =   0.0073801
        k(  143) = (   0.0000000   0.0000000   0.3666667), wk =   0.0073801
        k(  144) = (   0.0000000   0.0000000   0.3833333), wk =   0.0073801
        k(  145) = (   0.0000000   0.0000000   0.4000000), wk =   0.0073801
        k(  146) = (   0.0000000   0.0000000   0.4166667), wk =   0.0073801
        k(  147) = (   0.0000000   0.0000000   0.4333333), wk =   0.0073801
        k(  148) = (   0.0000000   0.0000000   0.4500000), wk =   0.0073801
        k(  149) = (   0.0000000   0.0000000   0.4666667), wk =   0.0073801
        k(  150) = (   0.0000000   0.0000000   0.4833333), wk =   0.0073801
        k(  151) = (   0.0000000   0.0000000   0.5000000), wk =   0.0073801
        k(  152) = (   0.0166667   0.0000000   0.5000000), wk =   0.0073801
        k(  153) = (   0.0333333   0.0000000   0.5000000), wk =   0.0073801
        k(  154) = (   0.0500000   0.0000000   0.5000000), wk =   0.0073801
        k(  155) = (   0.0666667   0.0000000   0.5000000), wk =   0.0073801
        k(  156) = (   0.0833333   0.0000000   0.5000000), wk =   0.0073801
        k(  157) = (   0.1000000   0.0000000   0.5000000), wk =   0.0073801
        k(  158) = (   0.1166667   0.0000000   0.5000000), wk =   0.0073801
        k(  159) = (   0.1333333   0.0000000   0.5000000), wk =   0.0073801
        k(  160) = (   0.1500000   0.0000000   0.5000000), wk =   0.0073801
        k(  161) = (   0.1666667   0.0000000   0.5000000), wk =   0.0073801
        k(  162) = (   0.1833333   0.0000000   0.5000000), wk =   0.0073801
        k(  163) = (   0.2000000   0.0000000   0.5000000), wk =   0.0073801
        k(  164) = (   0.2166667   0.0000000   0.5000000), wk =   0.0073801
        k(  165) = (   0.2333333   0.0000000   0.5000000), wk =   0.0073801
        k(  166) = (   0.2500000   0.0000000   0.5000000), wk =   0.0073801
        k(  167) = (   0.2666667   0.0000000   0.5000000), wk =   0.0073801
        k(  168) = (   0.2833333   0.0000000   0.5000000), wk =   0.0073801
        k(  169) = (   0.3000000   0.0000000   0.5000000), wk =   0.0073801
        k(  170) = (   0.3166667   0.0000000   0.5000000), wk =   0.0073801
        k(  171) = (   0.3333333   0.0000000   0.5000000), wk =   0.0073801
        k(  172) = (   0.3500000   0.0000000   0.5000000), wk =   0.0073801
        k(  173) = (   0.3666667   0.0000000   0.5000000), wk =   0.0073801
        k(  174) = (   0.3833333   0.0000000   0.5000000), wk =   0.0073801
        k(  175) = (   0.4000000   0.0000000   0.5000000), wk =   0.0073801
        k(  176) = (   0.4166667   0.0000000   0.5000000), wk =   0.0073801
        k(  177) = (   0.4333333   0.0000000   0.5000000), wk =   0.0073801
        k(  178) = (   0.4500000   0.0000000   0.5000000), wk =   0.0073801
        k(  179) = (   0.4666667   0.0000000   0.5000000), wk =   0.0073801
        k(  180) = (   0.4833333   0.0000000   0.5000000), wk =   0.0073801
        k(  181) = (   0.5000000   0.0000000   0.5000000), wk =   0.0073801
        k(  182) = (   0.5000000   0.0166667   0.5000000), wk =   0.0073801
        k(  183) = (   0.5000000   0.0333333   0.5000000), wk =   0.0073801
        k(  184) = (   0.5000000   0.0500000   0.5000000), wk =   0.0073801
        k(  185) = (   0.5000000   0.0666667   0.5000000), wk =   0.0073801
        k(  186) = (   0.5000000   0.0833333   0.5000000), wk =   0.0073801
        k(  187) = (   0.5000000   0.1000000   0.5000000), wk =   0.0073801
        k(  188) = (   0.5000000   0.1166667   0.5000000), wk =   0.0073801
        k(  189) = (   0.5000000   0.1333333   0.5000000), wk =   0.0073801
        k(  190) = (   0.5000000   0.1500000   0.5000000), wk =   0.0073801
        k(  191) = (   0.5000000   0.1666667   0.5000000), wk =   0.0073801
        k(  192) = (   0.5000000   0.1833333   0.5000000), wk =   0.0073801
        k(  193) = (   0.5000000   0.2000000   0.5000000), wk =   0.0073801
        k(  194) = (   0.5000000   0.2166667   0.5000000), wk =   0.0073801
        k(  195) = (   0.5000000   0.2333333   0.5000000), wk =   0.0073801
        k(  196) = (   0.5000000   0.2500000   0.5000000), wk =   0.0073801
        k(  197) = (   0.5000000   0.2666667   0.5000000), wk =   0.0073801
        k(  198) = (   0.5000000   0.2833333   0.5000000), wk =   0.0073801
        k(  199) = (   0.5000000   0.3000000   0.5000000), wk =   0.0073801
        k(  200) = (   0.5000000   0.3166667   0.5000000), wk =   0.0073801
        k(  201) = (   0.5000000   0.3333333   0.5000000), wk =   0.0073801
        k(  202) = (   0.5000000   0.3500000   0.5000000), wk =   0.0073801
        k(  203) = (   0.5000000   0.3666667   0.5000000), wk =   0.0073801
        k(  204) = (   0.5000000   0.3833333   0.5000000), wk =   0.0073801
        k(  205) = (   0.5000000   0.4000000   0.5000000), wk =   0.0073801
        k(  206) = (   0.5000000   0.4166667   0.5000000), wk =   0.0073801
        k(  207) = (   0.5000000   0.4333333   0.5000000), wk =   0.0073801
        k(  208) = (   0.5000000   0.4500000   0.5000000), wk =   0.0073801
        k(  209) = (   0.5000000   0.4666667   0.5000000), wk =   0.0073801
        k(  210) = (   0.5000000   0.4833333   0.5000000), wk =   0.0073801
        k(  211) = (   0.5000000   0.5000000   0.5000000), wk =   0.0073801
        k(  212) = (   0.4833333   0.5000000   0.5000000), wk =   0.0073801
        k(  213) = (   0.4666667   0.5000000   0.5000000), wk =   0.0073801
        k(  214) = (   0.4500000   0.5000000   0.5000000), wk =   0.0073801
        k(  215) = (   0.4333333   0.5000000   0.5000000), wk =   0.0073801
        k(  216) = (   0.4166667   0.5000000   0.5000000), wk =   0.0073801
        k(  217) = (   0.4000000   0.5000000   0.5000000), wk =   0.0073801
        k(  218) = (   0.3833333   0.5000000   0.5000000), wk =   0.0073801
        k(  219) = (   0.3666667   0.5000000   0.5000000), wk =   0.0073801
        k(  220) = (   0.3500000   0.5000000   0.5000000), wk =   0.0073801
        k(  221) = (   0.3333333   0.5000000   0.5000000), wk =   0.0073801
        k(  222) = (   0.3166667   0.5000000   0.5000000), wk =   0.0073801
        k(  223) = (   0.3000000   0.5000000   0.5000000), wk =   0.0073801
        k(  224) = (   0.2833333   0.5000000   0.5000000), wk =   0.0073801
        k(  225) = (   0.2666667   0.5000000   0.5000000), wk =   0.0073801
        k(  226) = (   0.2500000   0.5000000   0.5000000), wk =   0.0073801
        k(  227) = (   0.2333333   0.5000000   0.5000000), wk =   0.0073801
        k(  228) = (   0.2166667   0.5000000   0.5000000), wk =   0.0073801
        k(  229) = (   0.2000000   0.5000000   0.5000000), wk =   0.0073801
        k(  230) = (   0.1833333   0.5000000   0.5000000), wk =   0.0073801
        k(  231) = (   0.1666667   0.5000000   0.5000000), wk =   0.0073801
        k(  232) = (   0.1500000   0.5000000   0.5000000), wk =   0.0073801
        k(  233) = (   0.1333333   0.5000000   0.5000000), wk =   0.0073801
        k(  234) = (   0.1166667   0.5000000   0.5000000), wk =   0.0073801
        k(  235) = (   0.1000000   0.5000000   0.5000000), wk =   0.0073801
        k(  236) = (   0.0833333   0.5000000   0.5000000), wk =   0.0073801
        k(  237) = (   0.0666667   0.5000000   0.5000000), wk =   0.0073801
        k(  238) = (   0.0500000   0.5000000   0.5000000), wk =   0.0073801
        k(  239) = (   0.0333333   0.5000000   0.5000000), wk =   0.0073801
        k(  240) = (   0.0166667   0.5000000   0.5000000), wk =   0.0073801
        k(  241) = (   0.0000000   0.5000000   0.5000000), wk =   0.0073801
        k(  242) = (   0.0000000   0.4833333   0.5000000), wk =   0.0073801
        k(  243) = (   0.0000000   0.4666667   0.5000000), wk =   0.0073801
        k(  244) = (   0.0000000   0.4500000   0.5000000), wk =   0.0073801
        k(  245) = (   0.0000000   0.4333333   0.5000000), wk =   0.0073801
        k(  246) = (   0.0000000   0.4166667   0.5000000), wk =   0.0073801
        k(  247) = (   0.0000000   0.4000000   0.5000000), wk =   0.0073801
        k(  248) = (   0.0000000   0.3833333   0.5000000), wk =   0.0073801
        k(  249) = (   0.0000000   0.3666667   0.5000000), wk =   0.0073801
        k(  250) = (   0.0000000   0.3500000   0.5000000), wk =   0.0073801
        k(  251) = (   0.0000000   0.3333333   0.5000000), wk =   0.0073801
        k(  252) = (   0.0000000   0.3166667   0.5000000), wk =   0.0073801
        k(  253) = (   0.0000000   0.3000000   0.5000000), wk =   0.0073801
        k(  254) = (   0.0000000   0.2833333   0.5000000), wk =   0.0073801
        k(  255) = (   0.0000000   0.2666667   0.5000000), wk =   0.0073801
        k(  256) = (   0.0000000   0.2500000   0.5000000), wk =   0.0073801
        k(  257) = (   0.0000000   0.2333333   0.5000000), wk =   0.0073801
        k(  258) = (   0.0000000   0.2166667   0.5000000), wk =   0.0073801
        k(  259) = (   0.0000000   0.2000000   0.5000000), wk =   0.0073801
        k(  260) = (   0.0000000   0.1833333   0.5000000), wk =   0.0073801
        k(  261) = (   0.0000000   0.1666667   0.5000000), wk =   0.0073801
        k(  262) = (   0.0000000   0.1500000   0.5000000), wk =   0.0073801
        k(  263) = (   0.0000000   0.1333333   0.5000000), wk =   0.0073801
        k(  264) = (   0.0000000   0.1166667   0.5000000), wk =   0.0073801
        k(  265) = (   0.0000000   0.1000000   0.5000000), wk =   0.0073801
        k(  266) = (   0.0000000   0.0833333   0.5000000), wk =   0.0073801
        k(  267) = (   0.0000000   0.0666667   0.5000000), wk =   0.0073801
        k(  268) = (   0.0000000   0.0500000   0.5000000), wk =   0.0073801
        k(  269) = (   0.0000000   0.0333333   0.5000000), wk =   0.0073801
        k(  270) = (   0.0000000   0.0166667   0.5000000), wk =   0.0073801
        k(  271) = (   0.0000000   0.0000000   0.5000000), wk =   0.0073801

     Dense  grid:   130013 G-vectors     FFT dimensions: (  48,  48, 128)

     Smooth grid:    32833 G-vectors     FFT dimensions: (  32,  30,  80)

     Dynamical RAM for                 wfc:       0.78 MB

     Dynamical RAM for     wfc (w. buffer):       0.78 MB

     Dynamical RAM for           str. fact:       0.99 MB

     Dynamical RAM for           local pot:       0.00 MB

     Dynamical RAM for          nlocal pot:       2.26 MB

     Dynamical RAM for                qrad:       2.78 MB

     Dynamical RAM for          rho,v,vnew:       3.18 MB

     Dynamical RAM for           G-vectors:       1.92 MB

     Dynamical RAM for          h,s,v(r/c):       0.11 MB

     Dynamical RAM for          <psi|beta>:       0.11 MB

     Dynamical RAM for                 psi:       1.57 MB

     Dynamical RAM for                hpsi:       1.57 MB

     Dynamical RAM for                spsi:       1.57 MB

     Dynamical RAM for      wfcinit/wfcrot:       1.69 MB

     Dynamical RAM for           addusdens:      94.23 MB

     Estimated static dynamical RAM per process >      16.21 MB

     Estimated max dynamical RAM per process >     110.44 MB

     Estimated total dynamical RAM >     441.77 MB

     The potential is recalculated from file :
     ./tmp/SnSe_pnma.save/charge-density

     Starting wfcs are   52 randomized atomic wfcs

     Band Structure Calculation
     Davidson diagonalization with overlap

     Computing kpt #:     1  of   271
     total cpu time spent up to now is        9.0 secs

     Computing kpt #:     2  of   271
     total cpu time spent up to now is       14.9 secs

     Computing kpt #:     3  of   271
     total cpu time spent up to now is       21.1 secs

     Computing kpt #:     4  of   271
     total cpu time spent up to now is       28.0 secs

     Computing kpt #:     5  of   271
     total cpu time spent up to now is       37.2 secs

     Computing kpt #:     6  of   271
     total cpu time spent up to now is       46.0 secs

     Computing kpt #:     7  of   271
     total cpu time spent up to now is       55.0 secs

     Computing kpt #:     8  of   271
     total cpu time spent up to now is       63.6 secs

     Computing kpt #:     9  of   271
     total cpu time spent up to now is       70.4 secs

     Computing kpt #:    10  of   271
     total cpu time spent up to now is       78.3 secs

     Computing kpt #:    11  of   271
     total cpu time spent up to now is       86.6 secs

     Computing kpt #:    12  of   271
     total cpu time spent up to now is       95.5 secs

     Computing kpt #:    13  of   271
     total cpu time spent up to now is      104.8 secs

     Computing kpt #:    14  of   271
     total cpu time spent up to now is      113.1 secs

     Computing kpt #:    15  of   271
     total cpu time spent up to now is      122.8 secs

     Computing kpt #:    16  of   271
     total cpu time spent up to now is      131.1 secs

     Computing kpt #:    17  of   271
     total cpu time spent up to now is      140.9 secs

     Computing kpt #:    18  of   271
     total cpu time spent up to now is      148.8 secs

     Computing kpt #:    19  of   271
     total cpu time spent up to now is      156.1 secs

     Computing kpt #:    20  of   271
     total cpu time spent up to now is      163.1 secs

     Computing kpt #:    21  of   271
     total cpu time spent up to now is      170.6 secs

     Computing kpt #:    22  of   271
     total cpu time spent up to now is      176.9 secs

     Computing kpt #:    23  of   271
     total cpu time spent up to now is      184.4 secs

     Computing kpt #:    24  of   271
     total cpu time spent up to now is      191.3 secs

     Computing kpt #:    25  of   271
     total cpu time spent up to now is      197.2 secs

     Computing kpt #:    26  of   271
     total cpu time spent up to now is      203.1 secs

     Computing kpt #:    27  of   271
     total cpu time spent up to now is      208.8 secs

     Computing kpt #:    28  of   271
     total cpu time spent up to now is      215.6 secs

     Computing kpt #:    29  of   271
     total cpu time spent up to now is      221.4 secs

     Computing kpt #:    30  of   271
     total cpu time spent up to now is      228.5 secs

     Computing kpt #:    31  of   271
     total cpu time spent up to now is      235.2 secs

     Computing kpt #:    32  of   271
     total cpu time spent up to now is      242.1 secs

     Computing kpt #:    33  of   271
     total cpu time spent up to now is      249.8 secs

     Computing kpt #:    34  of   271
     total cpu time spent up to now is      257.1 secs

     Computing kpt #:    35  of   271
     total cpu time spent up to now is      264.5 secs

     Computing kpt #:    36  of   271
     total cpu time spent up to now is      273.5 secs

     Computing kpt #:    37  of   271
     total cpu time spent up to now is      281.3 secs

     Computing kpt #:    38  of   271
     total cpu time spent up to now is      288.0 secs

     Computing kpt #:    39  of   271
     total cpu time spent up to now is      296.4 secs

     Computing kpt #:    40  of   271
     total cpu time spent up to now is      305.3 secs

     Computing kpt #:    41  of   271
     total cpu time spent up to now is      314.8 secs

     Computing kpt #:    42  of   271
     total cpu time spent up to now is      324.1 secs

     Computing kpt #:    43  of   271
     total cpu time spent up to now is      331.5 secs

     Computing kpt #:    44  of   271
     total cpu time spent up to now is      341.2 secs

     Computing kpt #:    45  of   271
     total cpu time spent up to now is      350.2 secs

     Computing kpt #:    46  of   271
     total cpu time spent up to now is      360.0 secs

     Computing kpt #:    47  of   271
     total cpu time spent up to now is      369.8 secs

     Computing kpt #:    48  of   271
     total cpu time spent up to now is      380.0 secs

     Computing kpt #:    49  of   271
     total cpu time spent up to now is      390.7 secs

     Computing kpt #:    50  of   271
     total cpu time spent up to now is      397.0 secs

     Computing kpt #:    51  of   271
     total cpu time spent up to now is      404.2 secs

     Computing kpt #:    52  of   271
     total cpu time spent up to now is      412.4 secs

     Computing kpt #:    53  of   271
     total cpu time spent up to now is      419.4 secs

     Computing kpt #:    54  of   271
     total cpu time spent up to now is      428.3 secs

     Computing kpt #:    55  of   271
     total cpu time spent up to now is      436.4 secs

     Computing kpt #:    56  of   271
     total cpu time spent up to now is      445.9 secs

     Computing kpt #:    57  of   271
     total cpu time spent up to now is      455.6 secs

     Computing kpt #:    58  of   271
     total cpu time spent up to now is      466.4 secs

     Computing kpt #:    59  of   271
     total cpu time spent up to now is      478.0 secs

     Computing kpt #:    60  of   271
     total cpu time spent up to now is      487.8 secs

     Computing kpt #:    61  of   271
     total cpu time spent up to now is      497.8 secs

     Computing kpt #:    62  of   271
     total cpu time spent up to now is      507.0 secs

     Computing kpt #:    63  of   271
     total cpu time spent up to now is      515.8 secs

     Computing kpt #:    64  of   271
     total cpu time spent up to now is      525.5 secs

     Computing kpt #:    65  of   271
     total cpu time spent up to now is      535.6 secs

     Computing kpt #:    66  of   271
     total cpu time spent up to now is      547.0 secs

     Computing kpt #:    67  of   271
     total cpu time spent up to now is      558.2 secs

     Computing kpt #:    68  of   271
     total cpu time spent up to now is      567.7 secs

     Computing kpt #:    69  of   271
     total cpu time spent up to now is      576.4 secs

     Computing kpt #:    70  of   271
     total cpu time spent up to now is      587.2 secs

     Computing kpt #:    71  of   271
     total cpu time spent up to now is      596.4 secs

     Computing kpt #:    72  of   271
     total cpu time spent up to now is      607.7 secs

     Computing kpt #:    73  of   271
     total cpu time spent up to now is      616.4 secs

     Computing kpt #:    74  of   271
     total cpu time spent up to now is      625.2 secs

     Computing kpt #:    75  of   271
     total cpu time spent up to now is      634.5 secs

     Computing kpt #:    76  of   271
     total cpu time spent up to now is      641.5 secs

     Computing kpt #:    77  of   271
     total cpu time spent up to now is      650.6 secs

     Computing kpt #:    78  of   271
     total cpu time spent up to now is      660.0 secs

     Computing kpt #:    79  of   271
     total cpu time spent up to now is      671.7 secs

     Computing kpt #:    80  of   271
     total cpu time spent up to now is      680.9 secs

     Computing kpt #:    81  of   271
     total cpu time spent up to now is      689.7 secs

     Computing kpt #:    82  of   271
     total cpu time spent up to now is      699.1 secs

     Computing kpt #:    83  of   271
     total cpu time spent up to now is      707.9 secs

     Computing kpt #:    84  of   271
     total cpu time spent up to now is      715.8 secs

     Computing kpt #:    85  of   271
     total cpu time spent up to now is      723.0 secs

     Computing kpt #:    86  of   271
     total cpu time spent up to now is      730.3 secs

     Computing kpt #:    87  of   271
     total cpu time spent up to now is      738.2 secs

     Computing kpt #:    88  of   271
     total cpu time spent up to now is      746.0 secs

     Computing kpt #:    89  of   271
     total cpu time spent up to now is      754.1 secs

     Computing kpt #:    90  of   271
     total cpu time spent up to now is      762.9 secs

     Computing kpt #:    91  of   271
     total cpu time spent up to now is      770.5 secs

     Computing kpt #:    92  of   271
     total cpu time spent up to now is      778.3 secs

     Computing kpt #:    93  of   271
     total cpu time spent up to now is      786.7 secs

     Computing kpt #:    94  of   271
     total cpu time spent up to now is      794.1 secs

     Computing kpt #:    95  of   271
     total cpu time spent up to now is      803.2 secs

     Computing kpt #:    96  of   271
     total cpu time spent up to now is      813.7 secs

     Computing kpt #:    97  of   271
     total cpu time spent up to now is      824.3 secs

     Computing kpt #:    98  of   271
     total cpu time spent up to now is      833.2 secs

     Computing kpt #:    99  of   271
     total cpu time spent up to now is      842.4 secs

     Computing kpt #:   100  of   271
     total cpu time spent up to now is      851.9 secs

     Computing kpt #:   101  of   271
     total cpu time spent up to now is      863.0 secs

     Computing kpt #:   102  of   271
     total cpu time spent up to now is      871.8 secs

     Computing kpt #:   103  of   271
     total cpu time spent up to now is      880.0 secs

     Computing kpt #:   104  of   271
     total cpu time spent up to now is      890.8 secs

     Computing kpt #:   105  of   271
     total cpu time spent up to now is      902.9 secs

     Computing kpt #:   106  of   271
     total cpu time spent up to now is      916.4 secs

     Computing kpt #:   107  of   271
     total cpu time spent up to now is      928.6 secs

     Computing kpt #:   108  of   271
     total cpu time spent up to now is      939.9 secs

     Computing kpt #:   109  of   271
     total cpu time spent up to now is      953.7 secs

     Computing kpt #:   110  of   271
     total cpu time spent up to now is      965.7 secs

     Computing kpt #:   111  of   271
     total cpu time spent up to now is      975.9 secs

     Computing kpt #:   112  of   271
     total cpu time spent up to now is      988.8 secs

     Computing kpt #:   113  of   271
     total cpu time spent up to now is      999.1 secs

     Computing kpt #:   114  of   271
     total cpu time spent up to now is     1008.7 secs

     Computing kpt #:   115  of   271
     total cpu time spent up to now is     1021.4 secs

     Computing kpt #:   116  of   271
     total cpu time spent up to now is     1030.7 secs

     Computing kpt #:   117  of   271
     total cpu time spent up to now is     1040.2 secs

     Computing kpt #:   118  of   271
     total cpu time spent up to now is     1049.5 secs

     Computing kpt #:   119  of   271
     total cpu time spent up to now is     1059.6 secs

     Computing kpt #:   120  of   271
     total cpu time spent up to now is     1069.8 secs

     Computing kpt #:   121  of   271
     total cpu time spent up to now is     1078.5 secs

     Computing kpt #:   122  of   271
     total cpu time spent up to now is     1087.9 secs

     Computing kpt #:   123  of   271
     total cpu time spent up to now is     1096.8 secs

     Computing kpt #:   124  of   271
     total cpu time spent up to now is     1106.4 secs

     Computing kpt #:   125  of   271
     total cpu time spent up to now is     1115.5 secs

     Computing kpt #:   126  of   271
     total cpu time spent up to now is     1125.3 secs

     Computing kpt #:   127  of   271
     total cpu time spent up to now is     1133.0 secs

     Computing kpt #:   128  of   271
     total cpu time spent up to now is     1142.7 secs

     Computing kpt #:   129  of   271
     total cpu time spent up to now is     1152.0 secs

     Computing kpt #:   130  of   271
     total cpu time spent up to now is     1162.7 secs

     Computing kpt #:   131  of   271
     total cpu time spent up to now is     1170.2 secs

     Computing kpt #:   132  of   271
     total cpu time spent up to now is     1177.3 secs

     Computing kpt #:   133  of   271
     total cpu time spent up to now is     1186.7 secs

     Computing kpt #:   134  of   271
     total cpu time spent up to now is     1196.5 secs

     Computing kpt #:   135  of   271
     total cpu time spent up to now is     1206.2 secs

     Computing kpt #:   136  of   271
     total cpu time spent up to now is     1217.5 secs

     Computing kpt #:   137  of   271
     total cpu time spent up to now is     1229.0 secs

     Computing kpt #:   138  of   271
     total cpu time spent up to now is     1241.1 secs

     Computing kpt #:   139  of   271
     total cpu time spent up to now is     1252.4 secs

     Computing kpt #:   140  of   271
     total cpu time spent up to now is     1266.0 secs

     Computing kpt #:   141  of   271
     total cpu time spent up to now is     1276.5 secs

     Computing kpt #:   142  of   271
     total cpu time spent up to now is     1287.0 secs

     Computing kpt #:   143  of   271
     total cpu time spent up to now is     1298.0 secs

     Computing kpt #:   144  of   271
     total cpu time spent up to now is     1308.6 secs

     Computing kpt #:   145  of   271
     total cpu time spent up to now is     1316.4 secs

     Computing kpt #:   146  of   271
     total cpu time spent up to now is     1327.8 secs

     Computing kpt #:   147  of   271
     total cpu time spent up to now is     1336.7 secs

     Computing kpt #:   148  of   271
     total cpu time spent up to now is     1347.0 secs

     Computing kpt #:   149  of   271
     total cpu time spent up to now is     1356.9 secs

     Computing kpt #:   150  of   271
     total cpu time spent up to now is     1366.5 secs

     Computing kpt #:   151  of   271
     total cpu time spent up to now is     1377.0 secs

     Computing kpt #:   152  of   271
     total cpu time spent up to now is     1389.1 secs

     Computing kpt #:   153  of   271
     total cpu time spent up to now is     1400.2 secs

     Computing kpt #:   154  of   271
     total cpu time spent up to now is     1409.3 secs

     Computing kpt #:   155  of   271
     total cpu time spent up to now is     1419.5 secs

     Computing kpt #:   156  of   271
     total cpu time spent up to now is     1433.0 secs

     Computing kpt #:   157  of   271
     total cpu time spent up to now is     1443.3 secs

     Computing kpt #:   158  of   271
     total cpu time spent up to now is     1452.5 secs

     Computing kpt #:   159  of   271
     total cpu time spent up to now is     1461.6 secs

     Computing kpt #:   160  of   271
     total cpu time spent up to now is     1470.9 secs

     Computing kpt #:   161  of   271
     total cpu time spent up to now is     1481.5 secs

     Computing kpt #:   162  of   271
     total cpu time spent up to now is     1490.6 secs

     Computing kpt #:   163  of   271
     total cpu time spent up to now is     1498.4 secs

     Computing kpt #:   164  of   271
     total cpu time spent up to now is     1507.8 secs

     Computing kpt #:   165  of   271
     total cpu time spent up to now is     1516.2 secs

     Computing kpt #:   166  of   271
     total cpu time spent up to now is     1524.6 secs

     Computing kpt #:   167  of   271
     total cpu time spent up to now is     1533.1 secs

     Computing kpt #:   168  of   271
     total cpu time spent up to now is     1542.0 secs

     Computing kpt #:   169  of   271
     total cpu time spent up to now is     1548.9 secs

     Computing kpt #:   170  of   271
     total cpu time spent up to now is     1559.9 secs

     Computing kpt #:   171  of   271
     total cpu time spent up to now is     1569.6 secs

     Computing kpt #:   172  of   271
     total cpu time spent up to now is     1577.2 secs

     Computing kpt #:   173  of   271
     total cpu time spent up to now is     1584.8 secs

     Computing kpt #:   174  of   271
     total cpu time spent up to now is     1588.7 secs

     Computing kpt #:   175  of   271
     total cpu time spent up to now is     1594.4 secs

     Computing kpt #:   176  of   271
     total cpu time spent up to now is     1600.1 secs

     Computing kpt #:   177  of   271
     total cpu time spent up to now is     1606.2 secs

     Computing kpt #:   178  of   271
     total cpu time spent up to now is     1612.8 secs

     Computing kpt #:   179  of   271
     total cpu time spent up to now is     1620.5 secs

     Computing kpt #:   180  of   271
     total cpu time spent up to now is     1627.7 secs

     Computing kpt #:   181  of   271
     total cpu time spent up to now is     1633.8 secs

     Computing kpt #:   182  of   271
     total cpu time spent up to now is     1640.5 secs

     Computing kpt #:   183  of   271
     total cpu time spent up to now is     1646.4 secs

     Computing kpt #:   184  of   271
     total cpu time spent up to now is     1654.8 secs

     Computing kpt #:   185  of   271
     total cpu time spent up to now is     1663.5 secs

     Computing kpt #:   186  of   271
     total cpu time spent up to now is     1671.3 secs

     Computing kpt #:   187  of   271
     total cpu time spent up to now is     1679.3 secs

     Computing kpt #:   188  of   271
     total cpu time spent up to now is     1690.5 secs

     Computing kpt #:   189  of   271
     total cpu time spent up to now is     1700.1 secs

     Computing kpt #:   190  of   271
     total cpu time spent up to now is     1709.4 secs

     Computing kpt #:   191  of   271
     total cpu time spent up to now is     1721.7 secs

     Computing kpt #:   192  of   271
     total cpu time spent up to now is     1732.5 secs

     Computing kpt #:   193  of   271
     total cpu time spent up to now is     1744.1 secs

     Computing kpt #:   194  of   271
     total cpu time spent up to now is     1754.8 secs

     Computing kpt #:   195  of   271
     total cpu time spent up to now is     1765.1 secs

     Computing kpt #:   196  of   271
     total cpu time spent up to now is     1776.0 secs

     Computing kpt #:   197  of   271
     total cpu time spent up to now is     1783.7 secs

     Computing kpt #:   198  of   271
     total cpu time spent up to now is     1792.5 secs

     Computing kpt #:   199  of   271
     total cpu time spent up to now is     1802.6 secs

     Computing kpt #:   200  of   271
     total cpu time spent up to now is     1812.3 secs

     Computing kpt #:   201  of   271
     total cpu time spent up to now is     1822.7 secs

     Computing kpt #:   202  of   271
     total cpu time spent up to now is     1831.8 secs

     Computing kpt #:   203  of   271
     total cpu time spent up to now is     1841.6 secs

     Computing kpt #:   204  of   271
     total cpu time spent up to now is     1851.3 secs

     Computing kpt #:   205  of   271
     total cpu time spent up to now is     1861.8 secs

     Computing kpt #:   206  of   271
     total cpu time spent up to now is     1873.6 secs

     Computing kpt #:   207  of   271
     total cpu time spent up to now is     1884.3 secs

     Computing kpt #:   208  of   271
     total cpu time spent up to now is     1895.0 secs

     Computing kpt #:   209  of   271
     total cpu time spent up to now is     1905.6 secs

     Computing kpt #:   210  of   271
     total cpu time spent up to now is     1918.4 secs

     Computing kpt #:   211  of   271
     total cpu time spent up to now is     1928.9 secs

     Computing kpt #:   212  of   271
     total cpu time spent up to now is     1936.6 secs

     Computing kpt #:   213  of   271
     total cpu time spent up to now is     1944.4 secs

     Computing kpt #:   214  of   271
     total cpu time spent up to now is     1952.4 secs

     Computing kpt #:   215  of   271
     total cpu time spent up to now is     1963.7 secs

     Computing kpt #:   216  of   271
     total cpu time spent up to now is     1975.9 secs

     Computing kpt #:   217  of   271
     total cpu time spent up to now is     1986.9 secs

     Computing kpt #:   218  of   271
     total cpu time spent up to now is     1996.0 secs

     Computing kpt #:   219  of   271
     total cpu time spent up to now is     2004.6 secs

     Computing kpt #:   220  of   271
     total cpu time spent up to now is     2012.6 secs

     Computing kpt #:   221  of   271
     total cpu time spent up to now is     2020.0 secs

     Computing kpt #:   222  of   271
     total cpu time spent up to now is     2027.0 secs

     Computing kpt #:   223  of   271
     total cpu time spent up to now is     2034.9 secs

     Computing kpt #:   224  of   271
     total cpu time spent up to now is     2043.0 secs

     Computing kpt #:   225  of   271
     total cpu time spent up to now is     2052.4 secs

     Computing kpt #:   226  of   271
     total cpu time spent up to now is     2062.5 secs

     Computing kpt #:   227  of   271
     total cpu time spent up to now is     2072.2 secs

     Computing kpt #:   228  of   271
     total cpu time spent up to now is     2082.6 secs

     Computing kpt #:   229  of   271
     total cpu time spent up to now is     2090.5 secs

     Computing kpt #:   230  of   271
     total cpu time spent up to now is     2098.6 secs

     Computing kpt #:   231  of   271
     total cpu time spent up to now is     2110.0 secs

     Computing kpt #:   232  of   271
     total cpu time spent up to now is     2120.1 secs

     Computing kpt #:   233  of   271
     total cpu time spent up to now is     2129.4 secs

     Computing kpt #:   234  of   271
     total cpu time spent up to now is     2138.9 secs

     Computing kpt #:   235  of   271
     total cpu time spent up to now is     2150.9 secs

     Computing kpt #:   236  of   271
     total cpu time spent up to now is     2162.8 secs

     Computing kpt #:   237  of   271
     total cpu time spent up to now is     2173.8 secs

     Computing kpt #:   238  of   271
     total cpu time spent up to now is     2185.0 secs

     Computing kpt #:   239  of   271
     total cpu time spent up to now is     2194.2 secs

     Computing kpt #:   240  of   271
     total cpu time spent up to now is     2204.5 secs

     Computing kpt #:   241  of   271
     total cpu time spent up to now is     2215.7 secs

     Computing kpt #:   242  of   271
     total cpu time spent up to now is     2226.3 secs

     Computing kpt #:   243  of   271
     total cpu time spent up to now is     2238.8 secs

     Computing kpt #:   244  of   271
     total cpu time spent up to now is     2250.2 secs

     Computing kpt #:   245  of   271
     total cpu time spent up to now is     2258.7 secs

     Computing kpt #:   246  of   271
     total cpu time spent up to now is     2268.0 secs

     Computing kpt #:   247  of   271
     total cpu time spent up to now is     2275.8 secs

     Computing kpt #:   248  of   271
     total cpu time spent up to now is     2285.5 secs

     Computing kpt #:   249  of   271
     total cpu time spent up to now is     2295.9 secs

     Computing kpt #:   250  of   271
     total cpu time spent up to now is     2306.6 secs

     Computing kpt #:   251  of   271
     total cpu time spent up to now is     2317.5 secs

     Computing kpt #:   252  of   271
     total cpu time spent up to now is     2329.0 secs

     Computing kpt #:   253  of   271
     total cpu time spent up to now is     2339.6 secs

     Computing kpt #:   254  of   271
     total cpu time spent up to now is     2349.4 secs

     Computing kpt #:   255  of   271
     total cpu time spent up to now is     2359.1 secs

     Computing kpt #:   256  of   271
     total cpu time spent up to now is     2369.3 secs

     Computing kpt #:   257  of   271
     total cpu time spent up to now is     2378.4 secs

     Computing kpt #:   258  of   271
     total cpu time spent up to now is     2386.8 secs

     Computing kpt #:   259  of   271
     total cpu time spent up to now is     2398.5 secs

     Computing kpt #:   260  of   271
     total cpu time spent up to now is     2410.4 secs

     Computing kpt #:   261  of   271
     total cpu time spent up to now is     2421.1 secs

     Computing kpt #:   262  of   271
     total cpu time spent up to now is     2429.9 secs

     Computing kpt #:   263  of   271
     total cpu time spent up to now is     2441.2 secs

     Computing kpt #:   264  of   271
     total cpu time spent up to now is     2451.1 secs

     Computing kpt #:   265  of   271
     total cpu time spent up to now is     2461.1 secs

     Computing kpt #:   266  of   271
     total cpu time spent up to now is     2472.5 secs

[...]

   -13.7490 -13.7490 -13.7490 -13.7490 -13.7323 -13.7323 -13.7323 -13.7323
   -13.7221 -13.7221 -13.7221 -13.7221 -13.7016 -13.7016 -13.7016 -13.7016
   -13.6753 -13.6753 -13.6753 -13.6753  -4.9933  -4.9933  -4.9933  -4.9933
     0.3020   0.3020   0.3020   0.3020   4.8598   4.8598   4.8598   4.8598
     5.4989   5.4989   5.4989   5.4989   6.4672   6.4672   6.4672   6.4672
     9.0174   9.0174   9.0174   9.0174   9.8488   9.8488   9.8488   9.8488
    11.3182  11.3182

          k = 0.0000 0.5460 0.1972 (  4116 PWs)   bands (ev):

   -13.7490 -13.7490 -13.7490 -13.7490 -13.7323 -13.7323 -13.7323 -13.7323
   -13.7221 -13.7221 -13.7221 -13.7221 -13.7016 -13.7016 -13.7016 -13.7016
   -13.6753 -13.6753 -13.6753 -13.6753  -4.9938  -4.9938  -4.9938  -4.9938
     0.3008   0.3008   0.3008   0.3008   4.8668   4.8668   4.8668   4.8668
     5.5038   5.5038   5.5038   5.5038   6.4664   6.4664   6.4664   6.4664
     9.0222   9.0222   9.0222   9.0222   9.8280   9.8280   9.8280   9.8280
    11.3180  11.3180

          k = 0.0000 0.5278 0.1972 (  4116 PWs)   bands (ev):

   -13.7492 -13.7492 -13.7487 -13.7487 -13.7324 -13.7324 -13.7322 -13.7322
   -13.7227 -13.7227 -13.7216 -13.7216 -13.7023 -13.7023 -13.7010 -13.7010
   -13.6757 -13.6757 -13.6749 -13.6749  -5.0299  -5.0299  -4.9598  -4.9598
     0.2631   0.2631   0.3451   0.3451   4.8102   4.8102   4.9131   4.9131
     5.4828   5.4828   5.5306   5.5306   6.3974   6.3974   6.5361   6.5361
     8.9485   8.9485   9.0967   9.0967   9.8037   9.8037   9.8702   9.8702
    11.2808  11.2808

          k = 0.0000 0.5096 0.1972 (  4126 PWs)   bands (ev):

   -13.7493 -13.7493 -13.7484 -13.7484 -13.7326 -13.7326 -13.7322 -13.7322
   -13.7233 -13.7233 -13.7211 -13.7211 -13.7029 -13.7029 -13.7004 -13.7004
   -13.6762 -13.6762 -13.6745 -13.6745  -5.0679  -5.0679  -4.9281  -4.9281
     0.2321   0.2321   0.3959   0.3959   4.7466   4.7466   4.9450   4.9450
     5.4713   5.4713   5.5600   5.5600   6.3303   6.3303   6.6056   6.6056
     8.8784   8.8784   9.1685   9.1685   9.7993   9.7993   9.9280   9.9280
    11.2450  11.2450

          k = 0.0000 0.4914 0.1972 (  4124 PWs)   bands (ev):

   -13.7494 -13.7494 -13.7480 -13.7480 -13.7328 -13.7328 -13.7323 -13.7323
   -13.7240 -13.7240 -13.7206 -13.7206 -13.7034 -13.7034 -13.6997 -13.6997
   -13.6767 -13.6767 -13.6741 -13.6741  -5.1074  -5.1074  -4.8989  -4.8989
     0.2080   0.2080   0.4528   0.4528   4.6789   4.6789   4.9596   4.9596
     5.4715   5.4715   5.5895   5.5895   6.2661   6.2661   6.6739   6.6739
     8.8148   8.8148   9.2351   9.2351   9.8166   9.8166   9.9997   9.9997
    11.2107  11.2107

          k = 0.0000 0.4732 0.1972 (  4122 PWs)   bands (ev):

   -13.7495 -13.7495 -13.7476 -13.7476 -13.7330 -13.7330 -13.7324 -13.7324
   -13.7246 -13.7246 -13.7201 -13.7201 -13.7040 -13.7040 -13.6990 -13.6990
   -13.6772 -13.6772 -13.6738 -13.6738  -5.1483  -5.1483  -4.8724  -4.8724
     0.1906   0.1906   0.5156   0.5156   4.6088   4.6088   4.9565   4.9565
     5.4828   5.4828   5.6171   5.6171   6.2061   6.2061   6.7399   6.7399
     8.7601   8.7601   9.2949   9.2949   9.8561   9.8561  10.0840  10.0840
    11.1781  11.1781

          k = 0.0000 0.4550 0.1972 (  4126 PWs)   bands (ev):

   -13.7494 -13.7494 -13.7471 -13.7471 -13.7333 -13.7333 -13.7325 -13.7325
   -13.7252 -13.7252 -13.7197 -13.7197 -13.7045 -13.7045 -13.6983 -13.6983
   -13.6778 -13.6778 -13.6735 -13.6735  -5.1902  -5.1902  -4.8487  -4.8487
     0.1801   0.1801   0.5840   0.5840   4.5380   4.5380   4.9386   4.9386
     5.5009   5.5009   5.6415   5.6415   6.1521   6.1521   6.8026   6.8026
     8.7166   8.7166   9.3490   9.3490   9.9154   9.9154  10.1793  10.1793
    11.1479  11.1479

          k = 0.0000 0.4368 0.1972 (  4130 PWs)   bands (ev):

   -13.7494 -13.7494 -13.7466 -13.7466 -13.7337 -13.7337 -13.7328 -13.7328
   -13.7258 -13.7258 -13.7194 -13.7194 -13.7050 -13.7050 -13.6975 -13.6975
   -13.6783 -13.6783 -13.6732 -13.6732  -5.2329  -5.2329  -4.8278  -4.8278
     0.1761   0.1761   0.6576   0.6576   4.4673   4.4673   4.9099   4.9099
     5.5198   5.5198   5.6620   5.6620   6.1058   6.1058   6.8608   6.8608
     8.6864   8.6864   9.4003   9.4003   9.9906   9.9906  10.2841  10.2841
    11.1205  11.1205

          k = 0.0000 0.4186 0.1972 (  4136 PWs)   bands (ev):

   -13.7493 -13.7493 -13.7461 -13.7461 -13.7341 -13.7341 -13.7330 -13.7330
   -13.7263 -13.7263 -13.7191 -13.7191 -13.7055 -13.7055 -13.6968 -13.6968
   -13.6789 -13.6789 -13.6730 -13.6730  -5.2759  -5.2759  -4.8098  -4.8098
     0.1784   0.1784   0.7359   0.7359   4.3977   4.3977   4.8745   4.8745
     5.5332   5.5332   5.6786   5.6786   6.0689   6.0689   6.9135   6.9135
     8.6714   8.6714   9.4521   9.4521  10.0768  10.0768  10.3967  10.3967
    11.0971  11.0971

          k = 0.0000 0.4004 0.1972 (  4124 PWs)   bands (ev):

   -13.7491 -13.7491 -13.7455 -13.7455 -13.7346 -13.7346 -13.7334 -13.7334
   -13.7267 -13.7267 -13.7189 -13.7189 -13.7059 -13.7059 -13.6960 -13.6960
   -13.6795 -13.6795 -13.6728 -13.6728  -5.3192  -5.3192  -4.7946  -4.7946
     0.1867   0.1867   0.8187   0.8187   4.3296   4.3296   4.8353   4.8353
     5.5361   5.5361   5.6918   5.6918   6.0425   6.0425   6.9599   6.9599
     8.6731   8.6731   9.5070   9.5070  10.1696  10.1696  10.5143  10.5143
    11.0795  11.0795

          k = 0.0000 0.3822 0.1972 (  4128 PWs)   bands (ev):

   -13.7489 -13.7489 -13.7449 -13.7449 -13.7352 -13.7352 -13.7337 -13.7337
   -13.7271 -13.7271 -13.7187 -13.7187 -13.7063 -13.7063 -13.6953 -13.6953
   -13.6800 -13.6800 -13.6726 -13.6726  -5.3623  -5.3623  -4.7822  -4.7822
     0.2007   0.2007   0.9053   0.9053   4.2636   4.2636   4.7946   4.7946
     5.5266   5.5266   5.7020   5.7020   6.0259   6.0259   6.9995   6.9995
     8.6925   8.6925   9.5668   9.5668  10.2651  10.2651  10.6325  10.6325
    11.0717  11.0717

          k = 0.0000 0.3640 0.1972 (  4120 PWs)   bands (ev):

   -13.7487 -13.7487 -13.7443 -13.7443 -13.7358 -13.7358 -13.7342 -13.7342
   -13.7274 -13.7274 -13.7186 -13.7186 -13.7067 -13.7067 -13.6945 -13.6945
   -13.6806 -13.6806 -13.6724 -13.6724  -5.4051  -5.4051  -4.7724  -4.7724
     0.2197   0.2197   0.9954   0.9954   4.2001   4.2001   4.7539   4.7539
     5.5056   5.5056   5.7094   5.7094   6.0167   6.0167   7.0323   7.0323
     8.7297   8.7297   9.6320   9.6320  10.3594  10.3594  10.7427  10.7427
    11.0820  11.0820

          k = 0.0000 0.3458 0.1972 (  4126 PWs)   bands (ev):

   -13.7485 -13.7485 -13.7437 -13.7437 -13.7364 -13.7364 -13.7347 -13.7347
   -13.7276 -13.7276 -13.7185 -13.7185 -13.7071 -13.7071 -13.6937 -13.6937
   -13.6811 -13.6811 -13.6723 -13.6723  -5.4472  -5.4472  -4.7651  -4.7651
     0.2434   0.2434   1.0885   1.0885   4.1394   4.1394   4.7143   4.7143
     5.4759   5.4759   5.7136   5.7136   6.0115   6.0115   7.0587   7.0587
     8.7846   8.7846   9.7027   9.7027  10.4485  10.4485  10.8300  10.8300
    11.1255  11.1255

          k = 0.0000 0.3276 0.1972 (  4118 PWs)   bands (ev):

   -13.7482 -13.7482 -13.7432 -13.7432 -13.7370 -13.7370 -13.7352 -13.7352
   -13.7277 -13.7277 -13.7185 -13.7185 -13.7074 -13.7074 -13.6930 -13.6930
   -13.6816 -13.6816 -13.6722 -13.6722  -5.4885  -5.4885  -4.7601  -4.7601
     0.2710   0.2710   1.1840   1.1840   4.0815   4.0815   4.6767   4.6767
     5.4408   5.4408   5.7146   5.7146   6.0072   6.0072   7.0794   7.0794
     8.8559   8.8559   9.7780   9.7780  10.5277  10.5277  10.8853  10.8853
    11.2121  11.2121

          k = 0.0000 0.3094 0.1972 (  4130 PWs)   bands (ev):

   -13.7481 -13.7481 -13.7427 -13.7427 -13.7376 -13.7376 -13.7357 -13.7357
   -13.7277 -13.7277 -13.7186 -13.7186 -13.7077 -13.7077 -13.6923 -13.6923
   -13.6822 -13.6822 -13.6721 -13.6721  -5.5287  -5.5287  -4.7572  -4.7572
     0.3019   0.3019   1.2813   1.2813   4.0268   4.0268   4.6418   4.6418
     5.4027   5.4027   5.7127   5.7127   6.0015   6.0015   7.0952   7.0952
     8.9421   8.9421   9.8567   9.8567  10.5923  10.5923  10.9214  10.9214
    11.3295  11.3295

          k = 0.0000 0.2912 0.1972 (  4132 PWs)   bands (ev):

   -13.7479 -13.7479 -13.7424 -13.7424 -13.7380 -13.7380 -13.7362 -13.7362
   -13.7277 -13.7277 -13.7187 -13.7187 -13.7080 -13.7080 -13.6916 -13.6916
   -13.6826 -13.6826 -13.6720 -13.6720  -5.5676  -5.5676  -4.7562  -4.7562
     0.3355   0.3355   1.3799   1.3799   3.9753   3.9753   4.6101   4.6101
     5.3633   5.3633   5.7083   5.7083   5.9930   5.9930   7.1069   7.1069
     9.0416   9.0416   9.9369   9.9369  10.6396  10.6396  10.9536  10.9536
    11.4612  11.4612

          k = 0.0000 0.2730 0.1972 (  4124 PWs)   bands (ev):

   -13.7479 -13.7479 -13.7423 -13.7423 -13.7381 -13.7381 -13.7366 -13.7366
   -13.7276 -13.7276 -13.7188 -13.7188 -13.7083 -13.7083 -13.6909 -13.6909
   -13.6831 -13.6831 -13.6720 -13.6720  -5.6050  -5.6050  -4.7567  -4.7567
     0.3709   0.3709   1.4792   1.4792   3.9270   3.9270   4.5821   4.5821
     5.3240   5.3240   5.7018   5.7018   5.9812   5.9812   7.1152   7.1152
     9.1522   9.1522  10.0161  10.0161  10.6712  10.6712  10.9855  10.9855
    11.5975  11.5975

          k = 0.0000 0.2548 0.1972 (  4118 PWs)   bands (ev):

   -13.7480 -13.7480 -13.7422 -13.7422 -13.7383 -13.7383 -13.7369 -13.7369
   -13.7275 -13.7275 -13.7190 -13.7190 -13.7085 -13.7085 -13.6903 -13.6903
   -13.6834 -13.6834 -13.6719 -13.6719  -5.6408  -5.6408  -4.7587  -4.7587
     0.4076   0.4076   1.5785   1.5785   3.8821   3.8821   4.5579   4.5579
     5.2852   5.2852   5.6938   5.6938   5.9661   5.9661   7.1206   7.1206
     9.2719   9.2719  10.0910  10.0910  10.6929  10.6929  11.0134  11.0134
    11.7336  11.7336

          k = 0.0000 0.2366 0.1972 (  4118 PWs)   bands (ev):

   -13.7483 -13.7483 -13.7422 -13.7422 -13.7386 -13.7386 -13.7369 -13.7369
   -13.7273 -13.7273 -13.7192 -13.7192 -13.7087 -13.7087 -13.6898 -13.6898
   -13.6837 -13.6837 -13.6718 -13.6718  -5.6748  -5.6748  -4.7617  -4.7617
     0.4447   0.4447   1.6771   1.6771   3.8405   3.8405   4.5379   4.5379
     5.2476   5.2476   5.6846   5.6846   5.9484   5.9484   7.1232   7.1232
     9.3983   9.3983  10.1579  10.1579  10.7101  10.7101  11.0332  11.0332
    11.8667  11.8667

          k = 0.0000 0.2184 0.1972 (  4102 PWs)   bands (ev):

   -13.7487 -13.7487 -13.7421 -13.7421 -13.7390 -13.7390 -13.7366 -13.7366
   -13.7271 -13.7271 -13.7194 -13.7194 -13.7089 -13.7089 -13.6894 -13.6894
   -13.6840 -13.6840 -13.6718 -13.6718  -5.7068  -5.7068  -4.7657  -4.7657
     0.4817   0.4817   1.7742   1.7742   3.8022   3.8022   4.5222   4.5222
     5.2111   5.2111   5.6744   5.6744   5.9291   5.9291   7.1234   7.1234
     9.5288   9.5288  10.2133  10.2133  10.7260  10.7260  11.0447  11.0447
    11.9948  11.9948

          k = 0.0000 0.2002 0.1972 (  4092 PWs)   bands (ev):

   -13.7493 -13.7493 -13.7419 -13.7419 -13.7395 -13.7395 -13.7361 -13.7361
   -13.7268 -13.7268 -13.7197 -13.7197 -13.7091 -13.7091 -13.6891 -13.6891
   -13.6841 -13.6841 -13.6717 -13.6717  -5.7366  -5.7366  -4.7702  -4.7702
     0.5178   0.5178   1.8690   1.8690   3.7671   3.7671   4.5109   4.5109
     5.1757   5.1757   5.6635   5.6635   5.9093   5.9093   7.1214   7.1214
     9.6602   9.6602  10.2549  10.2549  10.7388  10.7388  11.0536  11.0536
    12.1162  12.1162

          k = 0.0000 0.1820 0.1972 (  4102 PWs)   bands (ev):

   -13.7500 -13.7500 -13.7417 -13.7417 -13.7399 -13.7399 -13.7357 -13.7357
   -13.7266 -13.7266 -13.7200 -13.7200 -13.7092 -13.7092 -13.6890 -13.6890
   -13.6841 -13.6841 -13.6717 -13.6717  -5.7643  -5.7643  -4.7752  -4.7752
     0.5524   0.5524   1.9606   1.9606   3.7354   3.7354   4.5040   4.5040
     5.1412   5.1412   5.6517   5.6517   5.8902   5.8902   7.1172   7.1172
     9.7879   9.7879  10.2825  10.2825  10.7443  10.7443  11.0691  11.0691
    12.2283  12.2283

          k = 0.0000 0.1638 0.1972 (  4096 PWs)   bands (ev):

   -13.7506 -13.7506 -13.7416 -13.7416 -13.7403 -13.7403 -13.7352 -13.7352
   -13.7263 -13.7263 -13.7203 -13.7203 -13.7094 -13.7094 -13.6889 -13.6889
   -13.6840 -13.6840 -13.6716 -13.6716  -5.7897  -5.7897  -4.7803  -4.7803
     0.5851   0.5851   2.0481   2.0481   3.7069   3.7069   4.5016   4.5016
     5.1073   5.1073   5.6392   5.6392   5.8731   5.8731   7.1112   7.1112
     9.9055   9.9055  10.2978  10.2978  10.7427  10.7427  11.0979  11.0979
    12.3261  12.3261

          k = 0.0000 0.1456 0.1972 (  4096 PWs)   bands (ev):

   -13.7513 -13.7513 -13.7416 -13.7416 -13.7405 -13.7405 -13.7348 -13.7348
   -13.7260 -13.7260 -13.7205 -13.7205 -13.7095 -13.7095 -13.6890 -13.6890
   -13.6839 -13.6839 -13.6715 -13.6715  -5.8126  -5.8126  -4.7855  -4.7855
     0.6154   0.6154   2.1304   2.1304   3.6815   3.6815   4.5035   4.5035
     5.0738   5.0738   5.6258   5.6258   5.8590   5.8590   7.1038   7.1038
    10.0045  10.0045  10.3019  10.3019  10.7451  10.7451  11.1387  11.1387
    12.4000  12.4000

          k = 0.0000 0.1274 0.1972 (  4090 PWs)   bands (ev):

   -13.7519 -13.7519 -13.7418 -13.7418 -13.7404 -13.7404 -13.7344 -13.7344
   -13.7257 -13.7257 -13.7208 -13.7208 -13.7097 -13.7097 -13.6890 -13.6890
   -13.6837 -13.6837 -13.6715 -13.6715  -5.8330  -5.8330  -4.7904  -4.7904
     0.6429   0.6429   2.2064   2.2064   3.6593   3.6593   4.5096   4.5096
     5.0404   5.0404   5.6118   5.6118   5.8484   5.8484   7.0952   7.0952
    10.0766  10.0766  10.2935  10.2935  10.7690  10.7690  11.1854  11.1854
    12.4400  12.4400

          k = 0.0000 0.1092 0.1972 (  4090 PWs)   bands (ev):

   -13.7525 -13.7525 -13.7421 -13.7421 -13.7402 -13.7402 -13.7341 -13.7341
   -13.7254 -13.7254 -13.7211 -13.7211 -13.7098 -13.7098 -13.6892 -13.6892
   -13.6835 -13.6835 -13.6714 -13.6714  -5.8509  -5.8509  -4.7951  -4.7951
     0.6672   0.6672   2.2752   2.2752   3.6402   3.6402   4.5196   4.5196
     5.0071   5.0071   5.5976   5.5976   5.8414   5.8414   7.0862   7.0862
    10.1196  10.1196  10.2716  10.2716  10.8250  10.8250  11.2319  11.2319
    12.4493  12.4493

          k = 0.0000 0.0910 0.1972 (  4106 PWs)   bands (ev):

   -13.7531 -13.7531 -13.7424 -13.7424 -13.7400 -13.7400 -13.7338 -13.7338
   -13.7251 -13.7251 -13.7213 -13.7213 -13.7099 -13.7099 -13.6893 -13.6893
   -13.6834 -13.6834 -13.6713 -13.6713  -5.8661  -5.8661  -4.7992  -4.7992
     0.6881   0.6881   2.3355   2.3355   3.6242   3.6242   4.5329   4.5329
     4.9741   4.9741   5.5839   5.5839   5.8376   5.8376   7.0771   7.0771
    10.1388  10.1388  10.2407  10.2407  10.9079  10.9079  11.2740  11.2740
    12.4388  12.4388

          k = 0.0000 0.0728 0.1972 (  4110 PWs)   bands (ev):

   -13.7535 -13.7535 -13.7427 -13.7427 -13.7398 -13.7398 -13.7335 -13.7335
   -13.7249 -13.7249 -13.7215 -13.7215 -13.7100 -13.7100 -13.6894 -13.6894
   -13.6832 -13.6832 -13.6713 -13.6713  -5.8786  -5.8786  -4.8028  -4.8028
     0.7055   0.7055   2.3866   2.3866   3.6112   3.6112   4.5487   4.5487
     4.9422   4.9422   5.5715   5.5715   5.8363   5.8363   7.0686   7.0686
    10.1403  10.1403  10.2105  10.2105  11.0036  11.0036  11.3091  11.3091
    12.4164  12.4164

          k = 0.0000 0.0546 0.1972 (  4110 PWs)   bands (ev):

   -13.7539 -13.7539 -13.7429 -13.7429 -13.7396 -13.7396 -13.7334 -13.7334
   -13.7247 -13.7247 -13.7217 -13.7217 -13.7101 -13.7101 -13.6895 -13.6895
   -13.6831 -13.6831 -13.6713 -13.6713  -5.8884  -5.8884  -4.8056  -4.8056
     0.7191   0.7191   2.4273   2.4273   3.6011   3.6011   4.5655   4.5655
     4.9127   4.9127   5.5610   5.5610   5.8365   5.8365   7.0612   7.0612
    10.1275  10.1275  10.1905  10.1905  11.0979  11.0979  11.3361  11.3361
    12.3877  12.3877

          k = 0.0000 0.0364 0.1972 (  4116 PWs)   bands (ev):

   -13.7541 -13.7541 -13.7431 -13.7431 -13.7395 -13.7395 -13.7332 -13.7332
   -13.7245 -13.7245 -13.7218 -13.7218 -13.7101 -13.7101 -13.6896 -13.6896
   -13.6830 -13.6830 -13.6712 -13.6712  -5.8954  -5.8954  -4.8077  -4.8077
     0.7289   0.7289   2.4569   2.4569   3.5940   3.5940   4.5812   4.5812
     4.8878   4.8878   5.5532   5.5532   5.8375   5.8375   7.0556   7.0556
    10.1088  10.1088  10.1810  10.1810  11.1784  11.1784  11.3546  11.3546
    12.3587  12.3587

          k = 0.0000 0.0182 0.1972 (  4116 PWs)   bands (ev):

   -13.7543 -13.7543 -13.7432 -13.7432 -13.7394 -13.7394 -13.7332 -13.7332
   -13.7244 -13.7244 -13.7219 -13.7219 -13.7101 -13.7101 -13.6897 -13.6897
   -13.6829 -13.6829 -13.6712 -13.6712  -5.8996  -5.8996  -4.8090  -4.8090
     0.7348   0.7348   2.4750   2.4750   3.5897   3.5897   4.5928   4.5928
     4.8706   4.8706   5.5483   5.5483   5.8383   5.8383   7.0520   7.0520
    10.0943  10.0943  10.1767  10.1767  11.2335  11.2335  11.3648  11.3648
    12.3367  12.3367

          k = 0.0000 0.0000 0.1972 (  4114 PWs)   bands (ev):

   -13.7543 -13.7543 -13.7432 -13.7432 -13.7393 -13.7393 -13.7331 -13.7331
   -13.7244 -13.7244 -13.7219 -13.7219 -13.7102 -13.7102 -13.6897 -13.6897
   -13.6829 -13.6829 -13.6712 -13.6712  -5.9010  -5.9010  -4.8094  -4.8094
     0.7368   0.7368   2.4810   2.4810   3.5883   3.5883   4.5972   4.5972
     4.8644   4.8644   5.5466   5.5466   5.8387   5.8387   7.0508   7.0508
    10.0890  10.0890  10.1754  10.1754  11.2533  11.2533  11.3679  11.3679
    12.3284  12.3284

     Writing output data file ./tmp/SnSe_pnma.save/

     init_run     :      1.66s CPU      1.72s WALL (       1 calls)
     electrons    :   2984.92s CPU   2518.64s WALL (       1 calls)

     Called by init_run:
     wfcinit      :      0.00s CPU      0.00s WALL (       1 calls)
     wfcinit:atom :      0.24s CPU      0.20s WALL (     271 calls)
     wfcinit:wfcr :     38.36s CPU     33.93s WALL (     271 calls)
     potinit      :      0.04s CPU      0.05s WALL (       1 calls)
     hinit0       :      0.48s CPU      0.49s WALL (       1 calls)

     Called by electrons:
     c_bands      :   2984.90s CPU   2518.59s WALL (       1 calls)
     v_of_rho     :      0.04s CPU      0.04s WALL (       1 calls)
     v_h          :      0.00s CPU      0.00s WALL (       1 calls)
     v_xc         :      0.03s CPU      0.04s WALL (       1 calls)
     newd         :      1.09s CPU      1.13s WALL (       1 calls)

     Called by c_bands:
     init_us_2    :      0.38s CPU      0.32s WALL (     271 calls)
     cegterg      :   2938.57s CPU   2478.08s WALL (     832 calls)

     Called by sum_band:

     Called by *egterg:
     cdiaghg      :   1204.16s CPU    989.44s WALL (   14338 calls)
     cegterg:over :    472.32s CPU    444.39s WALL (   14067 calls)
     cegterg:upda :    201.24s CPU    185.10s WALL (   14067 calls)
     cegterg:last :    258.24s CPU    205.99s WALL (   10497 calls)
     cdiaghg:chol :    144.31s CPU    113.29s WALL (   14338 calls)
     cdiaghg:inve :      2.93s CPU      2.67s WALL (   14338 calls)
     cdiaghg:para :    288.19s CPU    266.96s WALL (   28676 calls)
     h_psi        :    650.22s CPU    538.53s WALL (   15170 calls)
     s_psi        :     81.39s CPU     47.80s WALL (   15170 calls)
     g_psi        :      7.07s CPU      5.62s WALL (   14067 calls)

     Called by h_psi:
     h_psi:calbec :    151.25s CPU    127.42s WALL (   15170 calls)
     vloc_psi     :    414.25s CPU    364.31s WALL (   15170 calls)
     add_vuspsi   :     82.04s CPU     44.70s WALL (   15170 calls)

     General routines
     calbec       :    151.13s CPU    127.33s WALL (   15170 calls)
     fft          :      0.02s CPU      0.03s WALL (      13 calls)
     ffts         :      0.00s CPU      0.00s WALL (       1 calls)
     fftw         :    362.99s CPU    319.44s WALL ( 1074492 calls)
     interpolate  :      0.00s CPU      0.00s WALL (       1 calls)
     davcio       :      0.17s CPU      0.42s WALL (     542 calls)

     Parallel routines
     fft_scatt_xy :     46.16s CPU     40.41s WALL ( 1074506 calls)
     fft_scatt_yz :    133.41s CPU    119.33s WALL ( 1074506 calls)

     PWSCF        :  49m47.73s CPU  42m 3.14s WALL


   This run was terminated on:  15:37:13  23May2026            

=------------------------------------------------------------------------------=
   JOB DONE.
=------------------------------------------------------------------------------=
