
     Program BANDS v.6.7MaX starts on 23May2026 at 13:19:10 

     This program is part of the open-source Quantum ESPRESSO suite
     for quantum simulation of materials; please cite
         "P. Giannozzi et al., J. Phys.:Condens. Matter 21 395502 (2009);
         "P. Giannozzi et al., J. Phys.:Condens. Matter 29 465901 (2017);
          URL http://www.quantum-espresso.org", 
     in publications or presentations arising from this work. More details at
     http://www.quantum-espresso.org/quote

     Parallel version (MPI), running on     1 processors

     MPI processes distributed on     1 nodes

     Reading xml data from directory:

     ./tmp/SnSe_pnma.save/

     IMPORTANT: XC functional enforced from input :
     Exchange-correlation= PBE
                           (   1   4   3   4   0   0   0)
     Any further DFT definition will be discarded
     Please, verify this is what you really want


     G-vector sticks info
     --------------------
     sticks:   dense  smooth     PW     G-vecs:    dense   smooth      PW
     Sum        1629     641    199               130013    32833    5451

     Reading collected, re-writing distributed wavefunctions
     high-symmetry point:  0.0000 0.0000 0.0000   x coordinate   0.0000
     high-symmetry point:  0.5000 0.0000 0.0000   x coordinate   0.5000
     high-symmetry point:  0.5000 0.5460 0.0000   x coordinate   1.0460
     high-symmetry point:  0.0000 0.5460 0.0000   x coordinate   1.5460
     high-symmetry point:  0.0000 0.0000 0.0000   x coordinate   2.0921

     Plottable bands (eV) written to file SnSe_pnma.bands.dat.gnu
     Bands written to file SnSe_pnma.bands.dat

 **************************************************************************

                    xk=(   0.00000,   0.00000,   0.00000  )

     point group D_2h (mmm) 
     there are  8 classes
     the character table:

       E     C2    C2'   C2''  i     s_v   s_v'  s_v''
A_g    1.00  1.00  1.00  1.00  1.00  1.00  1.00  1.00
B_1g   1.00  1.00 -1.00 -1.00  1.00  1.00 -1.00 -1.00
B_2g   1.00 -1.00  1.00 -1.00  1.00 -1.00  1.00 -1.00
B_3g   1.00 -1.00 -1.00  1.00  1.00 -1.00 -1.00  1.00
A_u    1.00  1.00  1.00  1.00 -1.00 -1.00 -1.00 -1.00
B_1u   1.00  1.00 -1.00 -1.00 -1.00 -1.00  1.00  1.00
B_2u   1.00 -1.00  1.00 -1.00 -1.00  1.00 -1.00  1.00
B_3u   1.00 -1.00 -1.00  1.00 -1.00  1.00  1.00 -1.00

     the symmetry operations in each class and the name of the first element:

     E        1
                                                                 
     C2       2
                                                                 
     C2'      4
                                                                 
     C2''     3
                                                                 
     i        5
                                                                 
     s_v      6
                                                                 
     s_v'     8
                                                                 
     s_v''    7
                                                                 

     Band symmetry, D_2h (mmm)  point group:

     e(  1 -  1) =    -13.75903  eV     1   --> B_1u           
     e(  2 -  2) =    -13.74780  eV     1   --> B_3g           
     e(  3 -  3) =    -13.74584  eV     1   --> B_2u           
     e(  4 -  4) =    -13.74151  eV     1   --> A_g            
     e(  5 -  5) =    -13.74037  eV     1   --> B_3u           
     e(  6 -  6) =    -13.73766  eV     1   --> A_u            
     e(  7 -  7) =    -13.73432  eV     1   --> B_1g           
     e(  8 -  8) =    -13.73316  eV     1   --> B_2g           
     e(  9 -  9) =    -13.72616  eV     1   --> B_2g           
     e( 10 - 10) =    -13.72334  eV     1   --> B_3g           
     e( 11 - 11) =    -13.72182  eV     1   --> B_1u           
     e( 12 - 12) =    -13.72156  eV     1   --> B_1g           
     e( 13 - 13) =    -13.71179  eV     1   --> B_2u           
     e( 14 - 14) =    -13.70805  eV     1   --> A_g            
     e( 15 - 15) =    -13.69176  eV     1   --> B_1u           
     e( 16 - 16) =    -13.68785  eV     1   --> B_3g           
     e( 17 - 17) =    -13.68441  eV     1   --> B_2u           
     e( 18 - 18) =    -13.68151  eV     1   --> A_g            
     e( 19 - 19) =    -13.67473  eV     1   --> A_u            
     e( 20 - 20) =    -13.66806  eV     1   --> B_3u           
     e( 21 - 21) =     -6.03264  eV     1   --> A_g            
     e( 22 - 22) =     -5.69896  eV     1   --> B_2u           
     e( 23 - 23) =     -5.07308  eV     1   --> B_3g           
     e( 24 - 24) =     -4.61575  eV     1   --> B_1u           
     e( 25 - 25) =      0.41217  eV     1   --> B_3g           
     e( 26 - 26) =      1.46817  eV     1   --> B_1u           
     e( 27 - 27) =      1.97315  eV     1   --> A_g            
     e( 28 - 28) =      2.58900  eV     1   --> B_2u           
     e( 29 - 29) =      2.92380  eV     1   --> A_g            
     e( 30 - 30) =      4.34214  eV     1   --> B_3g           
     e( 31 - 31) =      4.41839  eV     1   --> B_2g           
     e( 32 - 32) =      4.42524  eV     1   --> B_1u           
     e( 33 - 33) =      4.69718  eV     1   --> B_2u           
     e( 34 - 34) =      4.90833  eV     1   --> A_u            
     e( 35 - 35) =      5.44270  eV     1   --> B_1g           
     e( 36 - 36) =      5.79167  eV     1   --> A_g            
     e( 37 - 37) =      6.10538  eV     1   --> B_3u           
     e( 38 - 38) =      6.55562  eV     1   --> B_2u           
     e( 39 - 39) =      6.84926  eV     1   --> B_3g           
     e( 40 - 40) =      7.14591  eV     1   --> B_1u           
     e( 41 - 41) =      8.37238  eV     1   --> B_3g           
     e( 42 - 42) =     10.25114  eV     1   --> A_g            
     e( 43 - 43) =     10.51446  eV     1   --> B_1u           
     e( 44 - 44) =     10.52137  eV     1   --> B_3g           
     e( 45 - 45) =     10.69215  eV     1   --> B_2u           
     e( 46 - 46) =     10.95847  eV     1   --> B_1g           
     e( 47 - 47) =     11.47532  eV     1   --> B_1u           
     e( 48 - 48) =     12.02726  eV     1   --> B_2g           
     e( 49 - 49) =     12.12325  eV     1   --> B_3u           
     e( 50 - 50) =     12.31517  eV     1   --> B_2u           

 **************************************************************************

 **************************************************************************

                    xk=(   0.01667,   0.00000,   0.00000  )

     point group C_2v (mm2) 
     there are  4 classes
     the character table:

       E     C2    s_v   s_v' 
A_1    1.00  1.00  1.00  1.00
A_2    1.00  1.00 -1.00 -1.00
B_1    1.00 -1.00  1.00 -1.00
B_2    1.00 -1.00 -1.00  1.00

     the symmetry operations in each class and the name of the first element:

     E        1
                                                                 
     C2       2
                                                                 
     s_v      4
                                                                 
     s_v'     3
                                                                 

     Band symmetry, C_2v (mm2)  point group:

     e(  1 -  1) =    -13.75902  eV     1   --> B_1  D_3  S_3  
     e(  2 -  2) =    -13.74780  eV     1   --> B_1  D_3  S_3  
     e(  3 -  3) =    -13.74584  eV     1   --> A_1  D_1  S_1  
     e(  4 -  4) =    -13.74151  eV     1   --> A_1  D_1  S_1  
     e(  5 -  5) =    -13.74038  eV     1   --> B_2  D_4  S_4  
     e(  6 -  6) =    -13.73767  eV     1   --> A_2  D_2  S_2  
     e(  7 -  7) =    -13.73431  eV     1   --> B_2  D_4  S_4  
     e(  8 -  8) =    -13.73316  eV     1   --> A_2  D_2  S_2  
     e(  9 -  9) =    -13.72617  eV     1   --> A_2  D_2  S_2  
     e( 10 - 10) =    -13.72332  eV     1   --> B_1  D_3  S_3  
     e( 11 - 11) =    -13.72177  eV     1   --> B_1  D_3  S_3  
     e( 12 - 12) =    -13.72157  eV     1   --> B_2  D_4  S_4  
     e( 13 - 13) =    -13.71178  eV     1   --> A_1  D_1  S_1  
     e( 14 - 14) =    -13.70805  eV     1   --> A_1  D_1  S_1  
     e( 15 - 15) =    -13.69177  eV     1   --> B_1  D_3  S_3  
     e( 16 - 16) =    -13.68784  eV     1   --> B_1  D_3  S_3  
     e( 17 - 17) =    -13.68442  eV     1   --> A_1  D_1  S_1  
     e( 18 - 18) =    -13.68152  eV     1   --> A_1  D_1  S_1  
     e( 19 - 19) =    -13.67473  eV     1   --> A_2  D_2  S_2  
     e( 20 - 20) =    -13.66807  eV     1   --> B_2  D_4  S_4  
     e( 21 - 21) =     -6.03157  eV     1   --> A_1  D_1  S_1  
     e( 22 - 22) =     -5.69799  eV     1   --> A_1  D_1  S_1  
     e( 23 - 23) =     -5.07294  eV     1   --> B_1  D_3  S_3  
     e( 24 - 24) =     -4.61602  eV     1   --> B_1  D_3  S_3  
     e( 25 - 25) =      0.40788  eV     1   --> B_1  D_3  S_3  
     e( 26 - 26) =      1.46619  eV     1   --> B_1  D_3  S_3  
     e( 27 - 27) =      1.96739  eV     1   --> A_1  D_1  S_1  
     e( 28 - 28) =      2.58203  eV     1   --> A_1  D_1  S_1  
     e( 29 - 29) =      2.92422  eV     1   --> A_1  D_1  S_1  
     e( 30 - 30) =      4.33501  eV     1   --> B_1  D_3  S_3  
     e( 31 - 31) =      4.42003  eV     1   --> A_2  D_2  S_2  
     e( 32 - 32) =      4.44006  eV     1   --> B_1  D_3  S_3  
     e( 33 - 33) =      4.70650  eV     1   --> A_1  D_1  S_1  
     e( 34 - 34) =      4.90979  eV     1   --> A_2  D_2  S_2  
     e( 35 - 35) =      5.44375  eV     1   --> B_2  D_4  S_4  
     e( 36 - 36) =      5.79359  eV     1   --> A_1  D_1  S_1  
     e( 37 - 37) =      6.10585  eV     1   --> B_2  D_4  S_4  
     e( 38 - 38) =      6.56049  eV     1   --> A_1  D_1  S_1  
     e( 39 - 39) =      6.84558  eV     1   --> B_1  D_3  S_3  
     e( 40 - 40) =      7.14677  eV     1   --> B_1  D_3  S_3  
     e( 41 - 41) =      8.37247  eV     1   --> B_1  D_3  S_3  
     e( 42 - 42) =     10.23883  eV     1   --> A_1  D_1  S_1  
     e( 43 - 43) =     10.51234  eV     1   --> B_1  D_3  S_3  
     e( 44 - 44) =     10.52761  eV     1   --> B_1  D_3  S_3  
     e( 45 - 45) =     10.69365  eV     1   --> A_1  D_1  S_1  
     e( 46 - 46) =     10.95024  eV     1   --> B_2  D_4  S_4  
     e( 47 - 47) =     11.47893  eV     1   --> B_1  D_3  S_3  
     e( 48 - 48) =     12.01973  eV     1   --> A_2  D_2  S_2  
     e( 49 - 49) =     12.11753  eV     1   --> B_2  D_4  S_4  
     e( 50 - 50) =     12.30951  eV     1   --> A_1  D_1  S_1  

 **************************************************************************

 **************************************************************************

                    xk=(   0.03333,   0.00000,   0.00000  )

     Band symmetry, C_2v (mm2)  point group:

     e(  1 -  1) =    -13.75897  eV     1   --> B_1  D_3  S_3  
     e(  2 -  2) =    -13.74777  eV     1   --> B_1  D_3  S_3  
     e(  3 -  3) =    -13.74585  eV     1   --> A_1  D_1  S_1  
     e(  4 -  4) =    -13.74150  eV     1   --> A_1  D_1  S_1  
     e(  5 -  5) =    -13.74042  eV     1   --> B_2  D_4  S_4  
     e(  6 -  6) =    -13.73772  eV     1   --> A_2  D_2  S_2  
     e(  7 -  7) =    -13.73432  eV     1   --> B_2  D_4  S_4  
     e(  8 -  8) =    -13.73316  eV     1   --> A_2  D_2  S_2  
     e(  9 -  9) =    -13.72617  eV     1   --> A_2  D_2  S_2  
     e( 10 - 10) =    -13.72328  eV     1   --> B_1  D_3  S_3  
     e( 11 - 11) =    -13.72168  eV     1   --> B_1  D_3  S_3  
     e( 12 - 12) =    -13.72157  eV     1   --> B_2  D_4  S_4  
     e( 13 - 13) =    -13.71176  eV     1   --> A_1  D_1  S_1  
     e( 14 - 14) =    -13.70805  eV     1   --> A_1  D_1  S_1  
     e( 15 - 15) =    -13.69177  eV     1   --> B_1  D_3  S_3  
     e( 16 - 16) =    -13.68780  eV     1   --> B_1  D_3  S_3  
     e( 17 - 17) =    -13.68444  eV     1   --> A_1  D_1  S_1  
     e( 18 - 18) =    -13.68154  eV     1   --> A_1  D_1  S_1  
     e( 19 - 19) =    -13.67470  eV     1   --> A_2  D_2  S_2  
     e( 20 - 20) =    -13.66808  eV     1   --> B_2  D_4  S_4  
     e( 21 - 21) =     -6.02835  eV     1   --> A_1  D_1  S_1  
     e( 22 - 22) =     -5.69506  eV     1   --> A_1  D_1  S_1  
     e( 23 - 23) =     -5.07253  eV     1   --> B_1  D_3  S_3  
     e( 24 - 24) =     -4.61683  eV     1   --> B_1  D_3  S_3  
     e( 25 - 25) =      0.39516  eV     1   --> B_1  D_3  S_3  
     e( 26 - 26) =      1.46024  eV     1   --> B_1  D_3  S_3  
     e( 27 - 27) =      1.94992  eV     1   --> A_1  D_1  S_1  
     e( 28 - 28) =      2.56235  eV     1   --> A_1  D_1  S_1  
     e( 29 - 29) =      2.92500  eV     1   --> A_1  D_1  S_1  
     e( 30 - 30) =      4.32286  eV     1   --> B_1  D_3  S_3  
     e( 31 - 31) =      4.42495  eV     1   --> A_2  D_2  S_2  
     e( 32 - 32) =      4.47511  eV     1   --> B_1  D_3  S_3  
     e( 33 - 33) =      4.73396  eV     1   --> A_1  D_1  S_1  
     e( 34 - 34) =      4.91415  eV     1   --> A_2  D_2  S_2  
     e( 35 - 35) =      5.44688  eV     1   --> B_2  D_4  S_4  
     e( 36 - 36) =      5.79944  eV     1   --> A_1  D_1  S_1  
     e( 37 - 37) =      6.10727  eV     1   --> B_2  D_4  S_4  
     e( 38 - 38) =      6.57497  eV     1   --> A_1  D_1  S_1  
     e( 39 - 39) =      6.83473  eV     1   --> B_1  D_3  S_3  
     e( 40 - 40) =      7.14915  eV     1   --> B_1  D_3  S_3  
     e( 41 - 41) =      8.37289  eV     1   --> B_1  D_3  S_3  
     e( 42 - 42) =     10.20346  eV     1   --> A_1  D_1  S_1  
     e( 43 - 43) =     10.51109  eV     1   --> B_1  D_3  S_3  
     e( 44 - 44) =     10.54107  eV     1   --> B_1  D_3  S_3  
     e( 45 - 45) =     10.69640  eV     1   --> A_1  D_1  S_1  
     e( 46 - 46) =     10.92589  eV     1   --> B_2  D_4  S_4  
     e( 47 - 47) =     11.48959  eV     1   --> B_1  D_3  S_3  
     e( 48 - 48) =     11.99728  eV     1   --> A_2  D_2  S_2  
     e( 49 - 49) =     12.10042  eV     1   --> B_2  D_4  S_4  
     e( 50 - 50) =     12.29372  eV     1   --> A_1  D_1  S_1  

 **************************************************************************

 **************************************************************************

                    xk=(   0.05000,   0.00000,   0.00000  )

     Band symmetry, C_2v (mm2)  point group:

     e(  1 -  1) =    -13.75891  eV     1   --> B_1  D_3  S_3  
     e(  2 -  2) =    -13.74772  eV     1   --> B_1  D_3  S_3  
     e(  3 -  3) =    -13.74587  eV     1   --> A_1  D_1  S_1  
     e(  4 -  4) =    -13.74149  eV     1   --> A_1  D_1  S_1  
     e(  5 -  5) =    -13.74048  eV     1   --> B_2  D_4  S_4  
     e(  6 -  6) =    -13.73779  eV     1   --> A_2  D_2  S_2  
     e(  7 -  7) =    -13.73434  eV     1   --> B_2  D_4  S_4  
     e(  8 -  8) =    -13.73316  eV     1   --> A_2  D_2  S_2  
     e(  9 -  9) =    -13.72618  eV     1   --> A_2  D_2  S_2  
     e( 10 - 10) =    -13.72320  eV     1   --> B_1  D_3  S_3  
     e( 11 - 12) =    -13.72159  eV     2   --> B_1  D_3  S_3  
     e( 11 - 12) =    -13.72159  eV     2   --> B_2  D_4  S_4  
     e( 13 - 13) =    -13.71171  eV     1   --> A_1  D_1  S_1  
     e( 14 - 14) =    -13.70806  eV     1   --> A_1  D_1  S_1  
     e( 15 - 15) =    -13.69180  eV     1   --> B_1  D_3  S_3  
     e( 16 - 16) =    -13.68778  eV     1   --> B_1  D_3  S_3  
     e( 17 - 17) =    -13.68448  eV     1   --> A_1  D_1  S_1  
     e( 18 - 18) =    -13.68157  eV     1   --> A_1  D_1  S_1  
     e( 19 - 19) =    -13.67468  eV     1   --> A_2  D_2  S_2  
     e( 20 - 20) =    -13.66811  eV     1   --> B_2  D_4  S_4  
     e( 21 - 21) =     -6.02301  eV     1   --> A_1  D_1  S_1  
     e( 22 - 22) =     -5.69020  eV     1   --> A_1  D_1  S_1  
     e( 23 - 23) =     -5.07186  eV     1   --> B_1  D_3  S_3  
     e( 24 - 24) =     -4.61820  eV     1   --> B_1  D_3  S_3  
     e( 25 - 25) =      0.37443  eV     1   --> B_1  D_3  S_3  
     e( 26 - 26) =      1.45030  eV     1   --> B_1  D_3  S_3  
     e( 27 - 27) =      1.92027  eV     1   --> A_1  D_1  S_1  
     e( 28 - 28) =      2.53302  eV     1   --> A_1  D_1  S_1  
     e( 29 - 29) =      2.92513  eV     1   --> A_1  D_1  S_1  
     e( 30 - 30) =      4.31464  eV     1   --> B_1  D_3  S_3  
     e( 31 - 31) =      4.43314  eV     1   --> A_2  D_2  S_2  
     e( 32 - 32) =      4.52106  eV     1   --> B_1  D_3  S_3  
     e( 33 - 33) =      4.77810  eV     1   --> A_1  D_1  S_1  
     e( 34 - 34) =      4.92141  eV     1   --> A_2  D_2  S_2  
     e( 35 - 35) =      5.45206  eV     1   --> B_2  D_4  S_4  
     e( 36 - 36) =      5.80940  eV     1   --> A_1  D_1  S_1  
     e( 37 - 37) =      6.10957  eV     1   --> B_2  D_4  S_4  
     e( 38 - 38) =      6.59874  eV     1   --> A_1  D_1  S_1  
     e( 39 - 39) =      6.81714  eV     1   --> B_1  D_3  S_3  
     e( 40 - 40) =      7.15250  eV     1   --> B_1  D_3  S_3  
     e( 41 - 41) =      8.37404  eV     1   --> B_1  D_3  S_3  
     e( 42 - 42) =     10.14869  eV     1   --> A_1  D_1  S_1  
     e( 43 - 43) =     10.51172  eV     1   --> B_1  D_3  S_3  
     e( 44 - 44) =     10.56032  eV     1   --> B_1  D_3  S_3  
     e( 45 - 45) =     10.69626  eV     1   --> A_1  D_1  S_1  
     e( 46 - 46) =     10.88636  eV     1   --> B_2  D_4  S_4  
     e( 47 - 47) =     11.50677  eV     1   --> B_1  D_3  S_3  
     e( 48 - 48) =     11.96031  eV     1   --> A_2  D_2  S_2  
     e( 49 - 49) =     12.07216  eV     1   --> B_2  D_4  S_4  
     e( 50 - 50) =     12.27098  eV     1   --> A_1  D_1  S_1  

 **************************************************************************

 **************************************************************************

                    xk=(   0.06667,   0.00000,   0.00000  )

     Band symmetry, C_2v (mm2)  point group:

     e(  1 -  1) =    -13.75881  eV     1   --> B_1  D_3  S_3  
     e(  2 -  2) =    -13.74766  eV     1   --> B_1  D_3  S_3  
     e(  3 -  3) =    -13.74589  eV     1   --> A_1  D_1  S_1  
     e(  4 -  4) =    -13.74147  eV     1   --> A_1  D_1  S_1  
     e(  5 -  5) =    -13.74055  eV     1   --> B_2  D_4  S_4  
     e(  6 -  6) =    -13.73789  eV     1   --> A_2  D_2  S_2  
     e(  7 -  7) =    -13.73435  eV     1   --> B_2  D_4  S_4  
     e(  8 -  8) =    -13.73315  eV     1   --> A_2  D_2  S_2  
     e(  9 -  9) =    -13.72617  eV     1   --> A_2  D_2  S_2  
     e( 10 - 10) =    -13.72306  eV     1   --> B_1  D_3  S_3  
     e( 11 - 11) =    -13.72161  eV     1   --> B_2  D_4  S_4  
     e( 12 - 12) =    -13.72130  eV     1   --> B_1  D_3  S_3  
     e( 13 - 13) =    -13.71164  eV     1   --> A_1  D_1  S_1  
     e( 14 - 14) =    -13.70807  eV     1   --> A_1  D_1  S_1  
     e( 15 - 15) =    -13.69181  eV     1   --> B_1  D_3  S_3  
     e( 16 - 16) =    -13.68772  eV     1   --> B_1  D_3  S_3  
     e( 17 - 17) =    -13.68454  eV     1   --> A_1  D_1  S_1  
     e( 18 - 18) =    -13.68160  eV     1   --> A_1  D_1  S_1  
     e( 19 - 19) =    -13.67465  eV     1   --> A_2  D_2  S_2  
     e( 20 - 20) =    -13.66814  eV     1   --> B_2  D_4  S_4  
     e( 21 - 21) =     -6.01555  eV     1   --> A_1  D_1  S_1  
     e( 22 - 22) =     -5.68342  eV     1   --> A_1  D_1  S_1  
     e( 23 - 23) =     -5.07098  eV     1   --> B_1  D_3  S_3  
     e( 24 - 24) =     -4.62015  eV     1   --> B_1  D_3  S_3  
     e( 25 - 25) =      0.34637  eV     1   --> B_1  D_3  S_3  
     e( 26 - 26) =      1.43641  eV     1   --> B_1  D_3  S_3  
     e( 27 - 27) =      1.87800  eV     1   --> A_1  D_1  S_1  
     e( 28 - 28) =      2.49741  eV     1   --> A_1  D_1  S_1  
     e( 29 - 29) =      2.92399  eV     1   --> A_1  D_1  S_1  
     e( 30 - 30) =      4.31318  eV     1   --> B_1  D_3  S_3  
     e( 31 - 31) =      4.44457  eV     1   --> A_2  D_2  S_2  
     e( 32 - 32) =      4.57439  eV     1   --> B_1  D_3  S_3  
     e( 33 - 33) =      4.83674  eV     1   --> A_1  D_1  S_1  
     e( 34 - 34) =      4.93154  eV     1   --> A_2  D_2  S_2  
     e( 35 - 35) =      5.45923  eV     1   --> B_2  D_4  S_4  
     e( 36 - 36) =      5.82378  eV     1   --> A_1  D_1  S_1  
     e( 37 - 37) =      6.11271  eV     1   --> B_2  D_4  S_4  
     e( 38 - 38) =      6.63132  eV     1   --> A_1  D_1  S_1  
     e( 39 - 39) =      6.79341  eV     1   --> B_1  D_3  S_3  
     e( 40 - 40) =      7.15612  eV     1   --> B_1  D_3  S_3  
     e( 41 - 41) =      8.37659  eV     1   --> B_1  D_3  S_3  
     e( 42 - 42) =     10.07837  eV     1   --> A_1  D_1  S_1  
     e( 43 - 43) =     10.51365  eV     1   --> B_1  D_3  S_3  
     e( 44 - 44) =     10.58510  eV     1   --> B_1  D_3  S_3  
     e( 45 - 45) =     10.68862  eV     1   --> A_1  D_1  S_1  
     e( 46 - 46) =     10.83308  eV     1   --> B_2  D_4  S_4  
     e( 47 - 47) =     11.52968  eV     1   --> B_1  D_3  S_3  
     e( 48 - 48) =     11.90946  eV     1   --> A_2  D_2  S_2  
     e( 49 - 49) =     12.03322  eV     1   --> B_2  D_4  S_4  
     e( 50 - 50) =     12.24561  eV     1   --> A_1  D_1  S_1  

 **************************************************************************

 **************************************************************************

                    xk=(   0.08333,   0.00000,   0.00000  )

     Band symmetry, C_2v (mm2)  point group:

     e(  1 -  1) =    -13.75868  eV     1   --> B_1  D_3  S_3  
     e(  2 -  2) =    -13.74757  eV     1   --> B_1  D_3  S_3  
     e(  3 -  3) =    -13.74590  eV     1   --> A_1  D_1  S_1  
     e(  4 -  4) =    -13.74144  eV     1   --> A_1  D_1  S_1  
     e(  5 -  5) =    -13.74063  eV     1   --> B_2  D_4  S_4  
     e(  6 -  6) =    -13.73801  eV     1   --> A_2  D_2  S_2  
     e(  7 -  7) =    -13.73436  eV     1   --> B_2  D_4  S_4  
     e(  8 -  8) =    -13.73314  eV     1   --> A_2  D_2  S_2  
     e(  9 -  9) =    -13.72616  eV     1   --> A_2  D_2  S_2  
     e( 10 - 10) =    -13.72289  eV     1   --> B_1  D_3  S_3  
     e( 11 - 11) =    -13.72164  eV     1   --> B_2  D_4  S_4  
     e( 12 - 12) =    -13.72104  eV     1   --> B_1  D_3  S_3  
     e( 13 - 13) =    -13.71155  eV     1   --> A_1  D_1  S_1  
     e( 14 - 14) =    -13.70809  eV     1   --> A_1  D_1  S_1  
     e( 15 - 15) =    -13.69181  eV     1   --> B_1  D_3  S_3  
     e( 16 - 16) =    -13.68765  eV     1   --> B_1  D_3  S_3  
     e( 17 - 17) =    -13.68462  eV     1   --> A_1  D_1  S_1  
     e( 18 - 18) =    -13.68164  eV     1   --> A_1  D_1  S_1  
     e( 19 - 19) =    -13.67460  eV     1   --> A_2  D_2  S_2  
     e( 20 - 20) =    -13.66817  eV     1   --> B_2  D_4  S_4  
     e( 21 - 21) =     -6.00600  eV     1   --> A_1  D_1  S_1  
     e( 22 - 22) =     -5.67473  eV     1   --> A_1  D_1  S_1  
     e( 23 - 23) =     -5.06995  eV     1   --> B_1  D_3  S_3  
     e( 24 - 24) =     -4.62271  eV     1   --> B_1  D_3  S_3  
     e( 25 - 25) =      0.31179  eV     1   --> B_1  D_3  S_3  
     e( 26 - 26) =      1.41865  eV     1   --> B_1  D_3  S_3  
     e( 27 - 27) =      1.82312  eV     1   --> A_1  D_1  S_1  
     e( 28 - 28) =      2.45810  eV     1   --> A_1  D_1  S_1  
     e( 29 - 29) =      2.92184  eV     1   --> A_1  D_1  S_1  
     e( 30 - 30) =      4.31921  eV     1   --> B_1  D_3  S_3  
     e( 31 - 31) =      4.45923  eV     1   --> A_2  D_2  S_2  
     e( 32 - 32) =      4.63344  eV     1   --> B_1  D_3  S_3  
     e( 33 - 33) =      4.90723  eV     1   --> A_1  D_1  S_1  
     e( 34 - 34) =      4.94451  eV     1   --> A_2  D_2  S_2  
     e( 35 - 35) =      5.46831  eV     1   --> B_2  D_4  S_4  
     e( 36 - 36) =      5.84307  eV     1   --> A_1  D_1  S_1  
     e( 37 - 37) =      6.11659  eV     1   --> B_2  D_4  S_4  
     e( 38 - 38) =      6.67206  eV     1   --> A_1  D_1  S_1  
     e( 39 - 39) =      6.76416  eV     1   --> B_1  D_3  S_3  
     e( 40 - 40) =      7.15926  eV     1   --> B_1  D_3  S_3  
     e( 41 - 41) =      8.38133  eV     1   --> B_1  D_3  S_3  
     e( 42 - 42) =      9.99573  eV     1   --> A_1  D_1  S_1  
     e( 43 - 43) =     10.51623  eV     1   --> B_1  D_3  S_3  
     e( 44 - 44) =     10.61486  eV     1   --> B_1  D_3  S_3  
     e( 45 - 45) =     10.66957  eV     1   --> A_1  D_1  S_1  
     e( 46 - 46) =     10.76781  eV     1   --> B_2  D_4  S_4  
     e( 47 - 47) =     11.55739  eV     1   --> B_1  D_3  S_3  
     e( 48 - 48) =     11.84566  eV     1   --> A_2  D_2  S_2  
     e( 49 - 49) =     11.98431  eV     1   --> B_2  D_4  S_4  
     e( 50 - 50) =     12.22213  eV     1   --> A_1  D_1  S_1  

 **************************************************************************

 **************************************************************************

                    xk=(   0.10000,   0.00000,   0.00000  )

     Band symmetry, C_2v (mm2)  point group:

     e(  1 -  1) =    -13.75854  eV     1   --> B_1  D_3  S_3  
     e(  2 -  2) =    -13.74748  eV     1   --> B_1  D_3  S_3  
     e(  3 -  3) =    -13.74595  eV     1   --> A_1  D_1  S_1  
     e(  4 -  4) =    -13.74141  eV     1   --> A_1  D_1  S_1  
     e(  5 -  5) =    -13.74078  eV     1   --> B_2  D_4  S_4  
     e(  6 -  6) =    -13.73815  eV     1   --> A_2  D_2  S_2  
     e(  7 -  7) =    -13.73437  eV     1   --> B_2  D_4  S_4  
     e(  8 -  8) =    -13.73313  eV     1   --> A_2  D_2  S_2  
     e(  9 -  9) =    -13.72616  eV     1   --> A_2  D_2  S_2  
     e( 10 - 10) =    -13.72270  eV     1   --> B_1  D_3  S_3  
     e( 11 - 11) =    -13.72168  eV     1   --> B_2  D_4  S_4  
     e( 12 - 12) =    -13.72074  eV     1   --> B_1  D_3  S_3  
     e( 13 - 13) =    -13.71147  eV     1   --> A_1  D_1  S_1  
     e( 14 - 14) =    -13.70812  eV     1   --> A_1  D_1  S_1  
     e( 15 - 15) =    -13.69184  eV     1   --> B_1  D_3  S_3  
     e( 16 - 16) =    -13.68758  eV     1   --> B_1  D_3  S_3  
     e( 17 - 17) =    -13.68473  eV     1   --> A_1  D_1  S_1  
     e( 18 - 18) =    -13.68169  eV     1   --> A_1  D_1  S_1  
     e( 19 - 19) =    -13.67455  eV     1   --> A_2  D_2  S_2  
     e( 20 - 20) =    -13.66823  eV     1   --> B_2  D_4  S_4  
     e( 21 - 21) =     -5.99440  eV     1   --> A_1  D_1  S_1  
     e( 22 - 22) =     -5.66416  eV     1   --> A_1  D_1  S_1  
     e( 23 - 23) =     -5.06883  eV     1   --> B_1  D_3  S_3  
     e( 24 - 24) =     -4.62593  eV     1   --> B_1  D_3  S_3  
     e( 25 - 25) =      0.27168  eV     1   --> B_1  D_3  S_3  
     e( 26 - 26) =      1.39720  eV     1   --> B_1  D_3  S_3  
     e( 27 - 27) =      1.75629  eV     1   --> A_1  D_1  S_1  
     e( 28 - 28) =      2.41639  eV     1   --> A_1  D_1  S_1  
     e( 29 - 29) =      2.91965  eV     1   --> A_1  D_1  S_1  
     e( 30 - 30) =      4.33270  eV     1   --> B_1  D_3  S_3  
     e( 31 - 31) =      4.47706  eV     1   --> A_2  D_2  S_2  
     e( 32 - 32) =      4.69710  eV     1   --> B_1  D_3  S_3  
     e( 33 - 33) =      4.96028  eV     1   --> A_2  D_2  S_2  
     e( 34 - 34) =      4.98666  eV     1   --> A_1  D_1  S_1  
     e( 35 - 35) =      5.47920  eV     1   --> B_2  D_4  S_4  
     e( 36 - 36) =      5.86789  eV     1   --> A_1  D_1  S_1  
     e( 37 - 37) =      6.12109  eV     1   --> B_2  D_4  S_4  
     e( 38 - 38) =      6.72021  eV     1   --> A_1  D_1  S_1  
     e( 39 - 39) =      6.73006  eV     1   --> B_1  D_3  S_3  
     e( 40 - 40) =      7.16124  eV     1   --> B_1  D_3  S_3  
     e( 41 - 41) =      8.38916  eV     1   --> B_1  D_3  S_3  
     e( 42 - 42) =      9.90325  eV     1   --> A_1  D_1  S_1  
     e( 43 - 43) =     10.51864  eV     1   --> B_1  D_3  S_3  
     e( 44 - 44) =     10.63629  eV     1   --> A_1  D_1  S_1  
     e( 45 - 45) =     10.64860  eV     1   --> B_1  D_3  S_3  
     e( 46 - 46) =     10.69244  eV     1   --> B_2  D_4  S_4  
     e( 47 - 47) =     11.58898  eV     1   --> B_1  D_3  S_3  
     e( 48 - 48) =     11.77002  eV     1   --> A_2  D_2  S_2  
     e( 49 - 49) =     11.92643  eV     1   --> B_2  D_4  S_4  
     e( 50 - 50) =     12.20434  eV     1   --> A_1  D_1  S_1  

 **************************************************************************

 **************************************************************************

                    xk=(   0.11667,   0.00000,   0.00000  )

     Band symmetry, C_2v (mm2)  point group:

     e(  1 -  1) =    -13.75837  eV     1   --> B_1  D_3  S_3  
     e(  2 -  2) =    -13.74738  eV     1   --> B_1  D_3  S_3  
     e(  3 -  3) =    -13.74600  eV     1   --> A_1  D_1  S_1  
     e(  4 -  4) =    -13.74139  eV     1   --> A_1  D_1  S_1  
     e(  5 -  5) =    -13.74092  eV     1   --> B_2  D_4  S_4  
     e(  6 -  6) =    -13.73834  eV     1   --> A_2  D_2  S_2  
     e(  7 -  7) =    -13.73441  eV     1   --> B_2  D_4  S_4  
     e(  8 -  8) =    -13.73313  eV     1   --> A_2  D_2  S_2  
     e(  9 -  9) =    -13.72617  eV     1   --> A_2  D_2  S_2  
     e( 10 - 10) =    -13.72247  eV     1   --> B_1  D_3  S_3  
     e( 11 - 11) =    -13.72173  eV     1   --> B_2  D_4  S_4  
     e( 12 - 12) =    -13.72041  eV     1   --> B_1  D_3  S_3  
     e( 13 - 13) =    -13.71138  eV     1   --> A_1  D_1  S_1  
     e( 14 - 14) =    -13.70814  eV     1   --> A_1  D_1  S_1  
     e( 15 - 15) =    -13.69189  eV     1   --> B_1  D_3  S_3  
     e( 16 - 16) =    -13.68750  eV     1   --> B_1  D_3  S_3  
     e( 17 - 17) =    -13.68486  eV     1   --> A_1  D_1  S_1  
     e( 18 - 18) =    -13.68175  eV     1   --> A_1  D_1  S_1  
     e( 19 - 19) =    -13.67449  eV     1   --> A_2  D_2  S_2  
     e( 20 - 20) =    -13.66829  eV     1   --> B_2  D_4  S_4  
     e( 21 - 21) =     -5.98077  eV     1   --> A_1  D_1  S_1  
     e( 22 - 22) =     -5.65176  eV     1   --> A_1  D_1  S_1  
     e( 23 - 23) =     -5.06772  eV     1   --> B_1  D_3  S_3  
     e( 24 - 24) =     -4.62985  eV     1   --> B_1  D_3  S_3  
     e( 25 - 25) =      0.22704  eV     1   --> B_1  D_3  S_3  
     e( 26 - 26) =      1.37235  eV     1   --> B_1  D_3  S_3  
     e( 27 - 27) =      1.67885  eV     1   --> A_1  D_1  S_1  
     e( 28 - 28) =      2.37247  eV     1   --> A_1  D_1  S_1  
     e( 29 - 29) =      2.91884  eV     1   --> A_1  D_1  S_1  
     e( 30 - 30) =      4.35320  eV     1   --> B_1  D_3  S_3  
     e( 31 - 31) =      4.49803  eV     1   --> A_2  D_2  S_2  
     e( 32 - 32) =      4.76445  eV     1   --> B_1  D_3  S_3  
     e( 33 - 33) =      4.97879  eV     1   --> A_2  D_2  S_2  
     e( 34 - 34) =      5.07204  eV     1   --> A_1  D_1  S_1  
     e( 35 - 35) =      5.49175  eV     1   --> B_2  D_4  S_4  
     e( 36 - 36) =      5.89907  eV     1   --> A_1  D_1  S_1  
     e( 37 - 37) =      6.12607  eV     1   --> B_2  D_4  S_4  
     e( 38 - 38) =      6.69176  eV     1   --> B_1  D_3  S_3  
     e( 39 - 39) =      6.77496  eV     1   --> A_1  D_1  S_1  
     e( 40 - 40) =      7.16152  eV     1   --> B_1  D_3  S_3  
     e( 41 - 41) =      8.40093  eV     1   --> B_1  D_3  S_3  
     e( 42 - 42) =      9.80288  eV     1   --> A_1  D_1  S_1  
     e( 43 - 43) =     10.51983  eV     1   --> B_1  D_3  S_3  
     e( 44 - 44) =     10.58725  eV     1   --> A_1  D_1  S_1  
     e( 45 - 45) =     10.60891  eV     1   --> B_2  D_4  S_4  
     e( 46 - 46) =     10.68495  eV     1   --> B_1  D_3  S_3  
     e( 47 - 47) =     11.62368  eV     1   --> B_1  D_3  S_3  
     e( 48 - 48) =     11.68386  eV     1   --> A_2  D_2  S_2  
     e( 49 - 49) =     11.86081  eV     1   --> B_2  D_4  S_4  
     e( 50 - 50) =     12.19465  eV     1   --> A_1  D_1  S_1  

 **************************************************************************

 **************************************************************************

                    xk=(   0.13333,   0.00000,   0.00000  )

     Band symmetry, C_2v (mm2)  point group:

     e(  1 -  1) =    -13.75817  eV     1   --> B_1  D_3  S_3  
     e(  2 -  2) =    -13.74726  eV     1   --> B_1  D_3  S_3  
     e(  3 -  3) =    -13.74605  eV     1   --> A_1  D_1  S_1  
     e(  4 -  4) =    -13.74136  eV     1   --> A_1  D_1  S_1  
     e(  5 -  5) =    -13.74106  eV     1   --> B_2  D_4  S_4  
     e(  6 -  6) =    -13.73853  eV     1   --> A_2  D_2  S_2  
     e(  7 -  7) =    -13.73443  eV     1   --> B_2  D_4  S_4  
     e(  8 -  8) =    -13.73314  eV     1   --> A_2  D_2  S_2  
     e(  9 -  9) =    -13.72618  eV     1   --> A_2  D_2  S_2  
     e( 10 - 10) =    -13.72220  eV     1   --> B_1  D_3  S_3  
     e( 11 - 11) =    -13.72179  eV     1   --> B_2  D_4  S_4  
     e( 12 - 12) =    -13.72003  eV     1   --> B_1  D_3  S_3  
     e( 13 - 13) =    -13.71126  eV     1   --> A_1  D_1  S_1  
     e( 14 - 14) =    -13.70816  eV     1   --> A_1  D_1  S_1  
     e( 15 - 15) =    -13.69191  eV     1   --> B_1  D_3  S_3  
     e( 16 - 16) =    -13.68739  eV     1   --> B_1  D_3  S_3  
     e( 17 - 17) =    -13.68500  eV     1   --> A_1  D_1  S_1  
     e( 18 - 18) =    -13.68182  eV     1   --> A_1  D_1  S_1  
     e( 19 - 19) =    -13.67443  eV     1   --> A_2  D_2  S_2  
     e( 20 - 20) =    -13.66836  eV     1   --> B_2  D_4  S_4  
     e( 21 - 21) =     -5.96517  eV     1   --> A_1  D_1  S_1  
     e( 22 - 22) =     -5.63755  eV     1   --> A_1  D_1  S_1  
     e( 23 - 23) =     -5.06670  eV     1   --> B_1  D_3  S_3  
     e( 24 - 24) =     -4.63452  eV     1   --> B_1  D_3  S_3  
     e( 25 - 25) =      0.17891  eV     1   --> B_1  D_3  S_3  
     e( 26 - 26) =      1.34452  eV     1   --> B_1  D_3  S_3  
     e( 27 - 27) =      1.59258  eV     1   --> A_1  D_1  S_1  
     e( 28 - 28) =      2.32585  eV     1   --> A_1  D_1  S_1  
     e( 29 - 29) =      2.92086  eV     1   --> A_1  D_1  S_1  
     e( 30 - 30) =      4.37998  eV     1   --> B_1  D_3  S_3  
     e( 31 - 31) =      4.52208  eV     1   --> A_2  D_2  S_2  
     e( 32 - 32) =      4.83466  eV     1   --> B_1  D_3  S_3  
     e( 33 - 33) =      4.99999  eV     1   --> A_2  D_2  S_2  
     e( 34 - 34) =      5.16037  eV     1   --> A_1  D_1  S_1  
     e( 35 - 35) =      5.50581  eV     1   --> B_2  D_4  S_4  
     e( 36 - 36) =      5.93765  eV     1   --> A_1  D_1  S_1  
     e( 37 - 37) =      6.13136  eV     1   --> B_2  D_4  S_4  
     e( 38 - 38) =      6.65005  eV     1   --> B_1  D_3  S_3  
     e( 39 - 39) =      6.83549  eV     1   --> A_1  D_1  S_1  
     e( 40 - 40) =      7.15968  eV     1   --> B_1  D_3  S_3  
     e( 41 - 41) =      8.41743  eV     1   --> B_1  D_3  S_3  
     e( 42 - 42) =      9.69628  eV     1   --> A_1  D_1  S_1  
     e( 43 - 43) =     10.51850  eV     1   --> B_1  D_3  S_3  
     e( 44 - 44) =     10.51909  eV     1   --> B_2  D_4  S_4  
     e( 45 - 45) =     10.52225  eV     1   --> A_1  D_1  S_1  
     e( 46 - 46) =     10.72213  eV     1   --> B_1  D_3  S_3  
     e( 47 - 47) =     11.58858  eV     1   --> A_2  D_2  S_2  
     e( 48 - 48) =     11.66106  eV     1   --> B_1  D_3  S_3  
     e( 49 - 49) =     11.78886  eV     1   --> B_2  D_4  S_4  
     e( 50 - 50) =     12.19334  eV     1   --> A_1  D_1  S_1  

 **************************************************************************

 **************************************************************************

                    xk=(   0.15000,   0.00000,   0.00000  )

     Band symmetry, C_2v (mm2)  point group:

     e(  1 -  1) =    -13.75795  eV     1   --> B_1  D_3  S_3  
     e(  2 -  2) =    -13.74713  eV     1   --> B_1  D_3  S_3  
     e(  3 -  3) =    -13.74612  eV     1   --> A_1  D_1  S_1  
     e(  4 -  4) =    -13.74133  eV     1   --> A_1  D_1  S_1  
     e(  5 -  5) =    -13.74121  eV     1   --> B_2  D_4  S_4  
     e(  6 -  6) =    -13.73876  eV     1   --> A_2  D_2  S_2  
     e(  7 -  7) =    -13.73445  eV     1   --> B_2  D_4  S_4  
     e(  8 -  8) =    -13.73316  eV     1   --> A_2  D_2  S_2  
     e(  9 -  9) =    -13.72619  eV     1   --> A_2  D_2  S_2  
     e( 10 - 11) =    -13.72190  eV     2   --> B_1  D_3  S_3  
     e( 10 - 11) =    -13.72190  eV     2   --> B_2  D_4  S_4  
     e( 12 - 12) =    -13.71963  eV     1   --> B_1  D_3  S_3  
     e( 13 - 13) =    -13.71114  eV     1   --> A_1  D_1  S_1  
     e( 14 - 14) =    -13.70818  eV     1   --> A_1  D_1  S_1  
     e( 15 - 15) =    -13.69194  eV     1   --> B_1  D_3  S_3  
     e( 16 - 16) =    -13.68728  eV     1   --> B_1  D_3  S_3  
     e( 17 - 17) =    -13.68515  eV     1   --> A_1  D_1  S_1  
     e( 18 - 18) =    -13.68189  eV     1   --> A_1  D_1  S_1  
     e( 19 - 19) =    -13.67437  eV     1   --> A_2  D_2  S_2  
     e( 20 - 20) =    -13.66845  eV     1   --> B_2  D_4  S_4  
     e( 21 - 21) =     -5.94765  eV     1   --> A_1  D_1  S_1  
     e( 22 - 22) =     -5.62159  eV     1   --> A_1  D_1  S_1  
     e( 23 - 23) =     -5.06588  eV     1   --> B_1  D_3  S_3  
     e( 24 - 24) =     -4.64002  eV     1   --> B_1  D_3  S_3  
     e( 25 - 25) =      0.12831  eV     1   --> B_1  D_3  S_3  
     e( 26 - 26) =      1.31420  eV     1   --> B_1  D_3  S_3  
     e( 27 - 27) =      1.49936  eV     1   --> A_1  D_1  S_1  
     e( 28 - 28) =      2.27591  eV     1   --> A_1  D_1  S_1  
     e( 29 - 29) =      2.92695  eV     1   --> A_1  D_1  S_1  
     e( 30 - 30) =      4.41208  eV     1   --> B_1  D_3  S_3  
     e( 31 - 31) =      4.54914  eV     1   --> A_2  D_2  S_2  
     e( 32 - 32) =      4.90698  eV     1   --> B_1  D_3  S_3  
     e( 33 - 33) =      5.02381  eV     1   --> A_2  D_2  S_2  
     e( 34 - 34) =      5.24871  eV     1   --> A_1  D_1  S_1  
     e( 35 - 35) =      5.52118  eV     1   --> B_2  D_4  S_4  
     e( 36 - 36) =      5.98475  eV     1   --> A_1  D_1  S_1  
     e( 37 - 37) =      6.13676  eV     1   --> B_2  D_4  S_4  
     e( 38 - 38) =      6.60581  eV     1   --> B_1  D_3  S_3  
     e( 39 - 39) =      6.90091  eV     1   --> A_1  D_1  S_1  
     e( 40 - 40) =      7.15546  eV     1   --> B_1  D_3  S_3  
     e( 41 - 41) =      8.43926  eV     1   --> B_1  D_3  S_3  
     e( 42 - 42) =      9.58483  eV     1   --> A_1  D_1  S_1  
     e( 43 - 43) =     10.42473  eV     1   --> B_2  D_4  S_4  
     e( 44 - 44) =     10.44226  eV     1   --> A_1  D_1  S_1  
     e( 45 - 45) =     10.51305  eV     1   --> B_1  D_3  S_3  
     e( 46 - 46) =     10.75794  eV     1   --> B_1  D_3  S_3  
     e( 47 - 47) =     11.48563  eV     1   --> A_2  D_2  S_2  
     e( 48 - 48) =     11.70117  eV     1   --> B_1  D_3  S_3  
     e( 49 - 49) =     11.71208  eV     1   --> B_2  D_4  S_4  
     e( 50 - 50) =     12.19804  eV     1   --> A_1  D_1  S_1  

 **************************************************************************

 **************************************************************************

                    xk=(   0.16667,   0.00000,   0.00000  )

     Band symmetry, C_2v (mm2)  point group:

     e(  1 -  1) =    -13.75770  eV     1   --> B_1  D_3  S_3  
     e(  2 -  2) =    -13.74698  eV     1   --> B_1  D_3  S_3  
     e(  3 -  3) =    -13.74619  eV     1   --> A_1  D_1  S_1  
     e(  4 -  5) =    -13.74138  eV     2   --> A_1  D_1  S_1  
     e(  4 -  5) =    -13.74138  eV     2   --> B_2  D_4  S_4  
     e(  6 -  6) =    -13.73900  eV     1   --> A_2  D_2  S_2  
     e(  7 -  7) =    -13.73449  eV     1   --> B_2  D_4  S_4  
     e(  8 -  8) =    -13.73316  eV     1   --> A_2  D_2  S_2  
     e(  9 -  9) =    -13.72619  eV     1   --> A_2  D_2  S_2  
     e( 10 - 10) =    -13.72192  eV     1   --> B_2  D_4  S_4  
     e( 11 - 11) =    -13.72156  eV     1   --> B_1  D_3  S_3  
     e( 12 - 12) =    -13.71918  eV     1   --> B_1  D_3  S_3  
     e( 13 - 13) =    -13.71100  eV     1   --> A_1  D_1  S_1  
     e( 14 - 14) =    -13.70821  eV     1   --> A_1  D_1  S_1  
     e( 15 - 15) =    -13.69195  eV     1   --> B_1  D_3  S_3  
     e( 16 - 16) =    -13.68716  eV     1   --> B_1  D_3  S_3  
     e( 17 - 17) =    -13.68532  eV     1   --> A_1  D_1  S_1  
     e( 18 - 18) =    -13.68197  eV     1   --> A_1  D_1  S_1  
     e( 19 - 19) =    -13.67429  eV     1   --> A_2  D_2  S_2  
     e( 20 - 20) =    -13.66853  eV     1   --> B_2  D_4  S_4  
     e( 21 - 21) =     -5.92826  eV     1   --> A_1  D_1  S_1  
     e( 22 - 22) =     -5.60392  eV     1   --> A_1  D_1  S_1  
     e( 23 - 23) =     -5.06541  eV     1   --> B_1  D_3  S_3  
     e( 24 - 24) =     -4.64639  eV     1   --> B_1  D_3  S_3  
     e( 25 - 25) =      0.07623  eV     1   --> B_1  D_3  S_3  
     e( 26 - 26) =      1.28200  eV     1   --> B_1  D_3  S_3  
     e( 27 - 27) =      1.40100  eV     1   --> A_1  D_1  S_1  
     e( 28 - 28) =      2.22225  eV     1   --> A_1  D_1  S_1  
     e( 29 - 29) =      2.93796  eV     1   --> A_1  D_1  S_1  
     e( 30 - 30) =      4.44834  eV     1   --> B_1  D_3  S_3  
     e( 31 - 31) =      4.57914  eV     1   --> A_2  D_2  S_2  
     e( 32 - 32) =      4.98072  eV     1   --> B_1  D_3  S_3  
     e( 33 - 33) =      5.05016  eV     1   --> A_2  D_2  S_2  
     e( 34 - 34) =      5.33440  eV     1   --> A_1  D_1  S_1  
     e( 35 - 35) =      5.53766  eV     1   --> B_2  D_4  S_4  
     e( 36 - 36) =      6.04152  eV     1   --> A_1  D_1  S_1  
     e( 37 - 37) =      6.14204  eV     1   --> B_2  D_4  S_4  
     e( 38 - 38) =      6.56013  eV     1   --> B_1  D_3  S_3  
     e( 39 - 39) =      6.97036  eV     1   --> A_1  D_1  S_1  
     e( 40 - 40) =      7.14874  eV     1   --> B_1  D_3  S_3  
     e( 41 - 41) =      8.46685  eV     1   --> B_1  D_3  S_3  
     e( 42 - 42) =      9.46984  eV     1   --> A_1  D_1  S_1  
     e( 43 - 43) =     10.32746  eV     1   --> B_2  D_4  S_4  
     e( 44 - 44) =     10.34912  eV     1   --> A_1  D_1  S_1  
     e( 45 - 45) =     10.50177  eV     1   --> B_1  D_3  S_3  
     e( 46 - 46) =     10.78983  eV     1   --> B_1  D_3  S_3  
     e( 47 - 47) =     11.37645  eV     1   --> A_2  D_2  S_2  
     e( 48 - 48) =     11.63199  eV     1   --> B_2  D_4  S_4  
     e( 49 - 49) =     11.74459  eV     1   --> B_1  D_3  S_3  
     e( 50 - 50) =     12.20292  eV     1   --> A_1  D_1  S_1  

 **************************************************************************

 **************************************************************************

                    xk=(   0.18333,   0.00000,   0.00000  )

     Band symmetry, C_2v (mm2)  point group:

     e(  1 -  1) =    -13.75744  eV     1   --> B_1  D_3  S_3  
     e(  2 -  2) =    -13.74682  eV     1   --> B_1  D_3  S_3  
     e(  3 -  3) =    -13.74627  eV     1   --> A_1  D_1  S_1  
     e(  4 -  4) =    -13.74155  eV     1   --> B_2  D_4  S_4  
     e(  5 -  5) =    -13.74128  eV     1   --> A_1  D_1  S_1  
     e(  6 -  6) =    -13.73925  eV     1   --> A_2  D_2  S_2  
     e(  7 -  7) =    -13.73451  eV     1   --> B_2  D_4  S_4  
     e(  8 -  8) =    -13.73318  eV     1   --> A_2  D_2  S_2  
     e(  9 -  9) =    -13.72618  eV     1   --> A_2  D_2  S_2  
     e( 10 - 10) =    -13.72200  eV     1   --> B_2  D_4  S_4  
     e( 11 - 11) =    -13.72116  eV     1   --> B_1  D_3  S_3  
     e( 12 - 12) =    -13.71870  eV     1   --> B_1  D_3  S_3  
     e( 13 - 13) =    -13.71085  eV     1   --> A_1  D_1  S_1  
     e( 14 - 14) =    -13.70825  eV     1   --> A_1  D_1  S_1  
     e( 15 - 15) =    -13.69196  eV     1   --> B_1  D_3  S_3  
     e( 16 - 16) =    -13.68703  eV     1   --> B_1  D_3  S_3  
     e( 17 - 17) =    -13.68549  eV     1   --> A_1  D_1  S_1  
     e( 18 - 18) =    -13.68206  eV     1   --> A_1  D_1  S_1  
     e( 19 - 19) =    -13.67419  eV     1   --> A_2  D_2  S_2  
     e( 20 - 20) =    -13.66862  eV     1   --> B_2  D_4  S_4  
     e( 21 - 21) =     -5.90708  eV     1   --> A_1  D_1  S_1  
     e( 22 - 22) =     -5.58460  eV     1   --> A_1  D_1  S_1  
     e( 23 - 23) =     -5.06540  eV     1   --> B_1  D_3  S_3  
     e( 24 - 24) =     -4.65372  eV     1   --> B_1  D_3  S_3  
     e( 25 - 25) =      0.02358  eV     1   --> B_1  D_3  S_3  
     e( 26 - 26) =      1.24853  eV     1   --> B_1  D_3  S_3  
     e( 27 - 27) =      1.29909  eV     1   --> A_1  D_1  S_1  
     e( 28 - 28) =      2.16482  eV     1   --> A_1  D_1  S_1  
     e( 29 - 29) =      2.95431  eV     1   --> A_1  D_1  S_1  
     e( 30 - 30) =      4.48739  eV     1   --> B_1  D_3  S_3  
     e( 31 - 31) =      4.61198  eV     1   --> A_2  D_2  S_2  
     e( 32 - 32) =      5.05521  eV     1   --> B_1  D_3  S_3  
     e( 33 - 33) =      5.07894  eV     1   --> A_2  D_2  S_2  
     e( 34 - 34) =      5.41525  eV     1   --> A_1  D_1  S_1  
     e( 35 - 35) =      5.55497  eV     1   --> B_2  D_4  S_4  
     e( 36 - 36) =      6.10879  eV     1   --> A_1  D_1  S_1  
     e( 37 - 37) =      6.14698  eV     1   --> B_2  D_4  S_4  
     e( 38 - 38) =      6.51434  eV     1   --> B_1  D_3  S_3  
     e( 39 - 39) =      7.04294  eV     1   --> A_1  D_1  S_1  
     e( 40 - 40) =      7.13954  eV     1   --> B_1  D_3  S_3  
     e( 41 - 41) =      8.50041  eV     1   --> B_1  D_3  S_3  
     e( 42 - 42) =      9.35254  eV     1   --> A_1  D_1  S_1  
     e( 43 - 43) =     10.22874  eV     1   --> B_2  D_4  S_4  
     e( 44 - 44) =     10.24508  eV     1   --> A_1  D_1  S_1  
     e( 45 - 45) =     10.48289  eV     1   --> B_1  D_3  S_3  
     e( 46 - 46) =     10.81501  eV     1   --> B_1  D_3  S_3  
     e( 47 - 47) =     11.26240  eV     1   --> A_2  D_2  S_2  
     e( 48 - 48) =     11.55006  eV     1   --> B_2  D_4  S_4  
     e( 49 - 49) =     11.79241  eV     1   --> B_1  D_3  S_3  
     e( 50 - 50) =     12.19815  eV     1   --> A_1  D_1  S_1  

 **************************************************************************

 **************************************************************************

                    xk=(   0.20000,   0.00000,   0.00000  )

     Band symmetry, C_2v (mm2)  point group:

     e(  1 -  1) =    -13.75716  eV     1   --> B_1  D_3  S_3  
     e(  2 -  2) =    -13.74665  eV     1   --> B_1  D_3  S_3  
     e(  3 -  3) =    -13.74636  eV     1   --> A_1  D_1  S_1  
     e(  4 -  4) =    -13.74173  eV     1   --> B_2  D_4  S_4  
     e(  5 -  5) =    -13.74128  eV     1   --> A_1  D_1  S_1  
     e(  6 -  6) =    -13.73952  eV     1   --> A_2  D_2  S_2  
     e(  7 -  7) =    -13.73455  eV     1   --> B_2  D_4  S_4  
     e(  8 -  8) =    -13.73321  eV     1   --> A_2  D_2  S_2  
     e(  9 -  9) =    -13.72618  eV     1   --> A_2  D_2  S_2  
     e( 10 - 10) =    -13.72209  eV     1   --> B_2  D_4  S_4  
     e( 11 - 11) =    -13.72075  eV     1   --> B_1  D_3  S_3  
     e( 12 - 12) =    -13.71823  eV     1   --> B_1  D_3  S_3  
     e( 13 - 13) =    -13.71073  eV     1   --> A_1  D_1  S_1  
     e( 14 - 14) =    -13.70828  eV     1   --> A_1  D_1  S_1  
     e( 15 - 15) =    -13.69197  eV     1   --> B_1  D_3  S_3  
     e( 16 - 16) =    -13.68690  eV     1   --> B_1  D_3  S_3  
     e( 17 - 17) =    -13.68569  eV     1   --> A_1  D_1  S_1  
     e( 18 - 18) =    -13.68215  eV     1   --> A_1  D_1  S_1  
     e( 19 - 19) =    -13.67410  eV     1   --> A_2  D_2  S_2  
     e( 20 - 20) =    -13.66872  eV     1   --> B_2  D_4  S_4  
     e( 21 - 21) =     -5.88419  eV     1   --> A_1  D_1  S_1  
     e( 22 - 22) =     -5.56371  eV     1   --> A_1  D_1  S_1  
     e( 23 - 23) =     -5.06600  eV     1   --> B_1  D_3  S_3  
     e( 24 - 24) =     -4.66206  eV     1   --> B_1  D_3  S_3  
     e( 25 - 25) =     -0.02877  eV     1   --> B_1  D_3  S_3  
     e( 26 - 26) =      1.19500  eV     1   --> A_1  D_1  S_1  
     e( 27 - 27) =      1.21447  eV     1   --> B_1  D_3  S_3  
     e( 28 - 28) =      2.10389  eV     1   --> A_1  D_1  S_1  
     e( 29 - 29) =      2.97613  eV     1   --> A_1  D_1  S_1  
     e( 30 - 30) =      4.52765  eV     1   --> B_1  D_3  S_3  
     e( 31 - 31) =      4.64756  eV     1   --> A_2  D_2  S_2  
     e( 32 - 32) =      5.11006  eV     1   --> A_2  D_2  S_2  
     e( 33 - 33) =      5.12984  eV     1   --> B_1  D_3  S_3  
     e( 34 - 34) =      5.48986  eV     1   --> A_1  D_1  S_1  
     e( 35 - 35) =      5.57283  eV     1   --> B_2  D_4  S_4  
     e( 36 - 36) =      6.15129  eV     1   --> B_2  D_4  S_4  
     e( 37 - 37) =      6.18674  eV     1   --> A_1  D_1  S_1  
     e( 38 - 38) =      6.46999  eV     1   --> B_1  D_3  S_3  
     e( 39 - 39) =      7.11767  eV     1   --> A_1  D_1  S_1  
     e( 40 - 40) =      7.12796  eV     1   --> B_1  D_3  S_3  
     e( 41 - 41) =      8.53998  eV     1   --> B_1  D_3  S_3  
     e( 42 - 42) =      9.23421  eV     1   --> A_1  D_1  S_1  
     e( 43 - 43) =     10.12994  eV     1   --> B_2  D_4  S_4  
     e( 44 - 44) =     10.13247  eV     1   --> A_1  D_1  S_1  
     e( 45 - 45) =     10.45487  eV     1   --> B_1  D_3  S_3  
     e( 46 - 46) =     10.83073  eV     1   --> B_1  D_3  S_3  
     e( 47 - 47) =     11.14476  eV     1   --> A_2  D_2  S_2  
     e( 48 - 48) =     11.46770  eV     1   --> B_2  D_4  S_4  
     e( 49 - 49) =     11.84600  eV     1   --> B_1  D_3  S_3  
     e( 50 - 50) =     12.17212  eV     1   --> A_1  D_1  S_1  

 **************************************************************************

 **************************************************************************

                    xk=(   0.21667,   0.00000,   0.00000  )

     Band symmetry, C_2v (mm2)  point group:

     e(  1 -  1) =    -13.75686  eV     1   --> B_1  D_3  S_3  
     e(  2 -  3) =    -13.74648  eV     2   --> A_1  D_1  S_1  
     e(  2 -  3) =    -13.74648  eV     2   --> B_1  D_3  S_3  
     e(  4 -  4) =    -13.74192  eV     1   --> B_2  D_4  S_4  
     e(  5 -  5) =    -13.74129  eV     1   --> A_1  D_1  S_1  
     e(  6 -  6) =    -13.73981  eV     1   --> A_2  D_2  S_2  
     e(  7 -  7) =    -13.73461  eV     1   --> B_2  D_4  S_4  
     e(  8 -  8) =    -13.73324  eV     1   --> A_2  D_2  S_2  
     e(  9 -  9) =    -13.72617  eV     1   --> A_2  D_2  S_2  
     e( 10 - 10) =    -13.72218  eV     1   --> B_2  D_4  S_4  
     e( 11 - 11) =    -13.72033  eV     1   --> B_1  D_3  S_3  
     e( 12 - 12) =    -13.71774  eV     1   --> B_1  D_3  S_3  
     e( 13 - 13) =    -13.71062  eV     1   --> A_1  D_1  S_1  
     e( 14 - 14) =    -13.70832  eV     1   --> A_1  D_1  S_1  
     e( 15 - 15) =    -13.69197  eV     1   --> B_1  D_3  S_3  
     e( 16 - 16) =    -13.68677  eV     1   --> B_1  D_3  S_3  
     e( 17 - 17) =    -13.68589  eV     1   --> A_1  D_1  S_1  
     e( 18 - 18) =    -13.68225  eV     1   --> A_1  D_1  S_1  
     e( 19 - 19) =    -13.67400  eV     1   --> A_2  D_2  S_2  
     e( 20 - 20) =    -13.66884  eV     1   --> B_2  D_4  S_4  
     e( 21 - 21) =     -5.85967  eV     1   --> A_1  D_1  S_1  
     e( 22 - 22) =     -5.54131  eV     1   --> A_1  D_1  S_1  
     e( 23 - 23) =     -5.06736  eV     1   --> B_1  D_3  S_3  
     e( 24 - 24) =     -4.67149  eV     1   --> B_1  D_3  S_3  
     e( 25 - 25) =     -0.08001  eV     1   --> B_1  D_3  S_3  
     e( 26 - 26) =      1.08985  eV     1   --> A_1  D_1  S_1  
     e( 27 - 27) =      1.18047  eV     1   --> B_1  D_3  S_3  
     e( 28 - 28) =      2.03999  eV     1   --> A_1  D_1  S_1  
     e( 29 - 29) =      3.00329  eV     1   --> A_1  D_1  S_1  
     e( 30 - 30) =      4.56734  eV     1   --> B_1  D_3  S_3  
     e( 31 - 31) =      4.68577  eV     1   --> A_2  D_2  S_2  
     e( 32 - 32) =      5.14338  eV     1   --> A_2  D_2  S_2  
     e( 33 - 33) =      5.20406  eV     1   --> B_1  D_3  S_3  
     e( 34 - 34) =      5.55780  eV     1   --> A_1  D_1  S_1  
     e( 35 - 35) =      5.59091  eV     1   --> B_2  D_4  S_4  
     e( 36 - 36) =      6.15470  eV     1   --> B_2  D_4  S_4  
     e( 37 - 37) =      6.27474  eV     1   --> A_1  D_1  S_1  
     e( 38 - 38) =      6.42892  eV     1   --> B_1  D_3  S_3  
     e( 39 - 39) =      7.11425  eV     1   --> B_1  D_3  S_3  
     e( 40 - 40) =      7.19347  eV     1   --> A_1  D_1  S_1  
     e( 41 - 41) =      8.58543  eV     1   --> B_1  D_3  S_3  
     e( 42 - 42) =      9.11616  eV     1   --> A_1  D_1  S_1  
     e( 43 - 43) =     10.01354  eV     1   --> A_1  D_1  S_1  
     e( 44 - 44) =     10.03230  eV     1   --> B_2  D_4  S_4  
     e( 45 - 45) =     10.41659  eV     1   --> B_1  D_3  S_3  
     e( 46 - 46) =     10.83463  eV     1   --> B_1  D_3  S_3  
     e( 47 - 47) =     11.02469  eV     1   --> A_2  D_2  S_2  
     e( 48 - 48) =     11.38623  eV     1   --> B_2  D_4  S_4  
     e( 49 - 49) =     11.90670  eV     1   --> B_1  D_3  S_3  
     e( 50 - 50) =     12.11880  eV     1   --> A_1  D_1  S_1  

 **************************************************************************

 **************************************************************************

                    xk=(   0.23333,   0.00000,   0.00000  )

     Band symmetry, C_2v (mm2)  point group:

     e(  1 -  1) =    -13.75654  eV     1   --> B_1  D_3  S_3  
     e(  2 -  2) =    -13.74658  eV     1   --> A_1  D_1  S_1  
     e(  3 -  3) =    -13.74631  eV     1   --> B_1  D_3  S_3  
     e(  4 -  4) =    -13.74211  eV     1   --> B_2  D_4  S_4  
     e(  5 -  5) =    -13.74131  eV     1   --> A_1  D_1  S_1  
     e(  6 -  6) =    -13.74010  eV     1   --> A_2  D_2  S_2  
     e(  7 -  7) =    -13.73466  eV     1   --> B_2  D_4  S_4  
     e(  8 -  8) =    -13.73329  eV     1   --> A_2  D_2  S_2  
     e(  9 -  9) =    -13.72615  eV     1   --> A_2  D_2  S_2  
     e( 10 - 10) =    -13.72228  eV     1   --> B_2  D_4  S_4  
     e( 11 - 11) =    -13.71988  eV     1   --> B_1  D_3  S_3  
     e( 12 - 12) =    -13.71724  eV     1   --> B_1  D_3  S_3  
     e( 13 - 13) =    -13.71052  eV     1   --> A_1  D_1  S_1  
     e( 14 - 14) =    -13.70837  eV     1   --> A_1  D_1  S_1  
     e( 15 - 15) =    -13.69196  eV     1   --> B_1  D_3  S_3  
     e( 16 - 16) =    -13.68664  eV     1   --> B_1  D_3  S_3  
     e( 17 - 17) =    -13.68610  eV     1   --> A_1  D_1  S_1  
     e( 18 - 18) =    -13.68235  eV     1   --> A_1  D_1  S_1  
     e( 19 - 19) =    -13.67391  eV     1   --> A_2  D_2  S_2  
     e( 20 - 20) =    -13.66896  eV     1   --> B_2  D_4  S_4  
     e( 21 - 21) =     -5.83362  eV     1   --> A_1  D_1  S_1  
     e( 22 - 22) =     -5.51748  eV     1   --> A_1  D_1  S_1  
     e( 23 - 23) =     -5.06964  eV     1   --> B_1  D_3  S_3  
     e( 24 - 24) =     -4.68209  eV     1   --> B_1  D_3  S_3  
     e( 25 - 25) =     -0.12941  eV     1   --> B_1  D_3  S_3  
     e( 26 - 26) =      0.98460  eV     1   --> A_1  D_1  S_1  
     e( 27 - 27) =      1.14716  eV     1   --> B_1  D_3  S_3  
     e( 28 - 28) =      1.97377  eV     1   --> A_1  D_1  S_1  
     e( 29 - 29) =      3.03555  eV     1   --> A_1  D_1  S_1  
     e( 30 - 30) =      4.60442  eV     1   --> B_1  D_3  S_3  
     e( 31 - 31) =      4.72648  eV     1   --> A_2  D_2  S_2  
     e( 32 - 32) =      5.17878  eV     1   --> A_2  D_2  S_2  
     e( 33 - 33) =      5.27746  eV     1   --> B_1  D_3  S_3  
     e( 34 - 34) =      5.60885  eV     1   --> B_2  D_4  S_4  
     e( 35 - 35) =      5.61947  eV     1   --> A_1  D_1  S_1  
     e( 36 - 36) =      6.15692  eV     1   --> B_2  D_4  S_4  
     e( 37 - 37) =      6.37140  eV     1   --> A_1  D_1  S_1  
     e( 38 - 38) =      6.39313  eV     1   --> B_1  D_3  S_3  
     e( 39 - 39) =      7.09872  eV     1   --> B_1  D_3  S_3  
     e( 40 - 40) =      7.26899  eV     1   --> A_1  D_1  S_1  
     e( 41 - 41) =      8.63650  eV     1   --> B_1  D_3  S_3  
     e( 42 - 42) =      8.99996  eV     1   --> A_1  D_1  S_1  
     e( 43 - 43) =      9.89031  eV     1   --> A_1  D_1  S_1  
     e( 44 - 44) =      9.93697  eV     1   --> B_2  D_4  S_4  
     e( 45 - 45) =     10.36745  eV     1   --> B_1  D_3  S_3  
     e( 46 - 46) =     10.82513  eV     1   --> B_1  D_3  S_3  
     e( 47 - 47) =     10.90327  eV     1   --> A_2  D_2  S_2  
     e( 48 - 48) =     11.30686  eV     1   --> B_2  D_4  S_4  
     e( 49 - 49) =     11.97541  eV     1   --> B_1  D_3  S_3  
     e( 50 - 50) =     12.04145  eV     1   --> A_1  D_1  S_1  

 **************************************************************************

 **************************************************************************

                    xk=(   0.25000,   0.00000,   0.00000  )

     Band symmetry, C_2v (mm2)  point group:

     e(  1 -  1) =    -13.75621  eV     1   --> B_1  D_3  S_3  
     e(  2 -  2) =    -13.74671  eV     1   --> A_1  D_1  S_1  
     e(  3 -  3) =    -13.74612  eV     1   --> B_1  D_3  S_3  
     e(  4 -  4) =    -13.74230  eV     1   --> B_2  D_4  S_4  
     e(  5 -  5) =    -13.74133  eV     1   --> A_1  D_1  S_1  
     e(  6 -  6) =    -13.74040  eV     1   --> A_2  D_2  S_2  
     e(  7 -  7) =    -13.73472  eV     1   --> B_2  D_4  S_4  
     e(  8 -  8) =    -13.73334  eV     1   --> A_2  D_2  S_2  
     e(  9 -  9) =    -13.72612  eV     1   --> A_2  D_2  S_2  
     e( 10 - 10) =    -13.72239  eV     1   --> B_2  D_4  S_4  
     e( 11 - 11) =    -13.71940  eV     1   --> B_1  D_3  S_3  
     e( 12 - 12) =    -13.71671  eV     1   --> B_1  D_3  S_3  
     e( 13 - 13) =    -13.71043  eV     1   --> A_1  D_1  S_1  
     e( 14 - 14) =    -13.70842  eV     1   --> A_1  D_1  S_1  
     e( 15 - 15) =    -13.69193  eV     1   --> B_1  D_3  S_3  
     e( 16 - 16) =    -13.68650  eV     1   --> B_1  D_3  S_3  
     e( 17 - 17) =    -13.68631  eV     1   --> A_1  D_1  S_1  
     e( 18 - 18) =    -13.68246  eV     1   --> A_1  D_1  S_1  
     e( 19 - 19) =    -13.67379  eV     1   --> A_2  D_2  S_2  
     e( 20 - 20) =    -13.66908  eV     1   --> B_2  D_4  S_4  
     e( 21 - 21) =     -5.80615  eV     1   --> A_1  D_1  S_1  
     e( 22 - 22) =     -5.49231  eV     1   --> A_1  D_1  S_1  
     e( 23 - 23) =     -5.07299  eV     1   --> B_1  D_3  S_3  
     e( 24 - 24) =     -4.69390  eV     1   --> B_1  D_3  S_3  
     e( 25 - 25) =     -0.17628  eV     1   --> B_1  D_3  S_3  
     e( 26 - 26) =      0.88006  eV     1   --> A_1  D_1  S_1  
     e( 27 - 27) =      1.11518  eV     1   --> B_1  D_3  S_3  
     e( 28 - 28) =      1.90592  eV     1   --> A_1  D_1  S_1  
     e( 29 - 29) =      3.07262  eV     1   --> A_1  D_1  S_1  
     e( 30 - 30) =      4.63662  eV     1   --> B_1  D_3  S_3  
     e( 31 - 31) =      4.76953  eV     1   --> A_2  D_2  S_2  
     e( 32 - 32) =      5.21612  eV     1   --> A_2  D_2  S_2  
     e( 33 - 33) =      5.34977  eV     1   --> B_1  D_3  S_3  
     e( 34 - 34) =      5.62625  eV     1   --> B_2  D_4  S_4  
     e( 35 - 35) =      5.67582  eV     1   --> A_1  D_1  S_1  
     e( 36 - 36) =      6.15765  eV     1   --> B_2  D_4  S_4  
     e( 37 - 37) =      6.36472  eV     1   --> B_1  D_3  S_3  
     e( 38 - 38) =      6.47482  eV     1   --> A_1  D_1  S_1  
     e( 39 - 39) =      7.08176  eV     1   --> B_1  D_3  S_3  
     e( 40 - 40) =      7.34255  eV     1   --> A_1  D_1  S_1  
     e( 41 - 41) =      8.69286  eV     1   --> B_1  D_3  S_3  
     e( 42 - 42) =      8.88751  eV     1   --> A_1  D_1  S_1  
     e( 43 - 43) =      9.76461  eV     1   --> A_1  D_1  S_1  
     e( 44 - 44) =      9.84500  eV     1   --> B_2  D_4  S_4  
     e( 45 - 45) =     10.30748  eV     1   --> B_1  D_3  S_3  
     e( 46 - 46) =     10.78145  eV     1   --> A_2  D_2  S_2  
     e( 47 - 47) =     10.80160  eV     1   --> B_1  D_3  S_3  
     e( 48 - 48) =     11.23070  eV     1   --> B_2  D_4  S_4  
     e( 49 - 49) =     11.94708  eV     1   --> A_1  D_1  S_1  
     e( 50 - 50) =     12.05240  eV     1   --> B_1  D_3  S_3  

 **************************************************************************

 **************************************************************************

                    xk=(   0.26667,   0.00000,   0.00000  )

     Band symmetry, C_2v (mm2)  point group:

     e(  1 -  1) =    -13.75586  eV     1   --> B_1  D_3  S_3  
     e(  2 -  2) =    -13.74685  eV     1   --> A_1  D_1  S_1  
     e(  3 -  3) =    -13.74593  eV     1   --> B_1  D_3  S_3  
     e(  4 -  4) =    -13.74249  eV     1   --> B_2  D_4  S_4  
     e(  5 -  5) =    -13.74135  eV     1   --> A_1  D_1  S_1  
     e(  6 -  6) =    -13.74069  eV     1   --> A_2  D_2  S_2  
     e(  7 -  7) =    -13.73476  eV     1   --> B_2  D_4  S_4  
     e(  8 -  8) =    -13.73341  eV     1   --> A_2  D_2  S_2  
     e(  9 -  9) =    -13.72608  eV     1   --> A_2  D_2  S_2  
     e( 10 - 10) =    -13.72250  eV     1   --> B_2  D_4  S_4  
     e( 11 - 11) =    -13.71893  eV     1   --> B_1  D_3  S_3  
     e( 12 - 12) =    -13.71619  eV     1   --> B_1  D_3  S_3  
     e( 13 - 13) =    -13.71037  eV     1   --> A_1  D_1  S_1  
     e( 14 - 14) =    -13.70844  eV     1   --> A_1  D_1  S_1  
     e( 15 - 15) =    -13.69190  eV     1   --> B_1  D_3  S_3  
     e( 16 - 16) =    -13.68654  eV     1   --> A_1  D_1  S_1  
     e( 17 - 17) =    -13.68635  eV     1   --> B_1  D_3  S_3  
     e( 18 - 18) =    -13.68257  eV     1   --> A_1  D_1  S_1  
     e( 19 - 19) =    -13.67366  eV     1   --> A_2  D_2  S_2  
     e( 20 - 20) =    -13.66921  eV     1   --> B_2  D_4  S_4  
     e( 21 - 21) =     -5.77736  eV     1   --> A_1  D_1  S_1  
     e( 22 - 22) =     -5.46588  eV     1   --> A_1  D_1  S_1  
     e( 23 - 23) =     -5.07756  eV     1   --> B_1  D_3  S_3  
     e( 24 - 24) =     -4.70698  eV     1   --> B_1  D_3  S_3  
     e( 25 - 25) =     -0.22000  eV     1   --> B_1  D_3  S_3  
     e( 26 - 26) =      0.77690  eV     1   --> A_1  D_1  S_1  
     e( 27 - 27) =      1.08508  eV     1   --> B_1  D_3  S_3  
     e( 28 - 28) =      1.83712  eV     1   --> A_1  D_1  S_1  
     e( 29 - 29) =      3.11419  eV     1   --> A_1  D_1  S_1  
     e( 30 - 30) =      4.66160  eV     1   --> B_1  D_3  S_3  
     e( 31 - 31) =      4.81476  eV     1   --> A_2  D_2  S_2  
     e( 32 - 32) =      5.25522  eV     1   --> A_2  D_2  S_2  
     e( 33 - 33) =      5.42102  eV     1   --> B_1  D_3  S_3  
     e( 34 - 34) =      5.64266  eV     1   --> B_2  D_4  S_4  
     e( 35 - 35) =      5.72795  eV     1   --> A_1  D_1  S_1  
     e( 36 - 36) =      6.15658  eV     1   --> B_2  D_4  S_4  
     e( 37 - 37) =      6.34563  eV     1   --> B_1  D_3  S_3  
     e( 38 - 38) =      6.58295  eV     1   --> A_1  D_1  S_1  
     e( 39 - 39) =      7.06387  eV     1   --> B_1  D_3  S_3  
     e( 40 - 40) =      7.41179  eV     1   --> A_1  D_1  S_1  
     e( 41 - 41) =      8.75409  eV     1   --> B_1  D_3  S_3  
     e( 42 - 42) =      8.78132  eV     1   --> A_1  D_1  S_1  
     e( 43 - 43) =      9.63811  eV     1   --> A_1  D_1  S_1  
     e( 44 - 44) =      9.75741  eV     1   --> B_2  D_4  S_4  
     e( 45 - 45) =     10.23724  eV     1   --> B_1  D_3  S_3  
     e( 46 - 46) =     10.66012  eV     1   --> A_2  D_2  S_2  
     e( 47 - 47) =     10.76435  eV     1   --> B_1  D_3  S_3  
     e( 48 - 48) =     11.15875  eV     1   --> B_2  D_4  S_4  
     e( 49 - 49) =     11.84150  eV     1   --> A_1  D_1  S_1  
     e( 50 - 50) =     12.13722  eV     1   --> B_1  D_3  S_3  

 **************************************************************************

 **************************************************************************

                    xk=(   0.28333,   0.00000,   0.00000  )

     Band symmetry, C_2v (mm2)  point group:

     e(  1 -  1) =    -13.75550  eV     1   --> B_1  D_3  S_3  
     e(  2 -  2) =    -13.74701  eV     1   --> A_1  D_1  S_1  
     e(  3 -  3) =    -13.74575  eV     1   --> B_1  D_3  S_3  
     e(  4 -  4) =    -13.74267  eV     1   --> B_2  D_4  S_4  
     e(  5 -  5) =    -13.74141  eV     1   --> A_1  D_1  S_1  
     e(  6 -  6) =    -13.74098  eV     1   --> A_2  D_2  S_2  
     e(  7 -  7) =    -13.73480  eV     1   --> B_2  D_4  S_4  
     e(  8 -  8) =    -13.73349  eV     1   --> A_2  D_2  S_2  
     e(  9 -  9) =    -13.72603  eV     1   --> A_2  D_2  S_2  
     e( 10 - 10) =    -13.72262  eV     1   --> B_2  D_4  S_4  
     e( 11 - 11) =    -13.71843  eV     1   --> B_1  D_3  S_3  
     e( 12 - 12) =    -13.71568  eV     1   --> B_1  D_3  S_3  
     e( 13 - 13) =    -13.71034  eV     1   --> A_1  D_1  S_1  
     e( 14 - 14) =    -13.70849  eV     1   --> A_1  D_1  S_1  
     e( 15 - 15) =    -13.69186  eV     1   --> B_1  D_3  S_3  
     e( 16 - 16) =    -13.68678  eV     1   --> A_1  D_1  S_1  
     e( 17 - 17) =    -13.68622  eV     1   --> B_1  D_3  S_3  
     e( 18 - 18) =    -13.68270  eV     1   --> A_1  D_1  S_1  
     e( 19 - 19) =    -13.67354  eV     1   --> A_2  D_2  S_2  
     e( 20 - 20) =    -13.66935  eV     1   --> B_2  D_4  S_4  
     e( 21 - 21) =     -5.74738  eV     1   --> A_1  D_1  S_1  
     e( 22 - 22) =     -5.43830  eV     1   --> A_1  D_1  S_1  
     e( 23 - 23) =     -5.08351  eV     1   --> B_1  D_3  S_3  
     e( 24 - 24) =     -4.72140  eV     1   --> B_1  D_3  S_3  
     e( 25 - 25) =     -0.25998  eV     1   --> B_1  D_3  S_3  
     e( 26 - 26) =      0.67572  eV     1   --> A_1  D_1  S_1  
     e( 27 - 27) =      1.05739  eV     1   --> B_1  D_3  S_3  
     e( 28 - 28) =      1.76804  eV     1   --> A_1  D_1  S_1  
     e( 29 - 29) =      3.15997  eV     1   --> A_1  D_1  S_1  
     e( 30 - 30) =      4.67707  eV     1   --> B_1  D_3  S_3  
     e( 31 - 31) =      4.86199  eV     1   --> A_2  D_2  S_2  
     e( 32 - 32) =      5.29591  eV     1   --> A_2  D_2  S_2  
     e( 33 - 33) =      5.49157  eV     1   --> B_1  D_3  S_3  
     e( 34 - 34) =      5.65761  eV     1   --> B_2  D_4  S_4  
     e( 35 - 35) =      5.77691  eV     1   --> A_1  D_1  S_1  
     e( 36 - 36) =      6.15343  eV     1   --> B_2  D_4  S_4  
     e( 37 - 37) =      6.33728  eV     1   --> B_1  D_3  S_3  
     e( 38 - 38) =      6.69372  eV     1   --> A_1  D_1  S_1  
     e( 39 - 39) =      7.04570  eV     1   --> B_1  D_3  S_3  
     e( 40 - 40) =      7.47340  eV     1   --> A_1  D_1  S_1  
     e( 41 - 41) =      8.68479  eV     1   --> A_1  D_1  S_1  
     e( 42 - 42) =      8.81974  eV     1   --> B_1  D_3  S_3  
     e( 43 - 43) =      9.51241  eV     1   --> A_1  D_1  S_1  
     e( 44 - 44) =      9.67513  eV     1   --> B_2  D_4  S_4  
     e( 45 - 45) =     10.15768  eV     1   --> B_1  D_3  S_3  
     e( 46 - 46) =     10.54006  eV     1   --> A_2  D_2  S_2  
     e( 47 - 47) =     10.71443  eV     1   --> B_1  D_3  S_3  
     e( 48 - 48) =     11.09191  eV     1   --> B_2  D_4  S_4  
     e( 49 - 49) =     11.72860  eV     1   --> A_1  D_1  S_1  
     e( 50 - 50) =     12.03310  eV     1   --> A_2  D_2  S_2  

 **************************************************************************

 **************************************************************************

                    xk=(   0.30000,   0.00000,   0.00000  )

     Band symmetry, C_2v (mm2)  point group:

     e(  1 -  1) =    -13.75512  eV     1   --> B_1  D_3  S_3  
     e(  2 -  2) =    -13.74718  eV     1   --> A_1  D_1  S_1  
     e(  3 -  3) =    -13.74555  eV     1   --> B_1  D_3  S_3  
     e(  4 -  4) =    -13.74283  eV     1   --> B_2  D_4  S_4  
     e(  5 -  5) =    -13.74146  eV     1   --> A_1  D_1  S_1  
     e(  6 -  6) =    -13.74127  eV     1   --> A_2  D_2  S_2  
     e(  7 -  7) =    -13.73484  eV     1   --> B_2  D_4  S_4  
     e(  8 -  8) =    -13.73356  eV     1   --> A_2  D_2  S_2  
     e(  9 -  9) =    -13.72596  eV     1   --> A_2  D_2  S_2  
     e( 10 - 10) =    -13.72274  eV     1   --> B_2  D_4  S_4  
     e( 11 - 11) =    -13.71792  eV     1   --> B_1  D_3  S_3  
     e( 12 - 12) =    -13.71518  eV     1   --> B_1  D_3  S_3  
     e( 13 - 13) =    -13.71032  eV     1   --> A_1  D_1  S_1  
     e( 14 - 14) =    -13.70853  eV     1   --> A_1  D_1  S_1  
     e( 15 - 15) =    -13.69177  eV     1   --> B_1  D_3  S_3  
     e( 16 - 16) =    -13.68701  eV     1   --> A_1  D_1  S_1  
     e( 17 - 17) =    -13.68607  eV     1   --> B_1  D_3  S_3  
     e( 18 - 18) =    -13.68281  eV     1   --> A_1  D_1  S_1  
     e( 19 - 19) =    -13.67340  eV     1   --> A_2  D_2  S_2  
     e( 20 - 20) =    -13.66949  eV     1   --> B_2  D_4  S_4  
     e( 21 - 21) =     -5.71635  eV     1   --> A_1  D_1  S_1  
     e( 22 - 22) =     -5.40968  eV     1   --> A_1  D_1  S_1  
     e( 23 - 23) =     -5.09097  eV     1   --> B_1  D_3  S_3  
     e( 24 - 24) =     -4.73718  eV     1   --> B_1  D_3  S_3  
     e( 25 - 25) =     -0.29573  eV     1   --> B_1  D_3  S_3  
     e( 26 - 26) =      0.57703  eV     1   --> A_1  D_1  S_1  
     e( 27 - 27) =      1.03258  eV     1   --> B_1  D_3  S_3  
     e( 28 - 28) =      1.69929  eV     1   --> A_1  D_1  S_1  
     e( 29 - 29) =      3.20968  eV     1   --> A_1  D_1  S_1  
     e( 30 - 30) =      4.68120  eV     1   --> B_1  D_3  S_3  
     e( 31 - 31) =      4.91099  eV     1   --> A_2  D_2  S_2  
     e( 32 - 32) =      5.33799  eV     1   --> A_2  D_2  S_2  
     e( 33 - 33) =      5.56212  eV     1   --> B_1  D_3  S_3  
     e( 34 - 34) =      5.67062  eV     1   --> B_2  D_4  S_4  
     e( 35 - 35) =      5.82355  eV     1   --> A_1  D_1  S_1  
     e( 36 - 36) =      6.14792  eV     1   --> B_2  D_4  S_4  
     e( 37 - 37) =      6.34022  eV     1   --> B_1  D_3  S_3  
     e( 38 - 38) =      6.80514  eV     1   --> A_1  D_1  S_1  
     e( 39 - 39) =      7.02807  eV     1   --> B_1  D_3  S_3  
     e( 40 - 40) =      7.52283  eV     1   --> A_1  D_1  S_1  
     e( 41 - 41) =      8.60261  eV     1   --> A_1  D_1  S_1  
     e( 42 - 42) =      8.88930  eV     1   --> B_1  D_3  S_3  
     e( 43 - 43) =      9.38917  eV     1   --> A_1  D_1  S_1  
     e( 44 - 44) =      9.59904  eV     1   --> B_2  D_4  S_4  
     e( 45 - 45) =     10.07000  eV     1   --> B_1  D_3  S_3  
     e( 46 - 46) =     10.42201  eV     1   --> A_2  D_2  S_2  
     e( 47 - 47) =     10.65342  eV     1   --> B_1  D_3  S_3  
     e( 48 - 48) =     11.03099  eV     1   --> B_2  D_4  S_4  
     e( 49 - 49) =     11.61095  eV     1   --> A_1  D_1  S_1  
     e( 50 - 50) =     11.92224  eV     1   --> A_2  D_2  S_2  

 **************************************************************************

 **************************************************************************

                    xk=(   0.31667,   0.00000,   0.00000  )

     Band symmetry, C_2v (mm2)  point group:

     e(  1 -  1) =    -13.75473  eV     1   --> B_1  D_3  S_3  
     e(  2 -  2) =    -13.74737  eV     1   --> A_1  D_1  S_1  
     e(  3 -  3) =    -13.74534  eV     1   --> B_1  D_3  S_3  
     e(  4 -  4) =    -13.74298  eV     1   --> B_2  D_4  S_4  
     e(  5 -  6) =    -13.74153  eV     2   --> A_1  D_1  S_1  
     e(  5 -  6) =    -13.74153  eV     2   --> A_2  D_2  S_2  
     e(  7 -  7) =    -13.73485  eV     1   --> B_2  D_4  S_4  
     e(  8 -  8) =    -13.73364  eV     1   --> A_2  D_2  S_2  
     e(  9 -  9) =    -13.72588  eV     1   --> A_2  D_2  S_2  
     e( 10 - 10) =    -13.72287  eV     1   --> B_2  D_4  S_4  
     e( 11 - 11) =    -13.71741  eV     1   --> B_1  D_3  S_3  
     e( 12 - 12) =    -13.71467  eV     1   --> B_1  D_3  S_3  
     e( 13 - 13) =    -13.71034  eV     1   --> A_1  D_1  S_1  
     e( 14 - 14) =    -13.70857  eV     1   --> A_1  D_1  S_1  
     e( 15 - 15) =    -13.69169  eV     1   --> B_1  D_3  S_3  
     e( 16 - 16) =    -13.68725  eV     1   --> A_1  D_1  S_1  
     e( 17 - 17) =    -13.68591  eV     1   --> B_1  D_3  S_3  
     e( 18 - 18) =    -13.68293  eV     1   --> A_1  D_1  S_1  
     e( 19 - 19) =    -13.67324  eV     1   --> A_2  D_2  S_2  
     e( 20 - 20) =    -13.66962  eV     1   --> B_2  D_4  S_4  
     e( 21 - 21) =     -5.68440  eV     1   --> A_1  D_1  S_1  
     e( 22 - 22) =     -5.38011  eV     1   --> A_1  D_1  S_1  
     e( 23 - 23) =     -5.10007  eV     1   --> B_1  D_3  S_3  
     e( 24 - 24) =     -4.75436  eV     1   --> B_1  D_3  S_3  
     e( 25 - 25) =     -0.32678  eV     1   --> B_1  D_3  S_3  
     e( 26 - 26) =      0.48129  eV     1   --> A_1  D_1  S_1  
     e( 27 - 27) =      1.01108  eV     1   --> B_1  D_3  S_3  
     e( 28 - 28) =      1.63143  eV     1   --> A_1  D_1  S_1  
     e( 29 - 29) =      3.26306  eV     1   --> A_1  D_1  S_1  
     e( 30 - 30) =      4.67284  eV     1   --> B_1  D_3  S_3  
     e( 31 - 31) =      4.96154  eV     1   --> A_2  D_2  S_2  
     e( 32 - 32) =      5.38127  eV     1   --> A_2  D_2  S_2  
     e( 33 - 33) =      5.63357  eV     1   --> B_1  D_3  S_3  
     e( 34 - 34) =      5.68115  eV     1   --> B_2  D_4  S_4  
     e( 35 - 35) =      5.86853  eV     1   --> A_1  D_1  S_1  
     e( 36 - 36) =      6.13983  eV     1   --> B_2  D_4  S_4  
     e( 37 - 37) =      6.35379  eV     1   --> B_1  D_3  S_3  
     e( 38 - 38) =      6.91512  eV     1   --> A_1  D_1  S_1  
     e( 39 - 39) =      7.01207  eV     1   --> B_1  D_3  S_3  
     e( 40 - 40) =      7.55437  eV     1   --> A_1  D_1  S_1  
     e( 41 - 41) =      8.54049  eV     1   --> A_1  D_1  S_1  
     e( 42 - 42) =      8.96218  eV     1   --> B_1  D_3  S_3  
     e( 43 - 43) =      9.27023  eV     1   --> A_1  D_1  S_1  
     e( 44 - 44) =      9.52998  eV     1   --> B_2  D_4  S_4  
     e( 45 - 45) =      9.97548  eV     1   --> B_1  D_3  S_3  
     e( 46 - 46) =     10.30666  eV     1   --> A_2  D_2  S_2  
     e( 47 - 47) =     10.58314  eV     1   --> B_1  D_3  S_3  
     e( 48 - 48) =     10.97672  eV     1   --> B_2  D_4  S_4  
     e( 49 - 49) =     11.49026  eV     1   --> A_1  D_1  S_1  
     e( 50 - 50) =     11.81363  eV     1   --> A_2  D_2  S_2  

 **************************************************************************

 **************************************************************************

                    xk=(   0.33333,   0.00000,   0.00000  )

     Band symmetry, C_2v (mm2)  point group:

     e(  1 -  1) =    -13.75434  eV     1   --> B_1  D_3  S_3  
     e(  2 -  2) =    -13.74757  eV     1   --> A_1  D_1  S_1  
     e(  3 -  3) =    -13.74513  eV     1   --> B_1  D_3  S_3  
     e(  4 -  4) =    -13.74311  eV     1   --> B_2  D_4  S_4  
     e(  5 -  5) =    -13.74179  eV     1   --> A_2  D_2  S_2  
     e(  6 -  6) =    -13.74161  eV     1   --> A_1  D_1  S_1  
     e(  7 -  7) =    -13.73488  eV     1   --> B_2  D_4  S_4  
     e(  8 -  8) =    -13.73373  eV     1   --> A_2  D_2  S_2  
     e(  9 -  9) =    -13.72579  eV     1   --> A_2  D_2  S_2  
     e( 10 - 10) =    -13.72300  eV     1   --> B_2  D_4  S_4  
     e( 11 - 11) =    -13.71689  eV     1   --> B_1  D_3  S_3  
     e( 12 - 12) =    -13.71416  eV     1   --> B_1  D_3  S_3  
     e( 13 - 13) =    -13.71037  eV     1   --> A_1  D_1  S_1  
     e( 14 - 14) =    -13.70861  eV     1   --> A_1  D_1  S_1  
     e( 15 - 15) =    -13.69158  eV     1   --> B_1  D_3  S_3  
     e( 16 - 16) =    -13.68749  eV     1   --> A_1  D_1  S_1  
     e( 17 - 17) =    -13.68576  eV     1   --> B_1  D_3  S_3  
     e( 18 - 18) =    -13.68304  eV     1   --> A_1  D_1  S_1  
     e( 19 - 19) =    -13.67309  eV     1   --> A_2  D_2  S_2  
     e( 20 - 20) =    -13.66977  eV     1   --> B_2  D_4  S_4  
     e( 21 - 21) =     -5.65170  eV     1   --> A_1  D_1  S_1  
     e( 22 - 22) =     -5.34973  eV     1   --> A_1  D_1  S_1  
     e( 23 - 23) =     -5.11092  eV     1   --> B_1  D_3  S_3  
     e( 24 - 24) =     -4.77295  eV     1   --> B_1  D_3  S_3  
     e( 25 - 25) =     -0.35271  eV     1   --> B_1  D_3  S_3  
     e( 26 - 26) =      0.38891  eV     1   --> A_1  D_1  S_1  
     e( 27 - 27) =      0.99324  eV     1   --> B_1  D_3  S_3  
     e( 28 - 28) =      1.56497  eV     1   --> A_1  D_1  S_1  
     e( 29 - 29) =      3.31987  eV     1   --> A_1  D_1  S_1  
     e( 30 - 30) =      4.65180  eV     1   --> B_1  D_3  S_3  
     e( 31 - 31) =      5.01336  eV     1   --> A_2  D_2  S_2  
     e( 32 - 32) =      5.42550  eV     1   --> A_2  D_2  S_2  
     e( 33 - 33) =      5.68869  eV     1   --> B_2  D_4  S_4  
     e( 34 - 34) =      5.70676  eV     1   --> B_1  D_3  S_3  
     e( 35 - 35) =      5.91228  eV     1   --> A_1  D_1  S_1  
     e( 36 - 36) =      6.12896  eV     1   --> B_2  D_4  S_4  
     e( 37 - 37) =      6.37608  eV     1   --> B_1  D_3  S_3  
     e( 38 - 38) =      6.99918  eV     1   --> B_1  D_3  S_3  
     e( 39 - 39) =      7.02124  eV     1   --> A_1  D_1  S_1  
     e( 40 - 40) =      7.56257  eV     1   --> A_1  D_1  S_1  
     e( 41 - 41) =      8.50385  eV     1   --> A_1  D_1  S_1  
     e( 42 - 42) =      9.03767  eV     1   --> B_1  D_3  S_3  
     e( 43 - 43) =      9.15794  eV     1   --> A_1  D_1  S_1  
     e( 44 - 44) =      9.46871  eV     1   --> B_2  D_4  S_4  
     e( 45 - 45) =      9.87542  eV     1   --> B_1  D_3  S_3  
     e( 46 - 46) =     10.19463  eV     1   --> A_2  D_2  S_2  
     e( 47 - 47) =     10.50559  eV     1   --> B_1  D_3  S_3  
     e( 48 - 48) =     10.92972  eV     1   --> B_2  D_4  S_4  
     e( 49 - 49) =     11.36781  eV     1   --> A_1  D_1  S_1  
     e( 50 - 50) =     11.70790  eV     1   --> A_2  D_2  S_2  

 **************************************************************************

 **************************************************************************

                    xk=(   0.35000,   0.00000,   0.00000  )

     Band symmetry, C_2v (mm2)  point group:

     e(  1 -  1) =    -13.75395  eV     1   --> B_1  D_3  S_3  
     e(  2 -  2) =    -13.74779  eV     1   --> A_1  D_1  S_1  
     e(  3 -  3) =    -13.74491  eV     1   --> B_1  D_3  S_3  
     e(  4 -  4) =    -13.74325  eV     1   --> B_2  D_4  S_4  
     e(  5 -  5) =    -13.74205  eV     1   --> A_2  D_2  S_2  
     e(  6 -  6) =    -13.74170  eV     1   --> A_1  D_1  S_1  
     e(  7 -  7) =    -13.73491  eV     1   --> B_2  D_4  S_4  
     e(  8 -  8) =    -13.73382  eV     1   --> A_2  D_2  S_2  
     e(  9 -  9) =    -13.72568  eV     1   --> A_2  D_2  S_2  
     e( 10 - 10) =    -13.72313  eV     1   --> B_2  D_4  S_4  
     e( 11 - 11) =    -13.71638  eV     1   --> B_1  D_3  S_3  
     e( 12 - 12) =    -13.71366  eV     1   --> B_1  D_3  S_3  
     e( 13 - 13) =    -13.71046  eV     1   --> A_1  D_1  S_1  
     e( 14 - 14) =    -13.70867  eV     1   --> A_1  D_1  S_1  
     e( 15 - 15) =    -13.69148  eV     1   --> B_1  D_3  S_3  
     e( 16 - 16) =    -13.68773  eV     1   --> A_1  D_1  S_1  
     e( 17 - 17) =    -13.68560  eV     1   --> B_1  D_3  S_3  
     e( 18 - 18) =    -13.68317  eV     1   --> A_1  D_1  S_1  
     e( 19 - 19) =    -13.67295  eV     1   --> A_2  D_2  S_2  
     e( 20 - 20) =    -13.66993  eV     1   --> B_2  D_4  S_4  
     e( 21 - 21) =     -5.61841  eV     1   --> A_1  D_1  S_1  
     e( 22 - 22) =     -5.31866  eV     1   --> A_1  D_1  S_1  
     e( 23 - 23) =     -5.12361  eV     1   --> B_1  D_3  S_3  
     e( 24 - 24) =     -4.79295  eV     1   --> B_1  D_3  S_3  
     e( 25 - 25) =     -0.37320  eV     1   --> B_1  D_3  S_3  
     e( 26 - 26) =      0.30026  eV     1   --> A_1  D_1  S_1  
     e( 27 - 27) =      0.97937  eV     1   --> B_1  D_3  S_3  
     e( 28 - 28) =      1.50038  eV     1   --> A_1  D_1  S_1  
     e( 29 - 29) =      3.37986  eV     1   --> A_1  D_1  S_1  
     e( 30 - 30) =      4.61875  eV     1   --> B_1  D_3  S_3  
     e( 31 - 31) =      5.06617  eV     1   --> A_2  D_2  S_2  
     e( 32 - 32) =      5.47046  eV     1   --> A_2  D_2  S_2  
     e( 33 - 33) =      5.69272  eV     1   --> B_2  D_4  S_4  
     e( 34 - 34) =      5.78230  eV     1   --> B_1  D_3  S_3  
     e( 35 - 35) =      5.95510  eV     1   --> A_1  D_1  S_1  
     e( 36 - 36) =      6.11516  eV     1   --> B_2  D_4  S_4  
     e( 37 - 37) =      6.40402  eV     1   --> B_1  D_3  S_3  
     e( 38 - 38) =      6.99141  eV     1   --> B_1  D_3  S_3  
     e( 39 - 39) =      7.12010  eV     1   --> A_1  D_1  S_1  
     e( 40 - 40) =      7.54551  eV     1   --> A_1  D_1  S_1  
     e( 41 - 41) =      8.49473  eV     1   --> A_1  D_1  S_1  
     e( 42 - 42) =      9.05554  eV     1   --> A_1  D_1  S_1  
     e( 43 - 43) =      9.11485  eV     1   --> B_1  D_3  S_3  
     e( 44 - 44) =      9.41592  eV     1   --> B_2  D_4  S_4  
     e( 45 - 45) =      9.77103  eV     1   --> B_1  D_3  S_3  
     e( 46 - 46) =     10.08655  eV     1   --> A_2  D_2  S_2  
     e( 47 - 47) =     10.42293  eV     1   --> B_1  D_3  S_3  
     e( 48 - 48) =     10.89051  eV     1   --> B_2  D_4  S_4  
     e( 49 - 49) =     11.24456  eV     1   --> A_1  D_1  S_1  
     e( 50 - 50) =     11.60568  eV     1   --> A_2  D_2  S_2  

 **************************************************************************

 **************************************************************************

                    xk=(   0.36667,   0.00000,   0.00000  )

     Band symmetry, C_2v (mm2)  point group:

[...]
     e( 36 - 36) =      5.81375  eV     1   --> A_1  D_1  S_1  
     e( 37 - 37) =      6.06029  eV     1   --> A_1  D_1  S_1  
     e( 38 - 38) =      6.65501  eV     1   --> B_1  D_3  S_3  
     e( 39 - 39) =      6.85943  eV     1   --> A_2  D_2  S_2  
     e( 40 - 40) =      7.11981  eV     1   --> B_2  D_4  S_4  
     e( 41 - 41) =      8.42859  eV     1   --> A_2  D_2  S_2  
     e( 42 - 42) =     10.25481  eV     1   --> B_1  D_3  S_3  
     e( 43 - 43) =     10.32495  eV     1   --> A_1  D_1  S_1  
     e( 44 - 44) =     10.62408  eV     1   --> B_2  D_4  S_4  
     e( 45 - 45) =     10.66840  eV     1   --> A_2  D_2  S_2  
     e( 46 - 46) =     10.90050  eV     1   --> B_1  D_3  S_3  
     e( 47 - 47) =     11.44987  eV     1   --> B_2  D_4  S_4  
     e( 48 - 48) =     11.78248  eV     1   --> B_2  D_4  S_4  
     e( 49 - 49) =     11.79823  eV     1   --> A_1  D_1  S_1  
     e( 50 - 50) =     12.41563  eV     1   --> B_1  D_3  S_3  

 **************************************************************************

 **************************************************************************

                    xk=(   0.00000,   0.07281,   0.00000  )

     Band symmetry, C_2v (mm2)  point group:

     e(  1 -  1) =    -13.75807  eV     1   --> B_2  D_4  S_4  
     e(  2 -  2) =    -13.74735  eV     1   --> A_2  D_2  S_2  
     e(  3 -  3) =    -13.74499  eV     1   --> B_1  D_3  S_3  
     e(  4 -  4) =    -13.74118  eV     1   --> A_1  D_1  S_1  
     e(  5 -  5) =    -13.74061  eV     1   --> A_1  D_1  S_1  
     e(  6 -  6) =    -13.73813  eV     1   --> A_2  D_2  S_2  
     e(  7 -  7) =    -13.73493  eV     1   --> B_1  D_3  S_3  
     e(  8 -  8) =    -13.73345  eV     1   --> B_2  D_4  S_4  
     e(  9 -  9) =    -13.72674  eV     1   --> B_2  D_4  S_4  
     e( 10 - 10) =    -13.72310  eV     1   --> A_2  D_2  S_2  
     e( 11 - 11) =    -13.72217  eV     1   --> B_1  D_3  S_3  
     e( 12 - 12) =    -13.72114  eV     1   --> B_2  D_4  S_4  
     e( 13 - 13) =    -13.71122  eV     1   --> B_1  D_3  S_3  
     e( 14 - 14) =    -13.70817  eV     1   --> A_1  D_1  S_1  
     e( 15 - 15) =    -13.69130  eV     1   --> B_2  D_4  S_4  
     e( 16 - 16) =    -13.68814  eV     1   --> A_2  D_2  S_2  
     e( 17 - 17) =    -13.68410  eV     1   --> B_1  D_3  S_3  
     e( 18 - 18) =    -13.68207  eV     1   --> A_1  D_1  S_1  
     e( 19 - 19) =    -13.67466  eV     1   --> A_2  D_2  S_2  
     e( 20 - 20) =    -13.66829  eV     1   --> A_1  D_1  S_1  
     e( 21 - 21) =     -6.00900  eV     1   --> A_1  D_1  S_1  
     e( 22 - 22) =     -5.67878  eV     1   --> B_1  D_3  S_3  
     e( 23 - 23) =     -5.06105  eV     1   --> A_2  D_2  S_2  
     e( 24 - 24) =     -4.61374  eV     1   --> B_2  D_4  S_4  
     e( 25 - 25) =      0.38411  eV     1   --> A_2  D_2  S_2  
     e( 26 - 26) =      1.40769  eV     1   --> B_2  D_4  S_4  
     e( 27 - 27) =      1.95329  eV     1   --> A_1  D_1  S_1  
     e( 28 - 28) =      2.46215  eV     1   --> B_1  D_3  S_3  
     e( 29 - 29) =      2.92441  eV     1   --> A_1  D_1  S_1  
     e( 30 - 30) =      4.31439  eV     1   --> B_2  D_4  S_4  
     e( 31 - 31) =      4.37210  eV     1   --> A_2  D_2  S_2  
     e( 32 - 32) =      4.56479  eV     1   --> B_2  D_4  S_4  
     e( 33 - 33) =      4.72137  eV     1   --> B_1  D_3  S_3  
     e( 34 - 34) =      4.87935  eV     1   --> A_2  D_2  S_2  
     e( 35 - 35) =      5.49600  eV     1   --> B_1  D_3  S_3  
     e( 36 - 36) =      5.80588  eV     1   --> A_1  D_1  S_1  
     e( 37 - 37) =      6.07503  eV     1   --> A_1  D_1  S_1  
     e( 38 - 38) =      6.61984  eV     1   --> B_1  D_3  S_3  
     e( 39 - 39) =      6.85604  eV     1   --> A_2  D_2  S_2  
     e( 40 - 40) =      7.13009  eV     1   --> B_2  D_4  S_4  
     e( 41 - 41) =      8.40902  eV     1   --> A_2  D_2  S_2  
     e( 42 - 42) =     10.30414  eV     1   --> A_1  D_1  S_1  
     e( 43 - 43) =     10.39634  eV     1   --> B_1  D_3  S_3  
     e( 44 - 44) =     10.58863  eV     1   --> B_2  D_4  S_4  
     e( 45 - 45) =     10.61952  eV     1   --> A_2  D_2  S_2  
     e( 46 - 46) =     10.92359  eV     1   --> B_1  D_3  S_3  
     e( 47 - 47) =     11.46634  eV     1   --> B_2  D_4  S_4  
     e( 48 - 48) =     11.84928  eV     1   --> B_2  D_4  S_4  
     e( 49 - 49) =     11.89752  eV     1   --> A_1  D_1  S_1  
     e( 50 - 50) =     12.39183  eV     1   --> B_1  D_3  S_3  

 **************************************************************************

 **************************************************************************

                    xk=(   0.00000,   0.05460,   0.00000  )

     Band symmetry, C_2v (mm2)  point group:

     e(  1 -  1) =    -13.75848  eV     1   --> B_2  D_4  S_4  
     e(  2 -  2) =    -13.74755  eV     1   --> A_2  D_2  S_2  
     e(  3 -  3) =    -13.74536  eV     1   --> B_1  D_3  S_3  
     e(  4 -  4) =    -13.74129  eV     1   --> A_1  D_1  S_1  
     e(  5 -  5) =    -13.74054  eV     1   --> A_1  D_1  S_1  
     e(  6 -  6) =    -13.73793  eV     1   --> A_2  D_2  S_2  
     e(  7 -  7) =    -13.73467  eV     1   --> B_1  D_3  S_3  
     e(  8 -  8) =    -13.73333  eV     1   --> B_2  D_4  S_4  
     e(  9 -  9) =    -13.72651  eV     1   --> B_2  D_4  S_4  
     e( 10 - 10) =    -13.72319  eV     1   --> A_2  D_2  S_2  
     e( 11 - 11) =    -13.72191  eV     1   --> B_1  D_3  S_3  
     e( 12 - 12) =    -13.72141  eV     1   --> B_2  D_4  S_4  
     e( 13 - 13) =    -13.71146  eV     1   --> B_1  D_3  S_3  
     e( 14 - 14) =    -13.70811  eV     1   --> A_1  D_1  S_1  
     e( 15 - 15) =    -13.69150  eV     1   --> B_2  D_4  S_4  
     e( 16 - 16) =    -13.68803  eV     1   --> A_2  D_2  S_2  
     e( 17 - 17) =    -13.68423  eV     1   --> B_1  D_3  S_3  
     e( 18 - 18) =    -13.68183  eV     1   --> A_1  D_1  S_1  
     e( 19 - 19) =    -13.67469  eV     1   --> A_2  D_2  S_2  
     e( 20 - 20) =    -13.66818  eV     1   --> A_1  D_1  S_1  
     e( 21 - 21) =     -6.01932  eV     1   --> A_1  D_1  S_1  
     e( 22 - 22) =     -5.68758  eV     1   --> B_1  D_3  S_3  
     e( 23 - 23) =     -5.06626  eV     1   --> A_2  D_2  S_2  
     e( 24 - 24) =     -4.61456  eV     1   --> B_2  D_4  S_4  
     e( 25 - 25) =      0.39632  eV     1   --> A_2  D_2  S_2  
     e( 26 - 26) =      1.43380  eV     1   --> B_2  D_4  S_4  
     e( 27 - 27) =      1.96237  eV     1   --> A_1  D_1  S_1  
     e( 28 - 28) =      2.51641  eV     1   --> B_1  D_3  S_3  
     e( 29 - 29) =      2.92371  eV     1   --> A_1  D_1  S_1  
     e( 30 - 30) =      4.33620  eV     1   --> B_2  D_4  S_4  
     e( 31 - 31) =      4.35901  eV     1   --> A_2  D_2  S_2  
     e( 32 - 32) =      4.52735  eV     1   --> B_2  D_4  S_4  
     e( 33 - 33) =      4.71076  eV     1   --> B_1  D_3  S_3  
     e( 34 - 34) =      4.89135  eV     1   --> A_2  D_2  S_2  
     e( 35 - 35) =      5.47363  eV     1   --> B_1  D_3  S_3  
     e( 36 - 36) =      5.79970  eV     1   --> A_1  D_1  S_1  
     e( 37 - 37) =      6.08762  eV     1   --> A_1  D_1  S_1  
     e( 38 - 38) =      6.59200  eV     1   --> B_1  D_3  S_3  
     e( 39 - 39) =      6.85320  eV     1   --> A_2  D_2  S_2  
     e( 40 - 40) =      7.13744  eV     1   --> B_2  D_4  S_4  
     e( 41 - 41) =      8.39330  eV     1   --> A_2  D_2  S_2  
     e( 42 - 42) =     10.28348  eV     1   --> A_1  D_1  S_1  
     e( 43 - 43) =     10.51753  eV     1   --> B_1  D_3  S_3  
     e( 44 - 44) =     10.55772  eV     1   --> B_2  D_4  S_4  
     e( 45 - 45) =     10.57829  eV     1   --> A_2  D_2  S_2  
     e( 46 - 46) =     10.93959  eV     1   --> B_1  D_3  S_3  
     e( 47 - 47) =     11.47283  eV     1   --> B_2  D_4  S_4  
     e( 48 - 48) =     11.91781  eV     1   --> B_2  D_4  S_4  
     e( 49 - 49) =     11.98667  eV     1   --> A_1  D_1  S_1  
     e( 50 - 50) =     12.36545  eV     1   --> B_1  D_3  S_3  

 **************************************************************************

 **************************************************************************

                    xk=(   0.00000,   0.03640,   0.00000  )

     Band symmetry, C_2v (mm2)  point group:

     e(  1 -  1) =    -13.75878  eV     1   --> B_2  D_4  S_4  
     e(  2 -  2) =    -13.74769  eV     1   --> A_2  D_2  S_2  
     e(  3 -  3) =    -13.74563  eV     1   --> B_1  D_3  S_3  
     e(  4 -  4) =    -13.74141  eV     1   --> A_1  D_1  S_1  
     e(  5 -  5) =    -13.74046  eV     1   --> A_1  D_1  S_1  
     e(  6 -  6) =    -13.73778  eV     1   --> A_2  D_2  S_2  
     e(  7 -  7) =    -13.73447  eV     1   --> B_1  D_3  S_3  
     e(  8 -  8) =    -13.73324  eV     1   --> B_2  D_4  S_4  
     e(  9 -  9) =    -13.72633  eV     1   --> B_2  D_4  S_4  
     e( 10 - 10) =    -13.72327  eV     1   --> A_2  D_2  S_2  
     e( 11 - 12) =    -13.72171  eV     2   --> B_1  D_3  S_3  
     e( 11 - 12) =    -13.72171  eV     2   --> B_2  D_4  S_4  
     e( 13 - 13) =    -13.71164  eV     1   --> B_1  D_3  S_3  
     e( 14 - 14) =    -13.70807  eV     1   --> A_1  D_1  S_1  
     e( 15 - 15) =    -13.69164  eV     1   --> B_2  D_4  S_4  
     e( 16 - 16) =    -13.68792  eV     1   --> A_2  D_2  S_2  
     e( 17 - 17) =    -13.68433  eV     1   --> B_1  D_3  S_3  
     e( 18 - 18) =    -13.68165  eV     1   --> A_1  D_1  S_1  
     e( 19 - 19) =    -13.67470  eV     1   --> A_2  D_2  S_2  
     e( 20 - 20) =    -13.66812  eV     1   --> A_1  D_1  S_1  
     e( 21 - 21) =     -6.02671  eV     1   --> A_1  D_1  S_1  
     e( 22 - 22) =     -5.69389  eV     1   --> B_1  D_3  S_3  
     e( 23 - 23) =     -5.07003  eV     1   --> A_2  D_2  S_2  
     e( 24 - 24) =     -4.61521  eV     1   --> B_2  D_4  S_4  
     e( 25 - 25) =      0.40511  eV     1   --> A_2  D_2  S_2  
     e( 26 - 26) =      1.45278  eV     1   --> B_2  D_4  S_4  
     e( 27 - 27) =      1.96849  eV     1   --> A_1  D_1  S_1  
     e( 28 - 28) =      2.55632  eV     1   --> B_1  D_3  S_3  
     e( 29 - 29) =      2.92362  eV     1   --> A_1  D_1  S_1  
     e( 30 - 30) =      4.34965  eV     1   --> A_2  D_2  S_2  
     e( 31 - 31) =      4.36165  eV     1   --> B_2  D_4  S_4  
     e( 32 - 32) =      4.49080  eV     1   --> B_2  D_4  S_4  
     e( 33 - 33) =      4.70321  eV     1   --> B_1  D_3  S_3  
     e( 34 - 34) =      4.90057  eV     1   --> A_2  D_2  S_2  
     e( 35 - 35) =      5.45677  eV     1   --> B_1  D_3  S_3  
     e( 36 - 36) =      5.79525  eV     1   --> A_1  D_1  S_1  
     e( 37 - 37) =      6.09726  eV     1   --> A_1  D_1  S_1  
     e( 38 - 38) =      6.57188  eV     1   --> B_1  D_3  S_3  
     e( 39 - 39) =      6.85105  eV     1   --> A_2  D_2  S_2  
     e( 40 - 40) =      7.14229  eV     1   --> B_2  D_4  S_4  
     e( 41 - 41) =      8.38179  eV     1   --> A_2  D_2  S_2  
     e( 42 - 42) =     10.26631  eV     1   --> A_1  D_1  S_1  
     e( 43 - 43) =     10.53413  eV     1   --> B_2  D_4  S_4  
     e( 44 - 44) =     10.54719  eV     1   --> A_2  D_2  S_2  
     e( 45 - 45) =     10.61158  eV     1   --> B_1  D_3  S_3  
     e( 46 - 46) =     10.95016  eV     1   --> B_1  D_3  S_3  
     e( 47 - 47) =     11.47487  eV     1   --> B_2  D_4  S_4  
     e( 48 - 48) =     11.97558  eV     1   --> B_2  D_4  S_4  
     e( 49 - 49) =     12.05881  eV     1   --> A_1  D_1  S_1  
     e( 50 - 50) =     12.34040  eV     1   --> B_1  D_3  S_3  

 **************************************************************************

 **************************************************************************

                    xk=(   0.00000,   0.01820,   0.00000  )

     Band symmetry, C_2v (mm2)  point group:

     e(  1 -  1) =    -13.75897  eV     1   --> B_2  D_4  S_4  
     e(  2 -  2) =    -13.74777  eV     1   --> A_2  D_2  S_2  
     e(  3 -  3) =    -13.74579  eV     1   --> B_1  D_3  S_3  
     e(  4 -  4) =    -13.74149  eV     1   --> A_1  D_1  S_1  
     e(  5 -  5) =    -13.74039  eV     1   --> A_1  D_1  S_1  
     e(  6 -  6) =    -13.73768  eV     1   --> A_2  D_2  S_2  
     e(  7 -  7) =    -13.73434  eV     1   --> B_1  D_3  S_3  
     e(  8 -  8) =    -13.73319  eV     1   --> B_2  D_4  S_4  
     e(  9 -  9) =    -13.72621  eV     1   --> B_2  D_4  S_4  
     e( 10 - 10) =    -13.72332  eV     1   --> A_2  D_2  S_2  
     e( 11 - 11) =    -13.72175  eV     1   --> B_2  D_4  S_4  
     e( 12 - 12) =    -13.72159  eV     1   --> B_1  D_3  S_3  
     e( 13 - 13) =    -13.71176  eV     1   --> B_1  D_3  S_3  
     e( 14 - 14) =    -13.70805  eV     1   --> A_1  D_1  S_1  
     e( 15 - 15) =    -13.69173  eV     1   --> B_2  D_4  S_4  
     e( 16 - 16) =    -13.68787  eV     1   --> A_2  D_2  S_2  
     e( 17 - 17) =    -13.68439  eV     1   --> B_1  D_3  S_3  
     e( 18 - 18) =    -13.68155  eV     1   --> A_1  D_1  S_1  
     e( 19 - 19) =    -13.67472  eV     1   --> A_2  D_2  S_2  
     e( 20 - 20) =    -13.66808  eV     1   --> A_1  D_1  S_1  
     e( 21 - 21) =     -6.03116  eV     1   --> A_1  D_1  S_1  
     e( 22 - 22) =     -5.69769  eV     1   --> B_1  D_3  S_3  
     e( 23 - 23) =     -5.07232  eV     1   --> A_2  D_2  S_2  
     e( 24 - 24) =     -4.61561  eV     1   --> B_2  D_4  S_4  
     e( 25 - 25) =      0.41040  eV     1   --> A_2  D_2  S_2  
     e( 26 - 26) =      1.46431  eV     1   --> B_2  D_4  S_4  
     e( 27 - 27) =      1.97201  eV     1   --> A_1  D_1  S_1  
     e( 28 - 28) =      2.58077  eV     1   --> B_1  D_3  S_3  
     e( 29 - 29) =      2.92373  eV     1   --> A_1  D_1  S_1  
     e( 30 - 30) =      4.34402  eV     1   --> A_2  D_2  S_2  
     e( 31 - 31) =      4.39025  eV     1   --> B_2  D_4  S_4  
     e( 32 - 32) =      4.45558  eV     1   --> B_2  D_4  S_4  
     e( 33 - 33) =      4.69869  eV     1   --> B_1  D_3  S_3  
     e( 34 - 34) =      4.90636  eV     1   --> A_2  D_2  S_2  
     e( 35 - 35) =      5.44627  eV     1   --> B_1  D_3  S_3  
     e( 36 - 36) =      5.79256  eV     1   --> A_1  D_1  S_1  
     e( 37 - 37) =      6.10331  eV     1   --> A_1  D_1  S_1  
     e( 38 - 38) =      6.55970  eV     1   --> B_1  D_3  S_3  
     e( 39 - 39) =      6.84971  eV     1   --> A_2  D_2  S_2  
     e( 40 - 40) =      7.14503  eV     1   --> B_2  D_4  S_4  
     e( 41 - 41) =      8.37475  eV     1   --> A_2  D_2  S_2  
     e( 42 - 42) =     10.25505  eV     1   --> A_1  D_1  S_1  
     e( 43 - 43) =     10.51944  eV     1   --> B_2  D_4  S_4  
     e( 44 - 44) =     10.52790  eV     1   --> A_2  D_2  S_2  
     e( 45 - 45) =     10.67153  eV     1   --> B_1  D_3  S_3  
     e( 46 - 46) =     10.95637  eV     1   --> B_1  D_3  S_3  
     e( 47 - 47) =     11.47529  eV     1   --> B_2  D_4  S_4  
     e( 48 - 48) =     12.01387  eV     1   --> B_2  D_4  S_4  
     e( 49 - 49) =     12.10648  eV     1   --> A_1  D_1  S_1  
     e( 50 - 50) =     12.32199  eV     1   --> B_1  D_3  S_3  

 **************************************************************************

 **************************************************************************

                    xk=(   0.00000,   0.00000,   0.00000  )

     point group D_2h (mmm) 
     there are  8 classes
     the character table:

       E     C2    C2'   C2''  i     s_v   s_v'  s_v''
A_g    1.00  1.00  1.00  1.00  1.00  1.00  1.00  1.00
B_1g   1.00  1.00 -1.00 -1.00  1.00  1.00 -1.00 -1.00
B_2g   1.00 -1.00  1.00 -1.00  1.00 -1.00  1.00 -1.00
B_3g   1.00 -1.00 -1.00  1.00  1.00 -1.00 -1.00  1.00
A_u    1.00  1.00  1.00  1.00 -1.00 -1.00 -1.00 -1.00
B_1u   1.00  1.00 -1.00 -1.00 -1.00 -1.00  1.00  1.00
B_2u   1.00 -1.00  1.00 -1.00 -1.00  1.00 -1.00  1.00
B_3u   1.00 -1.00 -1.00  1.00 -1.00  1.00  1.00 -1.00

     the symmetry operations in each class and the name of the first element:

     E        1
                                                                 
     C2       2
                                                                 
     C2'      4
                                                                 
     C2''     3
                                                                 
     i        5
                                                                 
     s_v      6
                                                                 
     s_v'     8
                                                                 
     s_v''    7
                                                                 

     Band symmetry, D_2h (mmm)  point group:

     e(  1 -  1) =    -13.75903  eV     1   --> B_1u           
     e(  2 -  2) =    -13.74780  eV     1   --> B_3g           
     e(  3 -  3) =    -13.74584  eV     1   --> B_2u           
     e(  4 -  4) =    -13.74151  eV     1   --> A_g            
     e(  5 -  5) =    -13.74037  eV     1   --> B_3u           
     e(  6 -  6) =    -13.73766  eV     1   --> A_u            
     e(  7 -  7) =    -13.73432  eV     1   --> B_1g           
     e(  8 -  8) =    -13.73316  eV     1   --> B_2g           
     e(  9 -  9) =    -13.72616  eV     1   --> B_2g           
     e( 10 - 10) =    -13.72334  eV     1   --> B_3g           
     e( 11 - 11) =    -13.72182  eV     1   --> B_1u           
     e( 12 - 12) =    -13.72156  eV     1   --> B_1g           
     e( 13 - 13) =    -13.71179  eV     1   --> B_2u           
     e( 14 - 14) =    -13.70805  eV     1   --> A_g            
     e( 15 - 15) =    -13.69176  eV     1   --> B_1u           
     e( 16 - 16) =    -13.68785  eV     1   --> B_3g           
     e( 17 - 17) =    -13.68441  eV     1   --> B_2u           
     e( 18 - 18) =    -13.68151  eV     1   --> A_g            
     e( 19 - 19) =    -13.67473  eV     1   --> A_u            
     e( 20 - 20) =    -13.66806  eV     1   --> B_3u           
     e( 21 - 21) =     -6.03264  eV     1   --> A_g            
     e( 22 - 22) =     -5.69896  eV     1   --> B_2u           
     e( 23 - 23) =     -5.07308  eV     1   --> B_3g           
     e( 24 - 24) =     -4.61575  eV     1   --> B_1u           
     e( 25 - 25) =      0.41217  eV     1   --> B_3g           
     e( 26 - 26) =      1.46817  eV     1   --> B_1u           
     e( 27 - 27) =      1.97315  eV     1   --> A_g            
     e( 28 - 28) =      2.58900  eV     1   --> B_2u           
     e( 29 - 29) =      2.92380  eV     1   --> A_g            
     e( 30 - 30) =      4.34214  eV     1   --> B_3g           
     e( 31 - 31) =      4.41839  eV     1   --> B_2g           
     e( 32 - 32) =      4.42524  eV     1   --> B_1u           
     e( 33 - 33) =      4.69718  eV     1   --> B_2u           
     e( 34 - 34) =      4.90833  eV     1   --> A_u            
     e( 35 - 35) =      5.44270  eV     1   --> B_1g           
     e( 36 - 36) =      5.79167  eV     1   --> A_g            
     e( 37 - 37) =      6.10538  eV     1   --> B_3u           
     e( 38 - 38) =      6.55562  eV     1   --> B_2u           
     e( 39 - 39) =      6.84926  eV     1   --> B_3g           
     e( 40 - 40) =      7.14591  eV     1   --> B_1u           
     e( 41 - 41) =      8.37238  eV     1   --> B_3g           
     e( 42 - 42) =     10.25114  eV     1   --> A_g            
     e( 43 - 43) =     10.51446  eV     1   --> B_1u           
     e( 44 - 44) =     10.52137  eV     1   --> B_3g           
     e( 45 - 45) =     10.69215  eV     1   --> B_2u           
     e( 46 - 46) =     10.95847  eV     1   --> B_1g           
     e( 47 - 47) =     11.47532  eV     1   --> B_1u           
     e( 48 - 48) =     12.02726  eV     1   --> B_2g           
     e( 49 - 49) =     12.12325  eV     1   --> B_3u           
     e( 50 - 50) =     12.31517  eV     1   --> B_2u           

 **************************************************************************

     BANDS        :   3m28.77s CPU   2m58.87s WALL


   This run was terminated on:  13:22: 9  23May2026            

=------------------------------------------------------------------------------=
   JOB DONE.
=------------------------------------------------------------------------------=
