
     Program BANDS v.6.7MaX starts on 21May2026 at 21:58:52 

     This program is part of the open-source Quantum ESPRESSO suite
     for quantum simulation of materials; please cite
         "P. Giannozzi et al., J. Phys.:Condens. Matter 21 395502 (2009);
         "P. Giannozzi et al., J. Phys.:Condens. Matter 29 465901 (2017);
          URL http://www.quantum-espresso.org", 
     in publications or presentations arising from this work. More details at
     http://www.quantum-espresso.org/quote

     Parallel version (MPI), running on     1 processors

     MPI processes distributed on     1 nodes

     Reading xml data from directory:

     ./tmp/SnSe_pnma.save/

     IMPORTANT: XC functional enforced from input :
     Exchange-correlation= PBE
                           (   1   4   3   4   0   0   0)
     Any further DFT definition will be discarded
     Please, verify this is what you really want


     G-vector sticks info
     --------------------
     sticks:   dense  smooth     PW     G-vecs:    dense   smooth      PW
     Sum        4103    1639    499               130013    32833    5523

     Reading collected, re-writing distributed wavefunctions
     high-symmetry point:  0.0000 0.0000 0.0000   x coordinate   0.0000
     high-symmetry point:  0.0000 0.0000 1.2676   x coordinate   1.2676
     high-symmetry point:  0.0000 1.3844 1.2676   x coordinate   2.6520
     high-symmetry point:  0.0000 1.3844 0.0000   x coordinate   3.9196
     high-symmetry point:  0.0000 0.0000 0.0000   x coordinate   5.3040
     high-symmetry point:  0.5000 0.0000 0.0000   x coordinate   5.8040
     high-symmetry point:  0.5000 0.0000 1.2676   x coordinate   7.0716
     high-symmetry point:  0.5000 1.3844 1.2676   x coordinate   8.4560
     high-symmetry point:  0.5000 1.3844 0.0000   x coordinate   9.7236
     high-symmetry point:  0.5000 0.0000 0.0000   x coordinate  11.1080

     Plottable bands (eV) written to file SnSe_pnma.bands.dat.gnu
     Bands written to file SnSe_pnma.bands.dat

 **************************************************************************

                    xk=(   0.00000,   0.00000,   0.00000  )

     point group D_2h (mmm) 
     there are  8 classes
     the character table:

       E     C2    C2'   C2''  i     s_v   s_v'  s_v''
A_g    1.00  1.00  1.00  1.00  1.00  1.00  1.00  1.00
B_1g   1.00  1.00 -1.00 -1.00  1.00  1.00 -1.00 -1.00
B_2g   1.00 -1.00  1.00 -1.00  1.00 -1.00  1.00 -1.00
B_3g   1.00 -1.00 -1.00  1.00  1.00 -1.00 -1.00  1.00
A_u    1.00  1.00  1.00  1.00 -1.00 -1.00 -1.00 -1.00
B_1u   1.00  1.00 -1.00 -1.00 -1.00 -1.00  1.00  1.00
B_2u   1.00 -1.00  1.00 -1.00 -1.00  1.00 -1.00  1.00
B_3u   1.00 -1.00 -1.00  1.00 -1.00  1.00  1.00 -1.00

     the symmetry operations in each class and the name of the first element:

     E        1
                                                                 
     C2       2
                                                                 
     C2'      4
                                                                 
     C2''     3
                                                                 
     i        5
                                                                 
     s_v      6
                                                                 
     s_v'     8
                                                                 
     s_v''    7
                                                                 

     Band symmetry, D_2h (mmm)  point group:

     e(  1 -  1) =    -13.75902  eV     1   --> B_2u           
     e(  2 -  2) =    -13.74779  eV     1   --> B_3g           
     e(  3 -  3) =    -13.74583  eV     1   --> B_1u           
     e(  4 -  4) =    -13.74150  eV     1   --> A_g            
     e(  5 -  5) =    -13.74036  eV     1   --> B_3u           
     e(  6 -  6) =    -13.73766  eV     1   --> A_u            
     e(  7 -  7) =    -13.73431  eV     1   --> B_2g           
     e(  8 -  8) =    -13.73316  eV     1   --> B_1g           
     e(  9 -  9) =    -13.72615  eV     1   --> B_1g           
     e( 10 - 10) =    -13.72333  eV     1   --> B_3g           
     e( 11 - 11) =    -13.72182  eV     1   --> B_2u           
     e( 12 - 12) =    -13.72156  eV     1   --> B_2g           
     e( 13 - 13) =    -13.71178  eV     1   --> B_1u           
     e( 14 - 14) =    -13.70804  eV     1   --> A_g            
     e( 15 - 15) =    -13.69175  eV     1   --> B_2u           
     e( 16 - 16) =    -13.68784  eV     1   --> B_3g           
     e( 17 - 17) =    -13.68441  eV     1   --> B_1u           
     e( 18 - 18) =    -13.68150  eV     1   --> A_g            
     e( 19 - 19) =    -13.67473  eV     1   --> A_u            
     e( 20 - 20) =    -13.66806  eV     1   --> B_3u           
     e( 21 - 21) =     -6.03264  eV     1   --> A_g            
     e( 22 - 22) =     -5.69896  eV     1   --> B_1u           
     e( 23 - 23) =     -5.07308  eV     1   --> B_3g           
     e( 24 - 24) =     -4.61575  eV     1   --> B_2u           
     e( 25 - 25) =      0.41217  eV     1   --> B_3g           
     e( 26 - 26) =      1.46817  eV     1   --> B_2u           
     e( 27 - 27) =      1.97315  eV     1   --> A_g            
     e( 28 - 28) =      2.58901  eV     1   --> B_1u           
     e( 29 - 29) =      2.92380  eV     1   --> A_g            
     e( 30 - 30) =      4.34214  eV     1   --> B_3g           
     e( 31 - 31) =      4.41839  eV     1   --> B_1g           
     e( 32 - 32) =      4.42524  eV     1   --> B_2u           
     e( 33 - 33) =      4.69718  eV     1   --> B_1u           
     e( 34 - 34) =      4.90834  eV     1   --> A_u            
     e( 35 - 35) =      5.44271  eV     1   --> B_2g           
     e( 36 - 36) =      5.79167  eV     1   --> A_g            
     e( 37 - 37) =      6.10538  eV     1   --> B_3u           
     e( 38 - 38) =      6.55563  eV     1   --> B_1u           
     e( 39 - 39) =      6.84926  eV     1   --> B_3g           
     e( 40 - 40) =      7.14591  eV     1   --> B_2u           
     e( 41 - 41) =      8.37238  eV     1   --> B_3g           
     e( 42 - 42) =     10.25114  eV     1   --> A_g            
     e( 43 - 43) =     10.51446  eV     1   --> B_2u           
     e( 44 - 44) =     10.52137  eV     1   --> B_3g           
     e( 45 - 45) =     10.69215  eV     1   --> B_1u           
     e( 46 - 46) =     10.95847  eV     1   --> B_2g           
     e( 47 - 47) =     11.47532  eV     1   --> B_2u           
     e( 48 - 48) =     12.02726  eV     1   --> B_1g           
     e( 49 - 49) =     12.12325  eV     1   --> B_3u           
     e( 50 - 50) =     12.31517  eV     1   --> B_1u           

 **************************************************************************

 **************************************************************************

                    xk=(   0.00000,   0.00000,   0.04225  )

     point group C_2v (mm2) 
     there are  4 classes
     the character table:

       E     C2    s_v   s_v' 
A_1    1.00  1.00  1.00  1.00
A_2    1.00  1.00 -1.00 -1.00
B_1    1.00 -1.00  1.00 -1.00
B_2    1.00 -1.00 -1.00  1.00

     the symmetry operations in each class and the name of the first element:

     E        1
                                                                 
     C2       2
                                                                 
     s_v      4
                                                                 
     s_v'     3
                                                                 

     Band symmetry, C_2v (mm2)  point group:

     e(  1 -  1) =    -13.75901  eV     1   --> B_2  D_4  S_4  
     e(  2 -  2) =    -13.74779  eV     1   --> B_2  D_4  S_4  
     e(  3 -  3) =    -13.74584  eV     1   --> A_1  D_1  S_1  
     e(  4 -  4) =    -13.74150  eV     1   --> A_1  D_1  S_1  
     e(  5 -  5) =    -13.74038  eV     1   --> B_1  D_3  S_3  
     e(  6 -  6) =    -13.73766  eV     1   --> A_2  D_2  S_2  
     e(  7 -  7) =    -13.73431  eV     1   --> B_1  D_3  S_3  
     e(  8 -  8) =    -13.73316  eV     1   --> A_2  D_2  S_2  
     e(  9 -  9) =    -13.72616  eV     1   --> A_2  D_2  S_2  
     e( 10 - 10) =    -13.72332  eV     1   --> B_2  D_4  S_4  
     e( 11 - 11) =    -13.72176  eV     1   --> B_2  D_4  S_4  
     e( 12 - 12) =    -13.72156  eV     1   --> B_1  D_3  S_3  
     e( 13 - 13) =    -13.71178  eV     1   --> A_1  D_1  S_1  
     e( 14 - 14) =    -13.70804  eV     1   --> A_1  D_1  S_1  
     e( 15 - 15) =    -13.69176  eV     1   --> B_2  D_4  S_4  
     e( 16 - 16) =    -13.68783  eV     1   --> B_2  D_4  S_4  
     e( 17 - 17) =    -13.68442  eV     1   --> A_1  D_1  S_1  
     e( 18 - 18) =    -13.68151  eV     1   --> A_1  D_1  S_1  
     e( 19 - 19) =    -13.67472  eV     1   --> A_2  D_2  S_2  
     e( 20 - 20) =    -13.66806  eV     1   --> B_1  D_3  S_3  
     e( 21 - 21) =     -6.03157  eV     1   --> A_1  D_1  S_1  
     e( 22 - 22) =     -5.69798  eV     1   --> A_1  D_1  S_1  
     e( 23 - 23) =     -5.07294  eV     1   --> B_2  D_4  S_4  
     e( 24 - 24) =     -4.61602  eV     1   --> B_2  D_4  S_4  
     e( 25 - 25) =      0.40788  eV     1   --> B_2  D_4  S_4  
     e( 26 - 26) =      1.46619  eV     1   --> B_2  D_4  S_4  
     e( 27 - 27) =      1.96739  eV     1   --> A_1  D_1  S_1  
     e( 28 - 28) =      2.58203  eV     1   --> A_1  D_1  S_1  
     e( 29 - 29) =      2.92422  eV     1   --> A_1  D_1  S_1  
     e( 30 - 30) =      4.33501  eV     1   --> B_2  D_4  S_4  
     e( 31 - 31) =      4.42003  eV     1   --> A_2  D_2  S_2  
     e( 32 - 32) =      4.44006  eV     1   --> B_2  D_4  S_4  
     e( 33 - 33) =      4.70651  eV     1   --> A_1  D_1  S_1  
     e( 34 - 34) =      4.90979  eV     1   --> A_2  D_2  S_2  
     e( 35 - 35) =      5.44375  eV     1   --> B_1  D_3  S_3  
     e( 36 - 36) =      5.79360  eV     1   --> A_1  D_1  S_1  
     e( 37 - 37) =      6.10586  eV     1   --> B_1  D_3  S_3  
     e( 38 - 38) =      6.56049  eV     1   --> A_1  D_1  S_1  
     e( 39 - 39) =      6.84559  eV     1   --> B_2  D_4  S_4  
     e( 40 - 40) =      7.14677  eV     1   --> B_2  D_4  S_4  
     e( 41 - 41) =      8.37247  eV     1   --> B_2  D_4  S_4  
     e( 42 - 42) =     10.23883  eV     1   --> A_1  D_1  S_1  
     e( 43 - 43) =     10.51234  eV     1   --> B_2  D_4  S_4  
     e( 44 - 44) =     10.52761  eV     1   --> B_2  D_4  S_4  
     e( 45 - 45) =     10.69365  eV     1   --> A_1  D_1  S_1  
     e( 46 - 46) =     10.95024  eV     1   --> B_1  D_3  S_3  
     e( 47 - 47) =     11.47893  eV     1   --> B_2  D_4  S_4  
     e( 48 - 48) =     12.01973  eV     1   --> A_2  D_2  S_2  
     e( 49 - 49) =     12.11753  eV     1   --> B_1  D_3  S_3  
     e( 50 - 50) =     12.30951  eV     1   --> A_1  D_1  S_1  

 **************************************************************************

 **************************************************************************

                    xk=(   0.00000,   0.00000,   0.08451  )

     Band symmetry, C_2v (mm2)  point group:

     e(  1 -  1) =    -13.75896  eV     1   --> B_2  D_4  S_4  
     e(  2 -  2) =    -13.74776  eV     1   --> B_2  D_4  S_4  
     e(  3 -  3) =    -13.74584  eV     1   --> A_1  D_1  S_1  
     e(  4 -  4) =    -13.74149  eV     1   --> A_1  D_1  S_1  
     e(  5 -  5) =    -13.74041  eV     1   --> B_1  D_3  S_3  
     e(  6 -  6) =    -13.73771  eV     1   --> A_2  D_2  S_2  
     e(  7 -  7) =    -13.73431  eV     1   --> B_1  D_3  S_3  
     e(  8 -  8) =    -13.73315  eV     1   --> A_2  D_2  S_2  
     e(  9 -  9) =    -13.72616  eV     1   --> A_2  D_2  S_2  
     e( 10 - 10) =    -13.72327  eV     1   --> B_2  D_4  S_4  
     e( 11 - 11) =    -13.72167  eV     1   --> B_2  D_4  S_4  
     e( 12 - 12) =    -13.72156  eV     1   --> B_1  D_3  S_3  
     e( 13 - 13) =    -13.71175  eV     1   --> A_1  D_1  S_1  
     e( 14 - 14) =    -13.70805  eV     1   --> A_1  D_1  S_1  
     e( 15 - 15) =    -13.69176  eV     1   --> B_2  D_4  S_4  
     e( 16 - 16) =    -13.68780  eV     1   --> B_2  D_4  S_4  
     e( 17 - 17) =    -13.68443  eV     1   --> A_1  D_1  S_1  
     e( 18 - 18) =    -13.68153  eV     1   --> A_1  D_1  S_1  
     e( 19 - 19) =    -13.67470  eV     1   --> A_2  D_2  S_2  
     e( 20 - 20) =    -13.66808  eV     1   --> B_1  D_3  S_3  
     e( 21 - 21) =     -6.02835  eV     1   --> A_1  D_1  S_1  
     e( 22 - 22) =     -5.69506  eV     1   --> A_1  D_1  S_1  
     e( 23 - 23) =     -5.07252  eV     1   --> B_2  D_4  S_4  
     e( 24 - 24) =     -4.61683  eV     1   --> B_2  D_4  S_4  
     e( 25 - 25) =      0.39516  eV     1   --> B_2  D_4  S_4  
     e( 26 - 26) =      1.46024  eV     1   --> B_2  D_4  S_4  
     e( 27 - 27) =      1.94992  eV     1   --> A_1  D_1  S_1  
     e( 28 - 28) =      2.56236  eV     1   --> A_1  D_1  S_1  
     e( 29 - 29) =      2.92500  eV     1   --> A_1  D_1  S_1  
     e( 30 - 30) =      4.32287  eV     1   --> B_2  D_4  S_4  
     e( 31 - 31) =      4.42495  eV     1   --> A_2  D_2  S_2  
     e( 32 - 32) =      4.47511  eV     1   --> B_2  D_4  S_4  
     e( 33 - 33) =      4.73396  eV     1   --> A_1  D_1  S_1  
     e( 34 - 34) =      4.91416  eV     1   --> A_2  D_2  S_2  
     e( 35 - 35) =      5.44688  eV     1   --> B_1  D_3  S_3  
     e( 36 - 36) =      5.79944  eV     1   --> A_1  D_1  S_1  
     e( 37 - 37) =      6.10727  eV     1   --> B_1  D_3  S_3  
     e( 38 - 38) =      6.57497  eV     1   --> A_1  D_1  S_1  
     e( 39 - 39) =      6.83473  eV     1   --> B_2  D_4  S_4  
     e( 40 - 40) =      7.14915  eV     1   --> B_2  D_4  S_4  
     e( 41 - 41) =      8.37289  eV     1   --> B_2  D_4  S_4  
     e( 42 - 42) =     10.20346  eV     1   --> A_1  D_1  S_1  
     e( 43 - 43) =     10.51109  eV     1   --> B_2  D_4  S_4  
     e( 44 - 44) =     10.54107  eV     1   --> B_2  D_4  S_4  
     e( 45 - 45) =     10.69640  eV     1   --> A_1  D_1  S_1  
     e( 46 - 46) =     10.92589  eV     1   --> B_1  D_3  S_3  
     e( 47 - 47) =     11.48959  eV     1   --> B_2  D_4  S_4  
     e( 48 - 48) =     11.99728  eV     1   --> A_2  D_2  S_2  
     e( 49 - 49) =     12.10042  eV     1   --> B_1  D_3  S_3  
     e( 50 - 50) =     12.29372  eV     1   --> A_1  D_1  S_1  

 **************************************************************************

 **************************************************************************

                    xk=(   0.00000,   0.00000,   0.12676  )

     Band symmetry, C_2v (mm2)  point group:

     e(  1 -  1) =    -13.75890  eV     1   --> B_2  D_4  S_4  
     e(  2 -  2) =    -13.74772  eV     1   --> B_2  D_4  S_4  
     e(  3 -  3) =    -13.74586  eV     1   --> A_1  D_1  S_1  
     e(  4 -  4) =    -13.74148  eV     1   --> A_1  D_1  S_1  
     e(  5 -  5) =    -13.74047  eV     1   --> B_1  D_3  S_3  
     e(  6 -  6) =    -13.73779  eV     1   --> A_2  D_2  S_2  
     e(  7 -  7) =    -13.73433  eV     1   --> B_1  D_3  S_3  
     e(  8 -  8) =    -13.73316  eV     1   --> A_2  D_2  S_2  
     e(  9 -  9) =    -13.72617  eV     1   --> A_2  D_2  S_2  
     e( 10 - 10) =    -13.72319  eV     1   --> B_2  D_4  S_4  
     e( 11 - 12) =    -13.72158  eV     2   --> B_1  D_3  S_3  
     e( 11 - 12) =    -13.72158  eV     2   --> B_2  D_4  S_4  
     e( 13 - 13) =    -13.71170  eV     1   --> A_1  D_1  S_1  
     e( 14 - 14) =    -13.70806  eV     1   --> A_1  D_1  S_1  
     e( 15 - 15) =    -13.69179  eV     1   --> B_2  D_4  S_4  
     e( 16 - 16) =    -13.68777  eV     1   --> B_2  D_4  S_4  
     e( 17 - 17) =    -13.68447  eV     1   --> A_1  D_1  S_1  
     e( 18 - 18) =    -13.68157  eV     1   --> A_1  D_1  S_1  
     e( 19 - 19) =    -13.67467  eV     1   --> A_2  D_2  S_2  
     e( 20 - 20) =    -13.66810  eV     1   --> B_1  D_3  S_3  
     e( 21 - 21) =     -6.02301  eV     1   --> A_1  D_1  S_1  
     e( 22 - 22) =     -5.69020  eV     1   --> A_1  D_1  S_1  
     e( 23 - 23) =     -5.07186  eV     1   --> B_2  D_4  S_4  
     e( 24 - 24) =     -4.61820  eV     1   --> B_2  D_4  S_4  
     e( 25 - 25) =      0.37443  eV     1   --> B_2  D_4  S_4  
     e( 26 - 26) =      1.45030  eV     1   --> B_2  D_4  S_4  
     e( 27 - 27) =      1.92027  eV     1   --> A_1  D_1  S_1  
     e( 28 - 28) =      2.53302  eV     1   --> A_1  D_1  S_1  
     e( 29 - 29) =      2.92513  eV     1   --> A_1  D_1  S_1  
     e( 30 - 30) =      4.31465  eV     1   --> B_2  D_4  S_4  
     e( 31 - 31) =      4.43314  eV     1   --> A_2  D_2  S_2  
     e( 32 - 32) =      4.52106  eV     1   --> B_2  D_4  S_4  
     e( 33 - 33) =      4.77810  eV     1   --> A_1  D_1  S_1  
     e( 34 - 34) =      4.92141  eV     1   --> A_2  D_2  S_2  
     e( 35 - 35) =      5.45206  eV     1   --> B_1  D_3  S_3  
     e( 36 - 36) =      5.80940  eV     1   --> A_1  D_1  S_1  
     e( 37 - 37) =      6.10957  eV     1   --> B_1  D_3  S_3  
     e( 38 - 38) =      6.59874  eV     1   --> A_1  D_1  S_1  
     e( 39 - 39) =      6.81715  eV     1   --> B_2  D_4  S_4  
     e( 40 - 40) =      7.15251  eV     1   --> B_2  D_4  S_4  
     e( 41 - 41) =      8.37404  eV     1   --> B_2  D_4  S_4  
     e( 42 - 42) =     10.14869  eV     1   --> A_1  D_1  S_1  
     e( 43 - 43) =     10.51172  eV     1   --> B_2  D_4  S_4  
     e( 44 - 44) =     10.56032  eV     1   --> B_2  D_4  S_4  
     e( 45 - 45) =     10.69626  eV     1   --> A_1  D_1  S_1  
     e( 46 - 46) =     10.88636  eV     1   --> B_1  D_3  S_3  
     e( 47 - 47) =     11.50677  eV     1   --> B_2  D_4  S_4  
     e( 48 - 48) =     11.96031  eV     1   --> A_2  D_2  S_2  
     e( 49 - 49) =     12.07216  eV     1   --> B_1  D_3  S_3  
     e( 50 - 50) =     12.27098  eV     1   --> A_1  D_1  S_1  

 **************************************************************************

 **************************************************************************

                    xk=(   0.00000,   0.00000,   0.16902  )

     Band symmetry, C_2v (mm2)  point group:

     e(  1 -  1) =    -13.75880  eV     1   --> B_2  D_4  S_4  
     e(  2 -  2) =    -13.74765  eV     1   --> B_2  D_4  S_4  
     e(  3 -  3) =    -13.74588  eV     1   --> A_1  D_1  S_1  
     e(  4 -  4) =    -13.74146  eV     1   --> A_1  D_1  S_1  
     e(  5 -  5) =    -13.74055  eV     1   --> B_1  D_3  S_3  
     e(  6 -  6) =    -13.73789  eV     1   --> A_2  D_2  S_2  
     e(  7 -  7) =    -13.73434  eV     1   --> B_1  D_3  S_3  
     e(  8 -  8) =    -13.73314  eV     1   --> A_2  D_2  S_2  
     e(  9 -  9) =    -13.72616  eV     1   --> A_2  D_2  S_2  
     e( 10 - 10) =    -13.72305  eV     1   --> B_2  D_4  S_4  
     e( 11 - 11) =    -13.72160  eV     1   --> B_1  D_3  S_3  
     e( 12 - 12) =    -13.72129  eV     1   --> B_2  D_4  S_4  
     e( 13 - 13) =    -13.71163  eV     1   --> A_1  D_1  S_1  
     e( 14 - 14) =    -13.70807  eV     1   --> A_1  D_1  S_1  
     e( 15 - 15) =    -13.69181  eV     1   --> B_2  D_4  S_4  
     e( 16 - 16) =    -13.68771  eV     1   --> B_2  D_4  S_4  
     e( 17 - 17) =    -13.68453  eV     1   --> A_1  D_1  S_1  
     e( 18 - 18) =    -13.68160  eV     1   --> A_1  D_1  S_1  
     e( 19 - 19) =    -13.67464  eV     1   --> A_2  D_2  S_2  
     e( 20 - 20) =    -13.66813  eV     1   --> B_1  D_3  S_3  
     e( 21 - 21) =     -6.01555  eV     1   --> A_1  D_1  S_1  
     e( 22 - 22) =     -5.68342  eV     1   --> A_1  D_1  S_1  
     e( 23 - 23) =     -5.07098  eV     1   --> B_2  D_4  S_4  
     e( 24 - 24) =     -4.62015  eV     1   --> B_2  D_4  S_4  
     e( 25 - 25) =      0.34637  eV     1   --> B_2  D_4  S_4  
     e( 26 - 26) =      1.43641  eV     1   --> B_2  D_4  S_4  
     e( 27 - 27) =      1.87800  eV     1   --> A_1  D_1  S_1  
     e( 28 - 28) =      2.49741  eV     1   --> A_1  D_1  S_1  
     e( 29 - 29) =      2.92400  eV     1   --> A_1  D_1  S_1  
     e( 30 - 30) =      4.31318  eV     1   --> B_2  D_4  S_4  
     e( 31 - 31) =      4.44458  eV     1   --> A_2  D_2  S_2  
     e( 32 - 32) =      4.57439  eV     1   --> B_2  D_4  S_4  
     e( 33 - 33) =      4.83674  eV     1   --> A_1  D_1  S_1  
     e( 34 - 34) =      4.93154  eV     1   --> A_2  D_2  S_2  
     e( 35 - 35) =      5.45923  eV     1   --> B_1  D_3  S_3  
     e( 36 - 36) =      5.82378  eV     1   --> A_1  D_1  S_1  
     e( 37 - 37) =      6.11271  eV     1   --> B_1  D_3  S_3  
     e( 38 - 38) =      6.63132  eV     1   --> A_1  D_1  S_1  
     e( 39 - 39) =      6.79341  eV     1   --> B_2  D_4  S_4  
     e( 40 - 40) =      7.15612  eV     1   --> B_2  D_4  S_4  
     e( 41 - 41) =      8.37659  eV     1   --> B_2  D_4  S_4  
     e( 42 - 42) =     10.07837  eV     1   --> A_1  D_1  S_1  
     e( 43 - 43) =     10.51366  eV     1   --> B_2  D_4  S_4  
     e( 44 - 44) =     10.58510  eV     1   --> B_2  D_4  S_4  
     e( 45 - 45) =     10.68862  eV     1   --> A_1  D_1  S_1  
     e( 46 - 46) =     10.83308  eV     1   --> B_1  D_3  S_3  
     e( 47 - 47) =     11.52968  eV     1   --> B_2  D_4  S_4  
     e( 48 - 48) =     11.90946  eV     1   --> A_2  D_2  S_2  
     e( 49 - 49) =     12.03322  eV     1   --> B_1  D_3  S_3  
     e( 50 - 50) =     12.24561  eV     1   --> A_1  D_1  S_1  

 **************************************************************************

 **************************************************************************

                    xk=(   0.00000,   0.00000,   0.21127  )

     Band symmetry, C_2v (mm2)  point group:

     e(  1 -  1) =    -13.75867  eV     1   --> B_2  D_4  S_4  
     e(  2 -  2) =    -13.74756  eV     1   --> B_2  D_4  S_4  
     e(  3 -  3) =    -13.74590  eV     1   --> A_1  D_1  S_1  
     e(  4 -  4) =    -13.74143  eV     1   --> A_1  D_1  S_1  
     e(  5 -  5) =    -13.74063  eV     1   --> B_1  D_3  S_3  
     e(  6 -  6) =    -13.73800  eV     1   --> A_2  D_2  S_2  
     e(  7 -  7) =    -13.73435  eV     1   --> B_1  D_3  S_3  
     e(  8 -  8) =    -13.73313  eV     1   --> A_2  D_2  S_2  
     e(  9 -  9) =    -13.72616  eV     1   --> A_2  D_2  S_2  
     e( 10 - 10) =    -13.72288  eV     1   --> B_2  D_4  S_4  
     e( 11 - 11) =    -13.72163  eV     1   --> B_1  D_3  S_3  
     e( 12 - 12) =    -13.72104  eV     1   --> B_2  D_4  S_4  
     e( 13 - 13) =    -13.71154  eV     1   --> A_1  D_1  S_1  
     e( 14 - 14) =    -13.70808  eV     1   --> A_1  D_1  S_1  
     e( 15 - 15) =    -13.69180  eV     1   --> B_2  D_4  S_4  
     e( 16 - 16) =    -13.68765  eV     1   --> B_2  D_4  S_4  
     e( 17 - 17) =    -13.68461  eV     1   --> A_1  D_1  S_1  
     e( 18 - 18) =    -13.68163  eV     1   --> A_1  D_1  S_1  
     e( 19 - 19) =    -13.67459  eV     1   --> A_2  D_2  S_2  
     e( 20 - 20) =    -13.66816  eV     1   --> B_1  D_3  S_3  
     e( 21 - 21) =     -6.00600  eV     1   --> A_1  D_1  S_1  
     e( 22 - 22) =     -5.67472  eV     1   --> A_1  D_1  S_1  
     e( 23 - 23) =     -5.06995  eV     1   --> B_2  D_4  S_4  
     e( 24 - 24) =     -4.62271  eV     1   --> B_2  D_4  S_4  
     e( 25 - 25) =      0.31179  eV     1   --> B_2  D_4  S_4  
     e( 26 - 26) =      1.41865  eV     1   --> B_2  D_4  S_4  
     e( 27 - 27) =      1.82312  eV     1   --> A_1  D_1  S_1  
     e( 28 - 28) =      2.45810  eV     1   --> A_1  D_1  S_1  
     e( 29 - 29) =      2.92184  eV     1   --> A_1  D_1  S_1  
     e( 30 - 30) =      4.31921  eV     1   --> B_2  D_4  S_4  
     e( 31 - 31) =      4.45923  eV     1   --> A_2  D_2  S_2  
     e( 32 - 32) =      4.63345  eV     1   --> B_2  D_4  S_4  
     e( 33 - 33) =      4.90723  eV     1   --> A_1  D_1  S_1  
     e( 34 - 34) =      4.94451  eV     1   --> A_2  D_2  S_2  
     e( 35 - 35) =      5.46832  eV     1   --> B_1  D_3  S_3  
     e( 36 - 36) =      5.84307  eV     1   --> A_1  D_1  S_1  
     e( 37 - 37) =      6.11659  eV     1   --> B_1  D_3  S_3  
     e( 38 - 38) =      6.67206  eV     1   --> A_1  D_1  S_1  
     e( 39 - 39) =      6.76416  eV     1   --> B_2  D_4  S_4  
     e( 40 - 40) =      7.15926  eV     1   --> B_2  D_4  S_4  
     e( 41 - 41) =      8.38133  eV     1   --> B_2  D_4  S_4  
     e( 42 - 42) =      9.99573  eV     1   --> A_1  D_1  S_1  
     e( 43 - 43) =     10.51623  eV     1   --> B_2  D_4  S_4  
     e( 44 - 44) =     10.61486  eV     1   --> B_2  D_4  S_4  
     e( 45 - 45) =     10.66957  eV     1   --> A_1  D_1  S_1  
     e( 46 - 46) =     10.76781  eV     1   --> B_1  D_3  S_3  
     e( 47 - 47) =     11.55739  eV     1   --> B_2  D_4  S_4  
     e( 48 - 48) =     11.84566  eV     1   --> A_2  D_2  S_2  
     e( 49 - 49) =     11.98431  eV     1   --> B_1  D_3  S_3  
     e( 50 - 50) =     12.22213  eV     1   --> A_1  D_1  S_1  

 **************************************************************************

 **************************************************************************

                    xk=(   0.00000,   0.00000,   0.25353  )

     Band symmetry, C_2v (mm2)  point group:

     e(  1 -  1) =    -13.75853  eV     1   --> B_2  D_4  S_4  
     e(  2 -  2) =    -13.74748  eV     1   --> B_2  D_4  S_4  
     e(  3 -  3) =    -13.74594  eV     1   --> A_1  D_1  S_1  
     e(  4 -  4) =    -13.74141  eV     1   --> A_1  D_1  S_1  
     e(  5 -  5) =    -13.74078  eV     1   --> B_1  D_3  S_3  
     e(  6 -  6) =    -13.73814  eV     1   --> A_2  D_2  S_2  
     e(  7 -  7) =    -13.73436  eV     1   --> B_1  D_3  S_3  
     e(  8 -  8) =    -13.73312  eV     1   --> A_2  D_2  S_2  
     e(  9 -  9) =    -13.72615  eV     1   --> A_2  D_2  S_2  
     e( 10 - 10) =    -13.72269  eV     1   --> B_2  D_4  S_4  
     e( 11 - 11) =    -13.72168  eV     1   --> B_1  D_3  S_3  
     e( 12 - 12) =    -13.72074  eV     1   --> B_2  D_4  S_4  
     e( 13 - 13) =    -13.71146  eV     1   --> A_1  D_1  S_1  
     e( 14 - 14) =    -13.70811  eV     1   --> A_1  D_1  S_1  
     e( 15 - 15) =    -13.69184  eV     1   --> B_2  D_4  S_4  
     e( 16 - 16) =    -13.68758  eV     1   --> B_2  D_4  S_4  
     e( 17 - 17) =    -13.68472  eV     1   --> A_1  D_1  S_1  
     e( 18 - 18) =    -13.68169  eV     1   --> A_1  D_1  S_1  
     e( 19 - 19) =    -13.67454  eV     1   --> A_2  D_2  S_2  
     e( 20 - 20) =    -13.66822  eV     1   --> B_1  D_3  S_3  
     e( 21 - 21) =     -5.99440  eV     1   --> A_1  D_1  S_1  
     e( 22 - 22) =     -5.66416  eV     1   --> A_1  D_1  S_1  
     e( 23 - 23) =     -5.06883  eV     1   --> B_2  D_4  S_4  
     e( 24 - 24) =     -4.62593  eV     1   --> B_2  D_4  S_4  
     e( 25 - 25) =      0.27168  eV     1   --> B_2  D_4  S_4  
     e( 26 - 26) =      1.39720  eV     1   --> B_2  D_4  S_4  
     e( 27 - 27) =      1.75629  eV     1   --> A_1  D_1  S_1  
     e( 28 - 28) =      2.41639  eV     1   --> A_1  D_1  S_1  
     e( 29 - 29) =      2.91965  eV     1   --> A_1  D_1  S_1  
     e( 30 - 30) =      4.33270  eV     1   --> B_2  D_4  S_4  
     e( 31 - 31) =      4.47707  eV     1   --> A_2  D_2  S_2  
     e( 32 - 32) =      4.69710  eV     1   --> B_2  D_4  S_4  
     e( 33 - 33) =      4.96028  eV     1   --> A_2  D_2  S_2  
     e( 34 - 34) =      4.98667  eV     1   --> A_1  D_1  S_1  
     e( 35 - 35) =      5.47920  eV     1   --> B_1  D_3  S_3  
     e( 36 - 36) =      5.86789  eV     1   --> A_1  D_1  S_1  
     e( 37 - 37) =      6.12110  eV     1   --> B_1  D_3  S_3  
     e( 38 - 38) =      6.72021  eV     1   --> A_1  D_1  S_1  
     e( 39 - 39) =      6.73006  eV     1   --> B_2  D_4  S_4  
     e( 40 - 40) =      7.16124  eV     1   --> B_2  D_4  S_4  
     e( 41 - 41) =      8.38916  eV     1   --> B_2  D_4  S_4  
     e( 42 - 42) =      9.90325  eV     1   --> A_1  D_1  S_1  
     e( 43 - 43) =     10.51864  eV     1   --> B_2  D_4  S_4  
     e( 44 - 44) =     10.63629  eV     1   --> A_1  D_1  S_1  
     e( 45 - 45) =     10.64860  eV     1   --> B_2  D_4  S_4  
     e( 46 - 46) =     10.69244  eV     1   --> B_1  D_3  S_3  
     e( 47 - 47) =     11.58898  eV     1   --> B_2  D_4  S_4  
     e( 48 - 48) =     11.77002  eV     1   --> A_2  D_2  S_2  
     e( 49 - 49) =     11.92643  eV     1   --> B_1  D_3  S_3  
     e( 50 - 50) =     12.20434  eV     1   --> A_1  D_1  S_1  

 **************************************************************************

 **************************************************************************

                    xk=(   0.00000,   0.00000,   0.29578  )

     Band symmetry, C_2v (mm2)  point group:

     e(  1 -  1) =    -13.75836  eV     1   --> B_2  D_4  S_4  
     e(  2 -  2) =    -13.74738  eV     1   --> B_2  D_4  S_4  
     e(  3 -  3) =    -13.74599  eV     1   --> A_1  D_1  S_1  
     e(  4 -  4) =    -13.74138  eV     1   --> A_1  D_1  S_1  
     e(  5 -  5) =    -13.74091  eV     1   --> B_1  D_3  S_3  
     e(  6 -  6) =    -13.73833  eV     1   --> A_2  D_2  S_2  
     e(  7 -  7) =    -13.73440  eV     1   --> B_1  D_3  S_3  
     e(  8 -  8) =    -13.73312  eV     1   --> A_2  D_2  S_2  
     e(  9 -  9) =    -13.72616  eV     1   --> A_2  D_2  S_2  
     e( 10 - 10) =    -13.72246  eV     1   --> B_2  D_4  S_4  
     e( 11 - 11) =    -13.72173  eV     1   --> B_1  D_3  S_3  
     e( 12 - 12) =    -13.72040  eV     1   --> B_2  D_4  S_4  
     e( 13 - 13) =    -13.71137  eV     1   --> A_1  D_1  S_1  
     e( 14 - 14) =    -13.70814  eV     1   --> A_1  D_1  S_1  
     e( 15 - 15) =    -13.69188  eV     1   --> B_2  D_4  S_4  
     e( 16 - 16) =    -13.68749  eV     1   --> B_2  D_4  S_4  
     e( 17 - 17) =    -13.68485  eV     1   --> A_1  D_1  S_1  
     e( 18 - 18) =    -13.68175  eV     1   --> A_1  D_1  S_1  
     e( 19 - 19) =    -13.67449  eV     1   --> A_2  D_2  S_2  
     e( 20 - 20) =    -13.66829  eV     1   --> B_1  D_3  S_3  
     e( 21 - 21) =     -5.98077  eV     1   --> A_1  D_1  S_1  
     e( 22 - 22) =     -5.65176  eV     1   --> A_1  D_1  S_1  
     e( 23 - 23) =     -5.06771  eV     1   --> B_2  D_4  S_4  
     e( 24 - 24) =     -4.62985  eV     1   --> B_2  D_4  S_4  
     e( 25 - 25) =      0.22704  eV     1   --> B_2  D_4  S_4  
     e( 26 - 26) =      1.37236  eV     1   --> B_2  D_4  S_4  
     e( 27 - 27) =      1.67885  eV     1   --> A_1  D_1  S_1  
     e( 28 - 28) =      2.37247  eV     1   --> A_1  D_1  S_1  
     e( 29 - 29) =      2.91884  eV     1   --> A_1  D_1  S_1  
     e( 30 - 30) =      4.35320  eV     1   --> B_2  D_4  S_4  
     e( 31 - 31) =      4.49804  eV     1   --> A_2  D_2  S_2  
     e( 32 - 32) =      4.76445  eV     1   --> B_2  D_4  S_4  
     e( 33 - 33) =      4.97879  eV     1   --> A_2  D_2  S_2  
     e( 34 - 34) =      5.07204  eV     1   --> A_1  D_1  S_1  
     e( 35 - 35) =      5.49175  eV     1   --> B_1  D_3  S_3  
     e( 36 - 36) =      5.89908  eV     1   --> A_1  D_1  S_1  
     e( 37 - 37) =      6.12607  eV     1   --> B_1  D_3  S_3  
     e( 38 - 38) =      6.69176  eV     1   --> B_2  D_4  S_4  
     e( 39 - 39) =      6.77496  eV     1   --> A_1  D_1  S_1  
     e( 40 - 40) =      7.16152  eV     1   --> B_2  D_4  S_4  
     e( 41 - 41) =      8.40093  eV     1   --> B_2  D_4  S_4  
     e( 42 - 42) =      9.80288  eV     1   --> A_1  D_1  S_1  
     e( 43 - 43) =     10.51983  eV     1   --> B_2  D_4  S_4  
     e( 44 - 44) =     10.58725  eV     1   --> A_1  D_1  S_1  
     e( 45 - 45) =     10.60891  eV     1   --> B_1  D_3  S_3  
     e( 46 - 46) =     10.68495  eV     1   --> B_2  D_4  S_4  
     e( 47 - 47) =     11.62368  eV     1   --> B_2  D_4  S_4  
     e( 48 - 48) =     11.68386  eV     1   --> A_2  D_2  S_2  
     e( 49 - 49) =     11.86082  eV     1   --> B_1  D_3  S_3  
     e( 50 - 50) =     12.19465  eV     1   --> A_1  D_1  S_1  

 **************************************************************************

 **************************************************************************

                    xk=(   0.00000,   0.00000,   0.33804  )

     Band symmetry, C_2v (mm2)  point group:

     e(  1 -  1) =    -13.75816  eV     1   --> B_2  D_4  S_4  
     e(  2 -  2) =    -13.74725  eV     1   --> B_2  D_4  S_4  
     e(  3 -  3) =    -13.74605  eV     1   --> A_1  D_1  S_1  
     e(  4 -  4) =    -13.74136  eV     1   --> A_1  D_1  S_1  
     e(  5 -  5) =    -13.74105  eV     1   --> B_1  D_3  S_3  
     e(  6 -  6) =    -13.73852  eV     1   --> A_2  D_2  S_2  
     e(  7 -  7) =    -13.73442  eV     1   --> B_1  D_3  S_3  
     e(  8 -  8) =    -13.73313  eV     1   --> A_2  D_2  S_2  
     e(  9 -  9) =    -13.72617  eV     1   --> A_2  D_2  S_2  
     e( 10 - 10) =    -13.72220  eV     1   --> B_2  D_4  S_4  
     e( 11 - 11) =    -13.72178  eV     1   --> B_1  D_3  S_3  
     e( 12 - 12) =    -13.72003  eV     1   --> B_2  D_4  S_4  
     e( 13 - 13) =    -13.71126  eV     1   --> A_1  D_1  S_1  
     e( 14 - 14) =    -13.70816  eV     1   --> A_1  D_1  S_1  
     e( 15 - 15) =    -13.69190  eV     1   --> B_2  D_4  S_4  
     e( 16 - 16) =    -13.68738  eV     1   --> B_2  D_4  S_4  
     e( 17 - 17) =    -13.68499  eV     1   --> A_1  D_1  S_1  
     e( 18 - 18) =    -13.68181  eV     1   --> A_1  D_1  S_1  
     e( 19 - 19) =    -13.67443  eV     1   --> A_2  D_2  S_2  
     e( 20 - 20) =    -13.66836  eV     1   --> B_1  D_3  S_3  
     e( 21 - 21) =     -5.96517  eV     1   --> A_1  D_1  S_1  
     e( 22 - 22) =     -5.63755  eV     1   --> A_1  D_1  S_1  
     e( 23 - 23) =     -5.06669  eV     1   --> B_2  D_4  S_4  
     e( 24 - 24) =     -4.63452  eV     1   --> B_2  D_4  S_4  
     e( 25 - 25) =      0.17891  eV     1   --> B_2  D_4  S_4  
     e( 26 - 26) =      1.34452  eV     1   --> B_2  D_4  S_4  
     e( 27 - 27) =      1.59258  eV     1   --> A_1  D_1  S_1  
     e( 28 - 28) =      2.32585  eV     1   --> A_1  D_1  S_1  
     e( 29 - 29) =      2.92086  eV     1   --> A_1  D_1  S_1  
     e( 30 - 30) =      4.37998  eV     1   --> B_2  D_4  S_4  
     e( 31 - 31) =      4.52208  eV     1   --> A_2  D_2  S_2  
     e( 32 - 32) =      4.83466  eV     1   --> B_2  D_4  S_4  
     e( 33 - 33) =      4.99999  eV     1   --> A_2  D_2  S_2  
     e( 34 - 34) =      5.16037  eV     1   --> A_1  D_1  S_1  
     e( 35 - 35) =      5.50581  eV     1   --> B_1  D_3  S_3  
     e( 36 - 36) =      5.93765  eV     1   --> A_1  D_1  S_1  
     e( 37 - 37) =      6.13136  eV     1   --> B_1  D_3  S_3  
     e( 38 - 38) =      6.65005  eV     1   --> B_2  D_4  S_4  
     e( 39 - 39) =      6.83549  eV     1   --> A_1  D_1  S_1  
     e( 40 - 40) =      7.15968  eV     1   --> B_2  D_4  S_4  
     e( 41 - 41) =      8.41743  eV     1   --> B_2  D_4  S_4  
     e( 42 - 42) =      9.69628  eV     1   --> A_1  D_1  S_1  
     e( 43 - 43) =     10.51850  eV     1   --> B_2  D_4  S_4  
     e( 44 - 44) =     10.51909  eV     1   --> B_1  D_3  S_3  
     e( 45 - 45) =     10.52225  eV     1   --> A_1  D_1  S_1  
     e( 46 - 46) =     10.72213  eV     1   --> B_2  D_4  S_4  
     e( 47 - 47) =     11.58858  eV     1   --> A_2  D_2  S_2  
     e( 48 - 48) =     11.66106  eV     1   --> B_2  D_4  S_4  
     e( 49 - 49) =     11.78886  eV     1   --> B_1  D_3  S_3  
     e( 50 - 50) =     12.19334  eV     1   --> A_1  D_1  S_1  

 **************************************************************************

 **************************************************************************

                    xk=(   0.00000,   0.00000,   0.38029  )

     Band symmetry, C_2v (mm2)  point group:

     e(  1 -  1) =    -13.75794  eV     1   --> B_2  D_4  S_4  
     e(  2 -  2) =    -13.74713  eV     1   --> B_2  D_4  S_4  
     e(  3 -  3) =    -13.74612  eV     1   --> A_1  D_1  S_1  
     e(  4 -  4) =    -13.74132  eV     1   --> A_1  D_1  S_1  
     e(  5 -  5) =    -13.74120  eV     1   --> B_1  D_3  S_3  
     e(  6 -  6) =    -13.73876  eV     1   --> A_2  D_2  S_2  
     e(  7 -  7) =    -13.73445  eV     1   --> B_1  D_3  S_3  
     e(  8 -  8) =    -13.73315  eV     1   --> A_2  D_2  S_2  
     e(  9 -  9) =    -13.72618  eV     1   --> A_2  D_2  S_2  
     e( 10 - 11) =    -13.72189  eV     2   --> B_1  D_3  S_3  
     e( 10 - 11) =    -13.72189  eV     2   --> B_2  D_4  S_4  
     e( 12 - 12) =    -13.71962  eV     1   --> B_2  D_4  S_4  
     e( 13 - 13) =    -13.71113  eV     1   --> A_1  D_1  S_1  
     e( 14 - 14) =    -13.70817  eV     1   --> A_1  D_1  S_1  
     e( 15 - 15) =    -13.69193  eV     1   --> B_2  D_4  S_4  
     e( 16 - 16) =    -13.68727  eV     1   --> B_2  D_4  S_4  
     e( 17 - 17) =    -13.68515  eV     1   --> A_1  D_1  S_1  
     e( 18 - 18) =    -13.68188  eV     1   --> A_1  D_1  S_1  
     e( 19 - 19) =    -13.67437  eV     1   --> A_2  D_2  S_2  
     e( 20 - 20) =    -13.66844  eV     1   --> B_1  D_3  S_3  
     e( 21 - 21) =     -5.94764  eV     1   --> A_1  D_1  S_1  
     e( 22 - 22) =     -5.62159  eV     1   --> A_1  D_1  S_1  
     e( 23 - 23) =     -5.06588  eV     1   --> B_2  D_4  S_4  
     e( 24 - 24) =     -4.64002  eV     1   --> B_2  D_4  S_4  
     e( 25 - 25) =      0.12831  eV     1   --> B_2  D_4  S_4  
     e( 26 - 26) =      1.31421  eV     1   --> B_2  D_4  S_4  
     e( 27 - 27) =      1.49936  eV     1   --> A_1  D_1  S_1  
     e( 28 - 28) =      2.27591  eV     1   --> A_1  D_1  S_1  
     e( 29 - 29) =      2.92695  eV     1   --> A_1  D_1  S_1  
     e( 30 - 30) =      4.41208  eV     1   --> B_2  D_4  S_4  
     e( 31 - 31) =      4.54914  eV     1   --> A_2  D_2  S_2  
     e( 32 - 32) =      4.90699  eV     1   --> B_2  D_4  S_4  
     e( 33 - 33) =      5.02381  eV     1   --> A_2  D_2  S_2  
     e( 34 - 34) =      5.24871  eV     1   --> A_1  D_1  S_1  
     e( 35 - 35) =      5.52119  eV     1   --> B_1  D_3  S_3  
     e( 36 - 36) =      5.98475  eV     1   --> A_1  D_1  S_1  
     e( 37 - 37) =      6.13676  eV     1   --> B_1  D_3  S_3  
     e( 38 - 38) =      6.60581  eV     1   --> B_2  D_4  S_4  
     e( 39 - 39) =      6.90091  eV     1   --> A_1  D_1  S_1  
     e( 40 - 40) =      7.15546  eV     1   --> B_2  D_4  S_4  
     e( 41 - 41) =      8.43926  eV     1   --> B_2  D_4  S_4  
     e( 42 - 42) =      9.58483  eV     1   --> A_1  D_1  S_1  
     e( 43 - 43) =     10.42473  eV     1   --> B_1  D_3  S_3  
     e( 44 - 44) =     10.44226  eV     1   --> A_1  D_1  S_1  
     e( 45 - 45) =     10.51305  eV     1   --> B_2  D_4  S_4  
     e( 46 - 46) =     10.75794  eV     1   --> B_2  D_4  S_4  
     e( 47 - 47) =     11.48564  eV     1   --> A_2  D_2  S_2  
     e( 48 - 48) =     11.70117  eV     1   --> B_2  D_4  S_4  
     e( 49 - 49) =     11.71208  eV     1   --> B_1  D_3  S_3  
     e( 50 - 50) =     12.19804  eV     1   --> A_1  D_1  S_1  

 **************************************************************************

 **************************************************************************

                    xk=(   0.00000,   0.00000,   0.42254  )

     Band symmetry, C_2v (mm2)  point group:

     e(  1 -  1) =    -13.75770  eV     1   --> B_2  D_4  S_4  
     e(  2 -  2) =    -13.74697  eV     1   --> B_2  D_4  S_4  
     e(  3 -  3) =    -13.74619  eV     1   --> A_1  D_1  S_1  
     e(  4 -  5) =    -13.74137  eV     2   --> A_1  D_1  S_1  
     e(  4 -  5) =    -13.74137  eV     2   --> B_1  D_3  S_3  
     e(  6 -  6) =    -13.73899  eV     1   --> A_2  D_2  S_2  
     e(  7 -  7) =    -13.73448  eV     1   --> B_1  D_3  S_3  
     e(  8 -  8) =    -13.73316  eV     1   --> A_2  D_2  S_2  
     e(  9 -  9) =    -13.72618  eV     1   --> A_2  D_2  S_2  
     e( 10 - 10) =    -13.72192  eV     1   --> B_1  D_3  S_3  
     e( 11 - 11) =    -13.72155  eV     1   --> B_2  D_4  S_4  
     e( 12 - 12) =    -13.71917  eV     1   --> B_2  D_4  S_4  
     e( 13 - 13) =    -13.71099  eV     1   --> A_1  D_1  S_1  
     e( 14 - 14) =    -13.70820  eV     1   --> A_1  D_1  S_1  
     e( 15 - 15) =    -13.69195  eV     1   --> B_2  D_4  S_4  
     e( 16 - 16) =    -13.68716  eV     1   --> B_2  D_4  S_4  
     e( 17 - 17) =    -13.68531  eV     1   --> A_1  D_1  S_1  
     e( 18 - 18) =    -13.68196  eV     1   --> A_1  D_1  S_1  
     e( 19 - 19) =    -13.67428  eV     1   --> A_2  D_2  S_2  
     e( 20 - 20) =    -13.66852  eV     1   --> B_1  D_3  S_3  
     e( 21 - 21) =     -5.92826  eV     1   --> A_1  D_1  S_1  
     e( 22 - 22) =     -5.60392  eV     1   --> A_1  D_1  S_1  
     e( 23 - 23) =     -5.06541  eV     1   --> B_2  D_4  S_4  
     e( 24 - 24) =     -4.64639  eV     1   --> B_2  D_4  S_4  
     e( 25 - 25) =      0.07623  eV     1   --> B_2  D_4  S_4  
     e( 26 - 26) =      1.28200  eV     1   --> B_2  D_4  S_4  
     e( 27 - 27) =      1.40100  eV     1   --> A_1  D_1  S_1  
     e( 28 - 28) =      2.22225  eV     1   --> A_1  D_1  S_1  
     e( 29 - 29) =      2.93796  eV     1   --> A_1  D_1  S_1  
     e( 30 - 30) =      4.44834  eV     1   --> B_2  D_4  S_4  
     e( 31 - 31) =      4.57914  eV     1   --> A_2  D_2  S_2  
     e( 32 - 32) =      4.98072  eV     1   --> B_2  D_4  S_4  
     e( 33 - 33) =      5.05016  eV     1   --> A_2  D_2  S_2  
     e( 34 - 34) =      5.33440  eV     1   --> A_1  D_1  S_1  
     e( 35 - 35) =      5.53766  eV     1   --> B_1  D_3  S_3  
     e( 36 - 36) =      6.04152  eV     1   --> A_1  D_1  S_1  
     e( 37 - 37) =      6.14205  eV     1   --> B_1  D_3  S_3  
     e( 38 - 38) =      6.56013  eV     1   --> B_2  D_4  S_4  
     e( 39 - 39) =      6.97036  eV     1   --> A_1  D_1  S_1  
     e( 40 - 40) =      7.14875  eV     1   --> B_2  D_4  S_4  
     e( 41 - 41) =      8.46685  eV     1   --> B_2  D_4  S_4  
     e( 42 - 42) =      9.46984  eV     1   --> A_1  D_1  S_1  
     e( 43 - 43) =     10.32746  eV     1   --> B_1  D_3  S_3  
     e( 44 - 44) =     10.34912  eV     1   --> A_1  D_1  S_1  
     e( 45 - 45) =     10.50177  eV     1   --> B_2  D_4  S_4  
     e( 46 - 46) =     10.78983  eV     1   --> B_2  D_4  S_4  
     e( 47 - 47) =     11.37645  eV     1   --> A_2  D_2  S_2  
     e( 48 - 48) =     11.63199  eV     1   --> B_1  D_3  S_3  
     e( 49 - 49) =     11.74459  eV     1   --> B_2  D_4  S_4  
     e( 50 - 50) =     12.20292  eV     1   --> A_1  D_1  S_1  

 **************************************************************************

 **************************************************************************

                    xk=(   0.00000,   0.00000,   0.46480  )

     Band symmetry, C_2v (mm2)  point group:

     e(  1 -  1) =    -13.75744  eV     1   --> B_2  D_4  S_4  
     e(  2 -  2) =    -13.74681  eV     1   --> B_2  D_4  S_4  
     e(  3 -  3) =    -13.74626  eV     1   --> A_1  D_1  S_1  
     e(  4 -  4) =    -13.74154  eV     1   --> B_1  D_3  S_3  
     e(  5 -  5) =    -13.74128  eV     1   --> A_1  D_1  S_1  
     e(  6 -  6) =    -13.73924  eV     1   --> A_2  D_2  S_2  
     e(  7 -  7) =    -13.73451  eV     1   --> B_1  D_3  S_3  
     e(  8 -  8) =    -13.73317  eV     1   --> A_2  D_2  S_2  
     e(  9 -  9) =    -13.72618  eV     1   --> A_2  D_2  S_2  
     e( 10 - 10) =    -13.72199  eV     1   --> B_1  D_3  S_3  
     e( 11 - 11) =    -13.72115  eV     1   --> B_2  D_4  S_4  
     e( 12 - 12) =    -13.71870  eV     1   --> B_2  D_4  S_4  
     e( 13 - 13) =    -13.71085  eV     1   --> A_1  D_1  S_1  
     e( 14 - 14) =    -13.70824  eV     1   --> A_1  D_1  S_1  
     e( 15 - 15) =    -13.69195  eV     1   --> B_2  D_4  S_4  
     e( 16 - 16) =    -13.68703  eV     1   --> B_2  D_4  S_4  
     e( 17 - 17) =    -13.68549  eV     1   --> A_1  D_1  S_1  
     e( 18 - 18) =    -13.68205  eV     1   --> A_1  D_1  S_1  
     e( 19 - 19) =    -13.67419  eV     1   --> A_2  D_2  S_2  
     e( 20 - 20) =    -13.66861  eV     1   --> B_1  D_3  S_3  
     e( 21 - 21) =     -5.90708  eV     1   --> A_1  D_1  S_1  
     e( 22 - 22) =     -5.58460  eV     1   --> A_1  D_1  S_1  
     e( 23 - 23) =     -5.06539  eV     1   --> B_2  D_4  S_4  
     e( 24 - 24) =     -4.65371  eV     1   --> B_2  D_4  S_4  
     e( 25 - 25) =      0.02358  eV     1   --> B_2  D_4  S_4  
     e( 26 - 26) =      1.24853  eV     1   --> B_2  D_4  S_4  
     e( 27 - 27) =      1.29909  eV     1   --> A_1  D_1  S_1  
     e( 28 - 28) =      2.16482  eV     1   --> A_1  D_1  S_1  
     e( 29 - 29) =      2.95431  eV     1   --> A_1  D_1  S_1  
     e( 30 - 30) =      4.48739  eV     1   --> B_2  D_4  S_4  
     e( 31 - 31) =      4.61198  eV     1   --> A_2  D_2  S_2  
     e( 32 - 32) =      5.05521  eV     1   --> B_2  D_4  S_4  
     e( 33 - 33) =      5.07894  eV     1   --> A_2  D_2  S_2  
     e( 34 - 34) =      5.41525  eV     1   --> A_1  D_1  S_1  
     e( 35 - 35) =      5.55497  eV     1   --> B_1  D_3  S_3  
     e( 36 - 36) =      6.10879  eV     1   --> A_1  D_1  S_1  
     e( 37 - 37) =      6.14698  eV     1   --> B_1  D_3  S_3  
     e( 38 - 38) =      6.51434  eV     1   --> B_2  D_4  S_4  
     e( 39 - 39) =      7.04294  eV     1   --> A_1  D_1  S_1  
     e( 40 - 40) =      7.13954  eV     1   --> B_2  D_4  S_4  
     e( 41 - 41) =      8.50041  eV     1   --> B_2  D_4  S_4  
     e( 42 - 42) =      9.35255  eV     1   --> A_1  D_1  S_1  
     e( 43 - 43) =     10.22874  eV     1   --> B_1  D_3  S_3  
     e( 44 - 44) =     10.24508  eV     1   --> A_1  D_1  S_1  
     e( 45 - 45) =     10.48289  eV     1   --> B_2  D_4  S_4  
     e( 46 - 46) =     10.81501  eV     1   --> B_2  D_4  S_4  
     e( 47 - 47) =     11.26240  eV     1   --> A_2  D_2  S_2  
     e( 48 - 48) =     11.55006  eV     1   --> B_1  D_3  S_3  
     e( 49 - 49) =     11.79241  eV     1   --> B_2  D_4  S_4  
     e( 50 - 50) =     12.19815  eV     1   --> A_1  D_1  S_1  

 **************************************************************************

 **************************************************************************

                    xk=(   0.00000,   0.00000,   0.50705  )

     Band symmetry, C_2v (mm2)  point group:

     e(  1 -  1) =    -13.75715  eV     1   --> B_2  D_4  S_4  
     e(  2 -  2) =    -13.74665  eV     1   --> B_2  D_4  S_4  
     e(  3 -  3) =    -13.74635  eV     1   --> A_1  D_1  S_1  
     e(  4 -  4) =    -13.74173  eV     1   --> B_1  D_3  S_3  
     e(  5 -  5) =    -13.74127  eV     1   --> A_1  D_1  S_1  
     e(  6 -  6) =    -13.73951  eV     1   --> A_2  D_2  S_2  
     e(  7 -  7) =    -13.73455  eV     1   --> B_1  D_3  S_3  
     e(  8 -  8) =    -13.73320  eV     1   --> A_2  D_2  S_2  
     e(  9 -  9) =    -13.72617  eV     1   --> A_2  D_2  S_2  
     e( 10 - 10) =    -13.72208  eV     1   --> B_1  D_3  S_3  
     e( 11 - 11) =    -13.72074  eV     1   --> B_2  D_4  S_4  
     e( 12 - 12) =    -13.71822  eV     1   --> B_2  D_4  S_4  
     e( 13 - 13) =    -13.71072  eV     1   --> A_1  D_1  S_1  
     e( 14 - 14) =    -13.70828  eV     1   --> A_1  D_1  S_1  
     e( 15 - 15) =    -13.69196  eV     1   --> B_2  D_4  S_4  
     e( 16 - 16) =    -13.68690  eV     1   --> B_2  D_4  S_4  
     e( 17 - 17) =    -13.68568  eV     1   --> A_1  D_1  S_1  
     e( 18 - 18) =    -13.68214  eV     1   --> A_1  D_1  S_1  
     e( 19 - 19) =    -13.67410  eV     1   --> A_2  D_2  S_2  
     e( 20 - 20) =    -13.66871  eV     1   --> B_1  D_3  S_3  
     e( 21 - 21) =     -5.88419  eV     1   --> A_1  D_1  S_1  
     e( 22 - 22) =     -5.56371  eV     1   --> A_1  D_1  S_1  
     e( 23 - 23) =     -5.06600  eV     1   --> B_2  D_4  S_4  
     e( 24 - 24) =     -4.66206  eV     1   --> B_2  D_4  S_4  
     e( 25 - 25) =     -0.02877  eV     1   --> B_2  D_4  S_4  
     e( 26 - 26) =      1.19500  eV     1   --> A_1  D_1  S_1  
     e( 27 - 27) =      1.21447  eV     1   --> B_2  D_4  S_4  
     e( 28 - 28) =      2.10389  eV     1   --> A_1  D_1  S_1  
     e( 29 - 29) =      2.97613  eV     1   --> A_1  D_1  S_1  
     e( 30 - 30) =      4.52765  eV     1   --> B_2  D_4  S_4  
     e( 31 - 31) =      4.64756  eV     1   --> A_2  D_2  S_2  
     e( 32 - 32) =      5.11006  eV     1   --> A_2  D_2  S_2  
     e( 33 - 33) =      5.12984  eV     1   --> B_2  D_4  S_4  
     e( 34 - 34) =      5.48986  eV     1   --> A_1  D_1  S_1  
     e( 35 - 35) =      5.57283  eV     1   --> B_1  D_3  S_3  
     e( 36 - 36) =      6.15129  eV     1   --> B_1  D_3  S_3  
     e( 37 - 37) =      6.18674  eV     1   --> A_1  D_1  S_1  
     e( 38 - 38) =      6.47000  eV     1   --> B_2  D_4  S_4  
     e( 39 - 39) =      7.11767  eV     1   --> A_1  D_1  S_1  
     e( 40 - 40) =      7.12797  eV     1   --> B_2  D_4  S_4  
     e( 41 - 41) =      8.53998  eV     1   --> B_2  D_4  S_4  
     e( 42 - 42) =      9.23421  eV     1   --> A_1  D_1  S_1  
     e( 43 - 43) =     10.12994  eV     1   --> B_1  D_3  S_3  
     e( 44 - 44) =     10.13247  eV     1   --> A_1  D_1  S_1  
     e( 45 - 45) =     10.45487  eV     1   --> B_2  D_4  S_4  
     e( 46 - 46) =     10.83073  eV     1   --> B_2  D_4  S_4  
     e( 47 - 47) =     11.14476  eV     1   --> A_2  D_2  S_2  
     e( 48 - 48) =     11.46770  eV     1   --> B_1  D_3  S_3  
     e( 49 - 49) =     11.84600  eV     1   --> B_2  D_4  S_4  
     e( 50 - 50) =     12.17212  eV     1   --> A_1  D_1  S_1  

 **************************************************************************

 **************************************************************************

                    xk=(   0.00000,   0.00000,   0.54931  )

     Band symmetry, C_2v (mm2)  point group:

     e(  1 -  1) =    -13.75685  eV     1   --> B_2  D_4  S_4  
     e(  2 -  3) =    -13.74648  eV     2   --> A_1  D_1  S_1  
     e(  2 -  3) =    -13.74648  eV     2   --> B_2  D_4  S_4  
     e(  4 -  4) =    -13.74191  eV     1   --> B_1  D_3  S_3  
     e(  5 -  5) =    -13.74128  eV     1   --> A_1  D_1  S_1  
     e(  6 -  6) =    -13.73980  eV     1   --> A_2  D_2  S_2  
     e(  7 -  7) =    -13.73460  eV     1   --> B_1  D_3  S_3  
     e(  8 -  8) =    -13.73324  eV     1   --> A_2  D_2  S_2  
     e(  9 -  9) =    -13.72616  eV     1   --> A_2  D_2  S_2  
     e( 10 - 10) =    -13.72218  eV     1   --> B_1  D_3  S_3  
     e( 11 - 11) =    -13.72032  eV     1   --> B_2  D_4  S_4  
     e( 12 - 12) =    -13.71773  eV     1   --> B_2  D_4  S_4  
     e( 13 - 13) =    -13.71061  eV     1   --> A_1  D_1  S_1  
     e( 14 - 14) =    -13.70832  eV     1   --> A_1  D_1  S_1  
     e( 15 - 15) =    -13.69196  eV     1   --> B_2  D_4  S_4  
     e( 16 - 16) =    -13.68676  eV     1   --> B_2  D_4  S_4  
     e( 17 - 17) =    -13.68588  eV     1   --> A_1  D_1  S_1  
     e( 18 - 18) =    -13.68224  eV     1   --> A_1  D_1  S_1  
     e( 19 - 19) =    -13.67399  eV     1   --> A_2  D_2  S_2  
     e( 20 - 20) =    -13.66884  eV     1   --> B_1  D_3  S_3  
     e( 21 - 21) =     -5.85967  eV     1   --> A_1  D_1  S_1  
     e( 22 - 22) =     -5.54131  eV     1   --> A_1  D_1  S_1  
     e( 23 - 23) =     -5.06736  eV     1   --> B_2  D_4  S_4  
     e( 24 - 24) =     -4.67149  eV     1   --> B_2  D_4  S_4  
     e( 25 - 25) =     -0.08001  eV     1   --> B_2  D_4  S_4  
     e( 26 - 26) =      1.08985  eV     1   --> A_1  D_1  S_1  
     e( 27 - 27) =      1.18047  eV     1   --> B_2  D_4  S_4  
     e( 28 - 28) =      2.04000  eV     1   --> A_1  D_1  S_1  
     e( 29 - 29) =      3.00329  eV     1   --> A_1  D_1  S_1  
     e( 30 - 30) =      4.56734  eV     1   --> B_2  D_4  S_4  
     e( 31 - 31) =      4.68577  eV     1   --> A_2  D_2  S_2  
     e( 32 - 32) =      5.14338  eV     1   --> A_2  D_2  S_2  
     e( 33 - 33) =      5.20407  eV     1   --> B_2  D_4  S_4  
     e( 34 - 34) =      5.55780  eV     1   --> A_1  D_1  S_1  
     e( 35 - 35) =      5.59091  eV     1   --> B_1  D_3  S_3  
     e( 36 - 36) =      6.15471  eV     1   --> B_1  D_3  S_3  
     e( 37 - 37) =      6.27475  eV     1   --> A_1  D_1  S_1  
     e( 38 - 38) =      6.42892  eV     1   --> B_2  D_4  S_4  
     e( 39 - 39) =      7.11425  eV     1   --> B_2  D_4  S_4  
     e( 40 - 40) =      7.19347  eV     1   --> A_1  D_1  S_1  
     e( 41 - 41) =      8.58543  eV     1   --> B_2  D_4  S_4  
     e( 42 - 42) =      9.11616  eV     1   --> A_1  D_1  S_1  
     e( 43 - 43) =     10.01354  eV     1   --> A_1  D_1  S_1  
     e( 44 - 44) =     10.03230  eV     1   --> B_1  D_3  S_3  
     e( 45 - 45) =     10.41659  eV     1   --> B_2  D_4  S_4  
     e( 46 - 46) =     10.83463  eV     1   --> B_2  D_4  S_4  
     e( 47 - 47) =     11.02469  eV     1   --> A_2  D_2  S_2  
     e( 48 - 48) =     11.38623  eV     1   --> B_1  D_3  S_3  
     e( 49 - 49) =     11.90670  eV     1   --> B_2  D_4  S_4  
     e( 50 - 50) =     12.11880  eV     1   --> A_1  D_1  S_1  

 **************************************************************************

 **************************************************************************

                    xk=(   0.00000,   0.00000,   0.59156  )

     Band symmetry, C_2v (mm2)  point group:

     e(  1 -  1) =    -13.75653  eV     1   --> B_2  D_4  S_4  
     e(  2 -  2) =    -13.74658  eV     1   --> A_1  D_1  S_1  
     e(  3 -  3) =    -13.74630  eV     1   --> B_2  D_4  S_4  
     e(  4 -  4) =    -13.74211  eV     1   --> B_1  D_3  S_3  
     e(  5 -  5) =    -13.74130  eV     1   --> A_1  D_1  S_1  
     e(  6 -  6) =    -13.74009  eV     1   --> A_2  D_2  S_2  
     e(  7 -  7) =    -13.73465  eV     1   --> B_1  D_3  S_3  
     e(  8 -  8) =    -13.73328  eV     1   --> A_2  D_2  S_2  
     e(  9 -  9) =    -13.72614  eV     1   --> A_2  D_2  S_2  
     e( 10 - 10) =    -13.72227  eV     1   --> B_1  D_3  S_3  
     e( 11 - 11) =    -13.71987  eV     1   --> B_2  D_4  S_4  
     e( 12 - 12) =    -13.71723  eV     1   --> B_2  D_4  S_4  
     e( 13 - 13) =    -13.71051  eV     1   --> A_1  D_1  S_1  
     e( 14 - 14) =    -13.70837  eV     1   --> A_1  D_1  S_1  
     e( 15 - 15) =    -13.69195  eV     1   --> B_2  D_4  S_4  
     e( 16 - 16) =    -13.68663  eV     1   --> B_2  D_4  S_4  
     e( 17 - 17) =    -13.68610  eV     1   --> A_1  D_1  S_1  
     e( 18 - 18) =    -13.68235  eV     1   --> A_1  D_1  S_1  
     e( 19 - 19) =    -13.67390  eV     1   --> A_2  D_2  S_2  
     e( 20 - 20) =    -13.66896  eV     1   --> B_1  D_3  S_3  
     e( 21 - 21) =     -5.83362  eV     1   --> A_1  D_1  S_1  
     e( 22 - 22) =     -5.51748  eV     1   --> A_1  D_1  S_1  
     e( 23 - 23) =     -5.06964  eV     1   --> B_2  D_4  S_4  
     e( 24 - 24) =     -4.68208  eV     1   --> B_2  D_4  S_4  
     e( 25 - 25) =     -0.12941  eV     1   --> B_2  D_4  S_4  
     e( 26 - 26) =      0.98460  eV     1   --> A_1  D_1  S_1  
     e( 27 - 27) =      1.14717  eV     1   --> B_2  D_4  S_4  
     e( 28 - 28) =      1.97377  eV     1   --> A_1  D_1  S_1  
     e( 29 - 29) =      3.03555  eV     1   --> A_1  D_1  S_1  
     e( 30 - 30) =      4.60442  eV     1   --> B_2  D_4  S_4  
     e( 31 - 31) =      4.72648  eV     1   --> A_2  D_2  S_2  
     e( 32 - 32) =      5.17878  eV     1   --> A_2  D_2  S_2  
     e( 33 - 33) =      5.27746  eV     1   --> B_2  D_4  S_4  
     e( 34 - 34) =      5.60885  eV     1   --> B_1  D_3  S_3  
     e( 35 - 35) =      5.61948  eV     1   --> A_1  D_1  S_1  
     e( 36 - 36) =      6.15693  eV     1   --> B_1  D_3  S_3  
     e( 37 - 37) =      6.37140  eV     1   --> A_1  D_1  S_1  
     e( 38 - 38) =      6.39313  eV     1   --> B_2  D_4  S_4  
     e( 39 - 39) =      7.09872  eV     1   --> B_2  D_4  S_4  
     e( 40 - 40) =      7.26900  eV     1   --> A_1  D_1  S_1  
     e( 41 - 41) =      8.63650  eV     1   --> B_2  D_4  S_4  
     e( 42 - 42) =      8.99997  eV     1   --> A_1  D_1  S_1  
     e( 43 - 43) =      9.89031  eV     1   --> A_1  D_1  S_1  
     e( 44 - 44) =      9.93697  eV     1   --> B_1  D_3  S_3  
     e( 45 - 45) =     10.36745  eV     1   --> B_2  D_4  S_4  
     e( 46 - 46) =     10.82513  eV     1   --> B_2  D_4  S_4  
     e( 47 - 47) =     10.90327  eV     1   --> A_2  D_2  S_2  
     e( 48 - 48) =     11.30686  eV     1   --> B_1  D_3  S_3  
     e( 49 - 49) =     11.97541  eV     1   --> B_2  D_4  S_4  
     e( 50 - 50) =     12.04145  eV     1   --> A_1  D_1  S_1  

 **************************************************************************

 **************************************************************************

                    xk=(   0.00000,   0.00000,   0.63382  )

     Band symmetry, C_2v (mm2)  point group:

     e(  1 -  1) =    -13.75620  eV     1   --> B_2  D_4  S_4  
     e(  2 -  2) =    -13.74670  eV     1   --> A_1  D_1  S_1  
     e(  3 -  3) =    -13.74611  eV     1   --> B_2  D_4  S_4  
     e(  4 -  4) =    -13.74229  eV     1   --> B_1  D_3  S_3  
     e(  5 -  5) =    -13.74132  eV     1   --> A_1  D_1  S_1  
     e(  6 -  6) =    -13.74039  eV     1   --> A_2  D_2  S_2  
     e(  7 -  7) =    -13.73471  eV     1   --> B_1  D_3  S_3  
     e(  8 -  8) =    -13.73334  eV     1   --> A_2  D_2  S_2  
     e(  9 -  9) =    -13.72611  eV     1   --> A_2  D_2  S_2  
     e( 10 - 10) =    -13.72238  eV     1   --> B_1  D_3  S_3  
     e( 11 - 11) =    -13.71940  eV     1   --> B_2  D_4  S_4  
     e( 12 - 12) =    -13.71671  eV     1   --> B_2  D_4  S_4  
     e( 13 - 13) =    -13.71042  eV     1   --> A_1  D_1  S_1  
     e( 14 - 14) =    -13.70841  eV     1   --> A_1  D_1  S_1  
     e( 15 - 15) =    -13.69192  eV     1   --> B_2  D_4  S_4  
     e( 16 - 16) =    -13.68649  eV     1   --> B_2  D_4  S_4  
     e( 17 - 17) =    -13.68630  eV     1   --> A_1  D_1  S_1  
     e( 18 - 18) =    -13.68245  eV     1   --> A_1  D_1  S_1  
     e( 19 - 19) =    -13.67378  eV     1   --> A_2  D_2  S_2  
     e( 20 - 20) =    -13.66908  eV     1   --> B_1  D_3  S_3  
     e( 21 - 21) =     -5.80615  eV     1   --> A_1  D_1  S_1  
     e( 22 - 22) =     -5.49230  eV     1   --> A_1  D_1  S_1  
     e( 23 - 23) =     -5.07299  eV     1   --> B_2  D_4  S_4  
     e( 24 - 24) =     -4.69389  eV     1   --> B_2  D_4  S_4  
     e( 25 - 25) =     -0.17628  eV     1   --> B_2  D_4  S_4  
     e( 26 - 26) =      0.88006  eV     1   --> A_1  D_1  S_1  
     e( 27 - 27) =      1.11518  eV     1   --> B_2  D_4  S_4  
     e( 28 - 28) =      1.90592  eV     1   --> A_1  D_1  S_1  
     e( 29 - 29) =      3.07262  eV     1   --> A_1  D_1  S_1  
     e( 30 - 30) =      4.63662  eV     1   --> B_2  D_4  S_4  
     e( 31 - 31) =      4.76953  eV     1   --> A_2  D_2  S_2  
     e( 32 - 32) =      5.21612  eV     1   --> A_2  D_2  S_2  
     e( 33 - 33) =      5.34977  eV     1   --> B_2  D_4  S_4  
     e( 34 - 34) =      5.62625  eV     1   --> B_1  D_3  S_3  
     e( 35 - 35) =      5.67582  eV     1   --> A_1  D_1  S_1  
     e( 36 - 36) =      6.15765  eV     1   --> B_1  D_3  S_3  
     e( 37 - 37) =      6.36472  eV     1   --> B_2  D_4  S_4  
     e( 38 - 38) =      6.47483  eV     1   --> A_1  D_1  S_1  
     e( 39 - 39) =      7.08176  eV     1   --> B_2  D_4  S_4  
     e( 40 - 40) =      7.34255  eV     1   --> A_1  D_1  S_1  
     e( 41 - 41) =      8.69286  eV     1   --> B_2  D_4  S_4  
     e( 42 - 42) =      8.88751  eV     1   --> A_1  D_1  S_1  
     e( 43 - 43) =      9.76461  eV     1   --> A_1  D_1  S_1  
     e( 44 - 44) =      9.84500  eV     1   --> B_1  D_3  S_3  
     e( 45 - 45) =     10.30748  eV     1   --> B_2  D_4  S_4  
     e( 46 - 46) =     10.78145  eV     1   --> A_2  D_2  S_2  
     e( 47 - 47) =     10.80160  eV     1   --> B_2  D_4  S_4  
     e( 48 - 48) =     11.23070  eV     1   --> B_1  D_3  S_3  
     e( 49 - 49) =     11.94708  eV     1   --> A_1  D_1  S_1  
     e( 50 - 50) =     12.05240  eV     1   --> B_2  D_4  S_4  

 **************************************************************************

 **************************************************************************

                    xk=(   0.00000,   0.00000,   0.67607  )

     Band symmetry, C_2v (mm2)  point group:

     e(  1 -  1) =    -13.75585  eV     1   --> B_2  D_4  S_4  
     e(  2 -  2) =    -13.74684  eV     1   --> A_1  D_1  S_1  
     e(  3 -  3) =    -13.74592  eV     1   --> B_2  D_4  S_4  
     e(  4 -  4) =    -13.74248  eV     1   --> B_1  D_3  S_3  
     e(  5 -  5) =    -13.74134  eV     1   --> A_1  D_1  S_1  
     e(  6 -  6) =    -13.74068  eV     1   --> A_2  D_2  S_2  
     e(  7 -  7) =    -13.73475  eV     1   --> B_1  D_3  S_3  
     e(  8 -  8) =    -13.73340  eV     1   --> A_2  D_2  S_2  
     e(  9 -  9) =    -13.72607  eV     1   --> A_2  D_2  S_2  
     e( 10 - 10) =    -13.72249  eV     1   --> B_1  D_3  S_3  
     e( 11 - 11) =    -13.71892  eV     1   --> B_2  D_4  S_4  
     e( 12 - 12) =    -13.71619  eV     1   --> B_2  D_4  S_4  
     e( 13 - 13) =    -13.71036  eV     1   --> A_1  D_1  S_1  
     e( 14 - 14) =    -13.70844  eV     1   --> A_1  D_1  S_1  
     e( 15 - 15) =    -13.69189  eV     1   --> B_2  D_4  S_4  
     e( 16 - 16) =    -13.68653  eV     1   --> A_1  D_1  S_1  
     e( 17 - 17) =    -13.68634  eV     1   --> B_2  D_4  S_4  
     e( 18 - 18) =    -13.68256  eV     1   --> A_1  D_1  S_1  
     e( 19 - 19) =    -13.67365  eV     1   --> A_2  D_2  S_2  
     e( 20 - 20) =    -13.66921  eV     1   --> B_1  D_3  S_3  
     e( 21 - 21) =     -5.77735  eV     1   --> A_1  D_1  S_1  
     e( 22 - 22) =     -5.46588  eV     1   --> A_1  D_1  S_1  
     e( 23 - 23) =     -5.07756  eV     1   --> B_2  D_4  S_4  
     e( 24 - 24) =     -4.70698  eV     1   --> B_2  D_4  S_4  
     e( 25 - 25) =     -0.22000  eV     1   --> B_2  D_4  S_4  
     e( 26 - 26) =      0.77690  eV     1   --> A_1  D_1  S_1  
     e( 27 - 27) =      1.08508  eV     1   --> B_2  D_4  S_4  
     e( 28 - 28) =      1.83712  eV     1   --> A_1  D_1  S_1  
     e( 29 - 29) =      3.11419  eV     1   --> A_1  D_1  S_1  
     e( 30 - 30) =      4.66160  eV     1   --> B_2  D_4  S_4  
     e( 31 - 31) =      4.81476  eV     1   --> A_2  D_2  S_2  
     e( 32 - 32) =      5.25522  eV     1   --> A_2  D_2  S_2  
     e( 33 - 33) =      5.42102  eV     1   --> B_2  D_4  S_4  
     e( 34 - 34) =      5.64266  eV     1   --> B_1  D_3  S_3  
     e( 35 - 35) =      5.72795  eV     1   --> A_1  D_1  S_1  
     e( 36 - 36) =      6.15658  eV     1   --> B_1  D_3  S_3  
     e( 37 - 37) =      6.34563  eV     1   --> B_2  D_4  S_4  
     e( 38 - 38) =      6.58295  eV     1   --> A_1  D_1  S_1  
     e( 39 - 39) =      7.06387  eV     1   --> B_2  D_4  S_4  
     e( 40 - 40) =      7.41179  eV     1   --> A_1  D_1  S_1  
     e( 41 - 41) =      8.75409  eV     1   --> B_2  D_4  S_4  
     e( 42 - 42) =      8.78132  eV     1   --> A_1  D_1  S_1  
     e( 43 - 43) =      9.63812  eV     1   --> A_1  D_1  S_1  
     e( 44 - 44) =      9.75741  eV     1   --> B_1  D_3  S_3  
     e( 45 - 45) =     10.23724  eV     1   --> B_2  D_4  S_4  
     e( 46 - 46) =     10.66012  eV     1   --> A_2  D_2  S_2  
     e( 47 - 47) =     10.76435  eV     1   --> B_2  D_4  S_4  
     e( 48 - 48) =     11.15875  eV     1   --> B_1  D_3  S_3  
     e( 49 - 49) =     11.84150  eV     1   --> A_1  D_1  S_1  
     e( 50 - 50) =     12.13722  eV     1   --> B_2  D_4  S_4  

 **************************************************************************

 **************************************************************************

                    xk=(   0.00000,   0.00000,   0.71833  )

     Band symmetry, C_2v (mm2)  point group:

     e(  1 -  1) =    -13.75549  eV     1   --> B_2  D_4  S_4  
     e(  2 -  2) =    -13.74701  eV     1   --> A_1  D_1  S_1  
     e(  3 -  3) =    -13.74574  eV     1   --> B_2  D_4  S_4  
     e(  4 -  4) =    -13.74267  eV     1   --> B_1  D_3  S_3  
     e(  5 -  5) =    -13.74140  eV     1   --> A_1  D_1  S_1  
     e(  6 -  6) =    -13.74097  eV     1   --> A_2  D_2  S_2  
     e(  7 -  7) =    -13.73480  eV     1   --> B_1  D_3  S_3  
     e(  8 -  8) =    -13.73348  eV     1   --> A_2  D_2  S_2  
     e(  9 -  9) =    -13.72602  eV     1   --> A_2  D_2  S_2  
     e( 10 - 10) =    -13.72261  eV     1   --> B_1  D_3  S_3  
     e( 11 - 11) =    -13.71842  eV     1   --> B_2  D_4  S_4  
     e( 12 - 12) =    -13.71567  eV     1   --> B_2  D_4  S_4  
     e( 13 - 13) =    -13.71033  eV     1   --> A_1  D_1  S_1  
     e( 14 - 14) =    -13.70848  eV     1   --> A_1  D_1  S_1  
     e( 15 - 15) =    -13.69186  eV     1   --> B_2  D_4  S_4  
     e( 16 - 16) =    -13.68677  eV     1   --> A_1  D_1  S_1  
     e( 17 - 17) =    -13.68622  eV     1   --> B_2  D_4  S_4  
     e( 18 - 18) =    -13.68269  eV     1   --> A_1  D_1  S_1  
     e( 19 - 19) =    -13.67354  eV     1   --> A_2  D_2  S_2  
     e( 20 - 20) =    -13.66935  eV     1   --> B_1  D_3  S_3  
     e( 21 - 21) =     -5.74738  eV     1   --> A_1  D_1  S_1  
     e( 22 - 22) =     -5.43830  eV     1   --> A_1  D_1  S_1  
     e( 23 - 23) =     -5.08351  eV     1   --> B_2  D_4  S_4  
     e( 24 - 24) =     -4.72140  eV     1   --> B_2  D_4  S_4  
     e( 25 - 25) =     -0.25998  eV     1   --> B_2  D_4  S_4  
     e( 26 - 26) =      0.67572  eV     1   --> A_1  D_1  S_1  
     e( 27 - 27) =      1.05740  eV     1   --> B_2  D_4  S_4  
     e( 28 - 28) =      1.76804  eV     1   --> A_1  D_1  S_1  
     e( 29 - 29) =      3.15997  eV     1   --> A_1  D_1  S_1  
     e( 30 - 30) =      4.67707  eV     1   --> B_2  D_4  S_4  
     e( 31 - 31) =      4.86199  eV     1   --> A_2  D_2  S_2  
     e( 32 - 32) =      5.29591  eV     1   --> A_2  D_2  S_2  
     e( 33 - 33) =      5.49157  eV     1   --> B_2  D_4  S_4  
     e( 34 - 34) =      5.65762  eV     1   --> B_1  D_3  S_3  
     e( 35 - 35) =      5.77691  eV     1   --> A_1  D_1  S_1  
     e( 36 - 36) =      6.15343  eV     1   --> B_1  D_3  S_3  
     e( 37 - 37) =      6.33728  eV     1   --> B_2  D_4  S_4  
     e( 38 - 38) =      6.69373  eV     1   --> A_1  D_1  S_1  
     e( 39 - 39) =      7.04570  eV     1   --> B_2  D_4  S_4  
     e( 40 - 40) =      7.47341  eV     1   --> A_1  D_1  S_1  
     e( 41 - 41) =      8.68479  eV     1   --> A_1  D_1  S_1  
     e( 42 - 42) =      8.81974  eV     1   --> B_2  D_4  S_4  
     e( 43 - 43) =      9.51241  eV     1   --> A_1  D_1  S_1  
     e( 44 - 44) =      9.67513  eV     1   --> B_1  D_3  S_3  
     e( 45 - 45) =     10.15768  eV     1   --> B_2  D_4  S_4  
     e( 46 - 46) =     10.54006  eV     1   --> A_2  D_2  S_2  
     e( 47 - 47) =     10.71444  eV     1   --> B_2  D_4  S_4  
     e( 48 - 48) =     11.09191  eV     1   --> B_1  D_3  S_3  
     e( 49 - 49) =     11.72860  eV     1   --> A_1  D_1  S_1  
     e( 50 - 50) =     12.03310  eV     1   --> A_2  D_2  S_2  

 **************************************************************************

 **************************************************************************

                    xk=(   0.00000,   0.00000,   0.76058  )

     Band symmetry, C_2v (mm2)  point group:

     e(  1 -  1) =    -13.75512  eV     1   --> B_2  D_4  S_4  
     e(  2 -  2) =    -13.74717  eV     1   --> A_1  D_1  S_1  
     e(  3 -  3) =    -13.74554  eV     1   --> B_2  D_4  S_4  
     e(  4 -  4) =    -13.74282  eV     1   --> B_1  D_3  S_3  
     e(  5 -  5) =    -13.74145  eV     1   --> A_1  D_1  S_1  
     e(  6 -  6) =    -13.74126  eV     1   --> A_2  D_2  S_2  
     e(  7 -  7) =    -13.73483  eV     1   --> B_1  D_3  S_3  
     e(  8 -  8) =    -13.73356  eV     1   --> A_2  D_2  S_2  
     e(  9 -  9) =    -13.72595  eV     1   --> A_2  D_2  S_2  
     e( 10 - 10) =    -13.72274  eV     1   --> B_1  D_3  S_3  
     e( 11 - 11) =    -13.71791  eV     1   --> B_2  D_4  S_4  
     e( 12 - 12) =    -13.71517  eV     1   --> B_2  D_4  S_4  
     e( 13 - 13) =    -13.71032  eV     1   --> A_1  D_1  S_1  
     e( 14 - 14) =    -13.70852  eV     1   --> A_1  D_1  S_1  
     e( 15 - 15) =    -13.69177  eV     1   --> B_2  D_4  S_4  
     e( 16 - 16) =    -13.68700  eV     1   --> A_1  D_1  S_1  
     e( 17 - 17) =    -13.68607  eV     1   --> B_2  D_4  S_4  
     e( 18 - 18) =    -13.68280  eV     1   --> A_1  D_1  S_1  
     e( 19 - 19) =    -13.67339  eV     1   --> A_2  D_2  S_2  
     e( 20 - 20) =    -13.66948  eV     1   --> B_1  D_3  S_3  
     e( 21 - 21) =     -5.71634  eV     1   --> A_1  D_1  S_1  
     e( 22 - 22) =     -5.40967  eV     1   --> A_1  D_1  S_1  
     e( 23 - 23) =     -5.09097  eV     1   --> B_2  D_4  S_4  
     e( 24 - 24) =     -4.73718  eV     1   --> B_2  D_4  S_4  
     e( 25 - 25) =     -0.29573  eV     1   --> B_2  D_4  S_4  
     e( 26 - 26) =      0.57703  eV     1   --> A_1  D_1  S_1  
     e( 27 - 27) =      1.03258  eV     1   --> B_2  D_4  S_4  
     e( 28 - 28) =      1.69929  eV     1   --> A_1  D_1  S_1  
     e( 29 - 29) =      3.20968  eV     1   --> A_1  D_1  S_1  
     e( 30 - 30) =      4.68120  eV     1   --> B_2  D_4  S_4  
     e( 31 - 31) =      4.91099  eV     1   --> A_2  D_2  S_2  
     e( 32 - 32) =      5.33799  eV     1   --> A_2  D_2  S_2  
     e( 33 - 33) =      5.56212  eV     1   --> B_2  D_4  S_4  
     e( 34 - 34) =      5.67062  eV     1   --> B_1  D_3  S_3  
     e( 35 - 35) =      5.82356  eV     1   --> A_1  D_1  S_1  
     e( 36 - 36) =      6.14792  eV     1   --> B_1  D_3  S_3  
     e( 37 - 37) =      6.34022  eV     1   --> B_2  D_4  S_4  
     e( 38 - 38) =      6.80514  eV     1   --> A_1  D_1  S_1  
     e( 39 - 39) =      7.02807  eV     1   --> B_2  D_4  S_4  
     e( 40 - 40) =      7.52284  eV     1   --> A_1  D_1  S_1  
     e( 41 - 41) =      8.60261  eV     1   --> A_1  D_1  S_1  
     e( 42 - 42) =      8.88930  eV     1   --> B_2  D_4  S_4  
     e( 43 - 43) =      9.38917  eV     1   --> A_1  D_1  S_1  
     e( 44 - 44) =      9.59904  eV     1   --> B_1  D_3  S_3  
     e( 45 - 45) =     10.07000  eV     1   --> B_2  D_4  S_4  
     e( 46 - 46) =     10.42201  eV     1   --> A_2  D_2  S_2  
     e( 47 - 47) =     10.65342  eV     1   --> B_2  D_4  S_4  
     e( 48 - 48) =     11.03099  eV     1   --> B_1  D_3  S_3  
     e( 49 - 49) =     11.61095  eV     1   --> A_1  D_1  S_1  
     e( 50 - 50) =     11.92224  eV     1   --> A_2  D_2  S_2  

 **************************************************************************

 **************************************************************************

                    xk=(   0.00000,   0.00000,   0.80283  )

     Band symmetry, C_2v (mm2)  point group:

     e(  1 -  1) =    -13.75472  eV     1   --> B_2  D_4  S_4  
     e(  2 -  2) =    -13.74736  eV     1   --> A_1  D_1  S_1  
     e(  3 -  3) =    -13.74533  eV     1   --> B_2  D_4  S_4  
     e(  4 -  4) =    -13.74297  eV     1   --> B_1  D_3  S_3  
     e(  5 -  6) =    -13.74152  eV     2   --> A_1  D_1  S_1  
     e(  5 -  6) =    -13.74152  eV     2   --> A_2  D_2  S_2  
     e(  7 -  7) =    -13.73485  eV     1   --> B_1  D_3  S_3  
     e(  8 -  8) =    -13.73363  eV     1   --> A_2  D_2  S_2  
     e(  9 -  9) =    -13.72587  eV     1   --> A_2  D_2  S_2  
     e( 10 - 10) =    -13.72286  eV     1   --> B_1  D_3  S_3  
     e( 11 - 11) =    -13.71740  eV     1   --> B_2  D_4  S_4  
     e( 12 - 12) =    -13.71466  eV     1   --> B_2  D_4  S_4  
     e( 13 - 13) =    -13.71033  eV     1   --> A_1  D_1  S_1  
     e( 14 - 14) =    -13.70856  eV     1   --> A_1  D_1  S_1  
     e( 15 - 15) =    -13.69168  eV     1   --> B_2  D_4  S_4  
     e( 16 - 16) =    -13.68724  eV     1   --> A_1  D_1  S_1  
     e( 17 - 17) =    -13.68590  eV     1   --> B_2  D_4  S_4  
     e( 18 - 18) =    -13.68292  eV     1   --> A_1  D_1  S_1  
     e( 19 - 19) =    -13.67323  eV     1   --> A_2  D_2  S_2  
     e( 20 - 20) =    -13.66962  eV     1   --> B_1  D_3  S_3  
     e( 21 - 21) =     -5.68440  eV     1   --> A_1  D_1  S_1  
     e( 22 - 22) =     -5.38011  eV     1   --> A_1  D_1  S_1  
     e( 23 - 23) =     -5.10007  eV     1   --> B_2  D_4  S_4  
     e( 24 - 24) =     -4.75435  eV     1   --> B_2  D_4  S_4  
     e( 25 - 25) =     -0.32678  eV     1   --> B_2  D_4  S_4  
     e( 26 - 26) =      0.48129  eV     1   --> A_1  D_1  S_1  
     e( 27 - 27) =      1.01108  eV     1   --> B_2  D_4  S_4  
     e( 28 - 28) =      1.63143  eV     1   --> A_1  D_1  S_1  
     e( 29 - 29) =      3.26306  eV     1   --> A_1  D_1  S_1  
     e( 30 - 30) =      4.67285  eV     1   --> B_2  D_4  S_4  
     e( 31 - 31) =      4.96154  eV     1   --> A_2  D_2  S_2  
     e( 32 - 32) =      5.38127  eV     1   --> A_2  D_2  S_2  
     e( 33 - 33) =      5.63357  eV     1   --> B_2  D_4  S_4  
     e( 34 - 34) =      5.68116  eV     1   --> B_1  D_3  S_3  
     e( 35 - 35) =      5.86853  eV     1   --> A_1  D_1  S_1  
     e( 36 - 36) =      6.13983  eV     1   --> B_1  D_3  S_3  
     e( 37 - 37) =      6.35379  eV     1   --> B_2  D_4  S_4  
     e( 38 - 38) =      6.91512  eV     1   --> A_1  D_1  S_1  
     e( 39 - 39) =      7.01207  eV     1   --> B_2  D_4  S_4  
     e( 40 - 40) =      7.55437  eV     1   --> A_1  D_1  S_1  
     e( 41 - 41) =      8.54049  eV     1   --> A_1  D_1  S_1  
     e( 42 - 42) =      8.96218  eV     1   --> B_2  D_4  S_4  
     e( 43 - 43) =      9.27023  eV     1   --> A_1  D_1  S_1  
     e( 44 - 44) =      9.52998  eV     1   --> B_1  D_3  S_3  
     e( 45 - 45) =      9.97548  eV     1   --> B_2  D_4  S_4  
     e( 46 - 46) =     10.30666  eV     1   --> A_2  D_2  S_2  
     e( 47 - 47) =     10.58314  eV     1   --> B_2  D_4  S_4  
     e( 48 - 48) =     10.97672  eV     1   --> B_1  D_3  S_3  
     e( 49 - 49) =     11.49026  eV     1   --> A_1  D_1  S_1  
     e( 50 - 50) =     11.81363  eV     1   --> A_2  D_2  S_2  

 **************************************************************************

 **************************************************************************

                    xk=(   0.00000,   0.00000,   0.84509  )

     Band symmetry, C_2v (mm2)  point group:

     e(  1 -  1) =    -13.75433  eV     1   --> B_2  D_4  S_4  
     e(  2 -  2) =    -13.74756  eV     1   --> A_1  D_1  S_1  
     e(  3 -  3) =    -13.74512  eV     1   --> B_2  D_4  S_4  
     e(  4 -  4) =    -13.74310  eV     1   --> B_1  D_3  S_3  
     e(  5 -  5) =    -13.74179  eV     1   --> A_2  D_2  S_2  
     e(  6 -  6) =    -13.74160  eV     1   --> A_1  D_1  S_1  
     e(  7 -  7) =    -13.73487  eV     1   --> B_1  D_3  S_3  
     e(  8 -  8) =    -13.73372  eV     1   --> A_2  D_2  S_2  
     e(  9 -  9) =    -13.72578  eV     1   --> A_2  D_2  S_2  
     e( 10 - 10) =    -13.72299  eV     1   --> B_1  D_3  S_3  
     e( 11 - 11) =    -13.71688  eV     1   --> B_2  D_4  S_4  
     e( 12 - 12) =    -13.71416  eV     1   --> B_2  D_4  S_4  
     e( 13 - 13) =    -13.71037  eV     1   --> A_1  D_1  S_1  
     e( 14 - 14) =    -13.70860  eV     1   --> A_1  D_1  S_1  
     e( 15 - 15) =    -13.69158  eV     1   --> B_2  D_4  S_4  
     e( 16 - 16) =    -13.68748  eV     1   --> A_1  D_1  S_1  
     e( 17 - 17) =    -13.68575  eV     1   --> B_2  D_4  S_4  
     e( 18 - 18) =    -13.68304  eV     1   --> A_1  D_1  S_1  
     e( 19 - 19) =    -13.67309  eV     1   --> A_2  D_2  S_2  
     e( 20 - 20) =    -13.66976  eV     1   --> B_1  D_3  S_3  
     e( 21 - 21) =     -5.65170  eV     1   --> A_1  D_1  S_1  
     e( 22 - 22) =     -5.34973  eV     1   --> A_1  D_1  S_1  
     e( 23 - 23) =     -5.11092  eV     1   --> B_2  D_4  S_4  
     e( 24 - 24) =     -4.77294  eV     1   --> B_2  D_4  S_4  
     e( 25 - 25) =     -0.35271  eV     1   --> B_2  D_4  S_4  
     e( 26 - 26) =      0.38891  eV     1   --> A_1  D_1  S_1  
     e( 27 - 27) =      0.99324  eV     1   --> B_2  D_4  S_4  
     e( 28 - 28) =      1.56497  eV     1   --> A_1  D_1  S_1  
     e( 29 - 29) =      3.31987  eV     1   --> A_1  D_1  S_1  
     e( 30 - 30) =      4.65181  eV     1   --> B_2  D_4  S_4  
     e( 31 - 31) =      5.01337  eV     1   --> A_2  D_2  S_2  
     e( 32 - 32) =      5.42550  eV     1   --> A_2  D_2  S_2  
     e( 33 - 33) =      5.68869  eV     1   --> B_1  D_3  S_3  
     e( 34 - 34) =      5.70677  eV     1   --> B_2  D_4  S_4  
     e( 35 - 35) =      5.91228  eV     1   --> A_1  D_1  S_1  
     e( 36 - 36) =      6.12896  eV     1   --> B_1  D_3  S_3  
     e( 37 - 37) =      6.37608  eV     1   --> B_2  D_4  S_4  
     e( 38 - 38) =      6.99919  eV     1   --> B_2  D_4  S_4  
     e( 39 - 39) =      7.02124  eV     1   --> A_1  D_1  S_1  
     e( 40 - 40) =      7.56258  eV     1   --> A_1  D_1  S_1  
     e( 41 - 41) =      8.50385  eV     1   --> A_1  D_1  S_1  
     e( 42 - 42) =      9.03767  eV     1   --> B_2  D_4  S_4  
     e( 43 - 43) =      9.15794  eV     1   --> A_1  D_1  S_1  
     e( 44 - 44) =      9.46871  eV     1   --> B_1  D_3  S_3  
     e( 45 - 45) =      9.87542  eV     1   --> B_2  D_4  S_4  
     e( 46 - 46) =     10.19463  eV     1   --> A_2  D_2  S_2  
     e( 47 - 47) =     10.50560  eV     1   --> B_2  D_4  S_4  
     e( 48 - 48) =     10.92972  eV     1   --> B_1  D_3  S_3  
     e( 49 - 49) =     11.36781  eV     1   --> A_1  D_1  S_1  
     e( 50 - 50) =     11.70790  eV     1   --> A_2  D_2  S_2  

 **************************************************************************

 **************************************************************************

                    xk=(   0.00000,   0.00000,   0.88734  )

     Band symmetry, C_2v (mm2)  point group:

     e(  1 -  1) =    -13.75394  eV     1   --> B_2  D_4  S_4  
     e(  2 -  2) =    -13.74778  eV     1   --> A_1  D_1  S_1  
     e(  3 -  3) =    -13.74491  eV     1   --> B_2  D_4  S_4  
     e(  4 -  4) =    -13.74324  eV     1   --> B_1  D_3  S_3  
     e(  5 -  5) =    -13.74204  eV     1   --> A_2  D_2  S_2  
     e(  6 -  6) =    -13.74170  eV     1   --> A_1  D_1  S_1  
     e(  7 -  7) =    -13.73490  eV     1   --> B_1  D_3  S_3  
     e(  8 -  8) =    -13.73381  eV     1   --> A_2  D_2  S_2  
     e(  9 -  9) =    -13.72568  eV     1   --> A_2  D_2  S_2  
     e( 10 - 10) =    -13.72312  eV     1   --> B_1  D_3  S_3  
     e( 11 - 11) =    -13.71637  eV     1   --> B_2  D_4  S_4  
     e( 12 - 12) =    -13.71365  eV     1   --> B_2  D_4  S_4  
     e( 13 - 13) =    -13.71045  eV     1   --> A_1  D_1  S_1  
     e( 14 - 14) =    -13.70866  eV     1   --> A_1  D_1  S_1  
     e( 15 - 15) =    -13.69147  eV     1   --> B_2  D_4  S_4  
     e( 16 - 16) =    -13.68772  eV     1   --> A_1  D_1  S_1  
     e( 17 - 17) =    -13.68560  eV     1   --> B_2  D_4  S_4  
     e( 18 - 18) =    -13.68316  eV     1   --> A_1  D_1  S_1  
     e( 19 - 19) =    -13.67294  eV     1   --> A_2  D_2  S_2  
     e( 20 - 20) =    -13.66992  eV     1   --> B_1  D_3  S_3  
     e( 21 - 21) =     -5.61840  eV     1   --> A_1  D_1  S_1  
     e( 22 - 22) =     -5.31866  eV     1   --> A_1  D_1  S_1  
     e( 23 - 23) =     -5.12361  eV     1   --> B_2  D_4  S_4  
     e( 24 - 24) =     -4.79295  eV     1   --> B_2  D_4  S_4  
     e( 25 - 25) =     -0.37320  eV     1   --> B_2  D_4  S_4  
     e( 26 - 26) =      0.30026  eV     1   --> A_1  D_1  S_1  
     e( 27 - 27) =      0.97937  eV     1   --> B_2  D_4  S_4  
     e( 28 - 28) =      1.50038  eV     1   --> A_1  D_1  S_1  
     e( 29 - 29) =      3.37987  eV     1   --> A_1  D_1  S_1  
     e( 30 - 30) =      4.61875  eV     1   --> B_2  D_4  S_4  
     e( 31 - 31) =      5.06617  eV     1   --> A_2  D_2  S_2  
     e( 32 - 32) =      5.47046  eV     1   --> A_2  D_2  S_2  
     e( 33 - 33) =      5.69272  eV     1   --> B_1  D_3  S_3  
     e( 34 - 34) =      5.78230  eV     1   --> B_2  D_4  S_4  
     e( 35 - 35) =      5.95510  eV     1   --> A_1  D_1  S_1  
     e( 36 - 36) =      6.11516  eV     1   --> B_1  D_3  S_3  
     e( 37 - 37) =      6.40402  eV     1   --> B_2  D_4  S_4  
     e( 38 - 38) =      6.99142  eV     1   --> B_2  D_4  S_4  
     e( 39 - 39) =      7.12010  eV     1   --> A_1  D_1  S_1  
     e( 40 - 40) =      7.54551  eV     1   --> A_1  D_1  S_1  
     e( 41 - 41) =      8.49473  eV     1   --> A_1  D_1  S_1  
     e( 42 - 42) =      9.05554  eV     1   --> A_1  D_1  S_1  
     e( 43 - 43) =      9.11485  eV     1   --> B_2  D_4  S_4  
     e( 44 - 44) =      9.41592  eV     1   --> B_1  D_3  S_3  
     e( 45 - 45) =      9.77103  eV     1   --> B_2  D_4  S_4  
     e( 46 - 46) =     10.08655  eV     1   --> A_2  D_2  S_2  
     e( 47 - 47) =     10.42293  eV     1   --> B_2  D_4  S_4  
     e( 48 - 48) =     10.89052  eV     1   --> B_1  D_3  S_3  
     e( 49 - 49) =     11.24456  eV     1   --> A_1  D_1  S_1  
[...]

 **************************************************************************

                    xk=(   0.50000,   1.24592,   1.26763  )

     zone border point and non-symmorphic group 
     symmetry decomposition not available

 **************************************************************************

 **************************************************************************

                    xk=(   0.50000,   1.29207,   1.26763  )

     zone border point and non-symmorphic group 
     symmetry decomposition not available

 **************************************************************************

 **************************************************************************

                    xk=(   0.50000,   1.33821,   1.26763  )

     zone border point and non-symmorphic group 
     symmetry decomposition not available

 **************************************************************************

 **************************************************************************

                    xk=(   0.50000,   1.38436,   1.26763  )

     zone border point and non-symmorphic group 
     symmetry decomposition not available

 **************************************************************************

 **************************************************************************

                    xk=(   0.50000,   1.38436,   1.22538  )

     zone border point and non-symmorphic group 
     symmetry decomposition not available

 **************************************************************************

 **************************************************************************

                    xk=(   0.50000,   1.38436,   1.18312  )

     zone border point and non-symmorphic group 
     symmetry decomposition not available

 **************************************************************************

 **************************************************************************

                    xk=(   0.50000,   1.38436,   1.14087  )

     zone border point and non-symmorphic group 
     symmetry decomposition not available

 **************************************************************************

 **************************************************************************

                    xk=(   0.50000,   1.38436,   1.09861  )

     zone border point and non-symmorphic group 
     symmetry decomposition not available

 **************************************************************************

 **************************************************************************

                    xk=(   0.50000,   1.38436,   1.05636  )

     zone border point and non-symmorphic group 
     symmetry decomposition not available

 **************************************************************************

 **************************************************************************

                    xk=(   0.50000,   1.38436,   1.01411  )

     zone border point and non-symmorphic group 
     symmetry decomposition not available

 **************************************************************************

 **************************************************************************

                    xk=(   0.50000,   1.38436,   0.97185  )

     zone border point and non-symmorphic group 
     symmetry decomposition not available

 **************************************************************************

 **************************************************************************

                    xk=(   0.50000,   1.38436,   0.92960  )

     zone border point and non-symmorphic group 
     symmetry decomposition not available

 **************************************************************************

 **************************************************************************

                    xk=(   0.50000,   1.38436,   0.88734  )

     zone border point and non-symmorphic group 
     symmetry decomposition not available

 **************************************************************************

 **************************************************************************

                    xk=(   0.50000,   1.38436,   0.84509  )

     zone border point and non-symmorphic group 
     symmetry decomposition not available

 **************************************************************************

 **************************************************************************

                    xk=(   0.50000,   1.38436,   0.80283  )

     zone border point and non-symmorphic group 
     symmetry decomposition not available

 **************************************************************************

 **************************************************************************

                    xk=(   0.50000,   1.38436,   0.76058  )

     zone border point and non-symmorphic group 
     symmetry decomposition not available

 **************************************************************************

 **************************************************************************

                    xk=(   0.50000,   1.38436,   0.71833  )

     zone border point and non-symmorphic group 
     symmetry decomposition not available

 **************************************************************************

 **************************************************************************

                    xk=(   0.50000,   1.38436,   0.67607  )

     zone border point and non-symmorphic group 
     symmetry decomposition not available

 **************************************************************************

 **************************************************************************

                    xk=(   0.50000,   1.38436,   0.63382  )

     zone border point and non-symmorphic group 
     symmetry decomposition not available

 **************************************************************************

 **************************************************************************

                    xk=(   0.50000,   1.38436,   0.59156  )

     zone border point and non-symmorphic group 
     symmetry decomposition not available

 **************************************************************************

 **************************************************************************

                    xk=(   0.50000,   1.38436,   0.54931  )

     zone border point and non-symmorphic group 
     symmetry decomposition not available

 **************************************************************************

 **************************************************************************

                    xk=(   0.50000,   1.38436,   0.50705  )

     zone border point and non-symmorphic group 
     symmetry decomposition not available

 **************************************************************************

 **************************************************************************

                    xk=(   0.50000,   1.38436,   0.46480  )

     zone border point and non-symmorphic group 
     symmetry decomposition not available

 **************************************************************************

 **************************************************************************

                    xk=(   0.50000,   1.38436,   0.42254  )

     zone border point and non-symmorphic group 
     symmetry decomposition not available

 **************************************************************************

 **************************************************************************

                    xk=(   0.50000,   1.38436,   0.38029  )

     zone border point and non-symmorphic group 
     symmetry decomposition not available

 **************************************************************************

 **************************************************************************

                    xk=(   0.50000,   1.38436,   0.33804  )

     zone border point and non-symmorphic group 
     symmetry decomposition not available

 **************************************************************************

 **************************************************************************

                    xk=(   0.50000,   1.38436,   0.29578  )

     zone border point and non-symmorphic group 
     symmetry decomposition not available

 **************************************************************************

 **************************************************************************

                    xk=(   0.50000,   1.38436,   0.25353  )

     zone border point and non-symmorphic group 
     symmetry decomposition not available

 **************************************************************************

 **************************************************************************

                    xk=(   0.50000,   1.38436,   0.21127  )

     zone border point and non-symmorphic group 
     symmetry decomposition not available

 **************************************************************************

 **************************************************************************

                    xk=(   0.50000,   1.38436,   0.16902  )

     zone border point and non-symmorphic group 
     symmetry decomposition not available

 **************************************************************************

 **************************************************************************

                    xk=(   0.50000,   1.38436,   0.12676  )

     zone border point and non-symmorphic group 
     symmetry decomposition not available

 **************************************************************************

 **************************************************************************

                    xk=(   0.50000,   1.38436,   0.08451  )

     zone border point and non-symmorphic group 
     symmetry decomposition not available

 **************************************************************************

 **************************************************************************

                    xk=(   0.50000,   1.38436,   0.04225  )

     zone border point and non-symmorphic group 
     symmetry decomposition not available

 **************************************************************************

 **************************************************************************

                    xk=(   0.50000,   1.38436,   0.00000  )

     zone border point and non-symmorphic group 
     symmetry decomposition not available

 **************************************************************************

 **************************************************************************

                    xk=(   0.50000,   1.33821,   0.00000  )

     zone border point and non-symmorphic group 
     symmetry decomposition not available

 **************************************************************************

 **************************************************************************

                    xk=(   0.50000,   1.29207,   0.00000  )

     zone border point and non-symmorphic group 
     symmetry decomposition not available

 **************************************************************************

 **************************************************************************

                    xk=(   0.50000,   1.24592,   0.00000  )

     zone border point and non-symmorphic group 
     symmetry decomposition not available

 **************************************************************************

 **************************************************************************

                    xk=(   0.50000,   1.19977,   0.00000  )

     zone border point and non-symmorphic group 
     symmetry decomposition not available

 **************************************************************************

 **************************************************************************

                    xk=(   0.50000,   1.15363,   0.00000  )

     zone border point and non-symmorphic group 
     symmetry decomposition not available

 **************************************************************************

 **************************************************************************

                    xk=(   0.50000,   1.10748,   0.00000  )

     zone border point and non-symmorphic group 
     symmetry decomposition not available

 **************************************************************************

 **************************************************************************

                    xk=(   0.50000,   1.06134,   0.00000  )

     zone border point and non-symmorphic group 
     symmetry decomposition not available

 **************************************************************************

 **************************************************************************

                    xk=(   0.50000,   1.01519,   0.00000  )

     zone border point and non-symmorphic group 
     symmetry decomposition not available

 **************************************************************************

 **************************************************************************

                    xk=(   0.50000,   0.96905,   0.00000  )

     zone border point and non-symmorphic group 
     symmetry decomposition not available

 **************************************************************************

 **************************************************************************

                    xk=(   0.50000,   0.92290,   0.00000  )

     zone border point and non-symmorphic group 
     symmetry decomposition not available

 **************************************************************************

 **************************************************************************

                    xk=(   0.50000,   0.87676,   0.00000  )

     zone border point and non-symmorphic group 
     symmetry decomposition not available

 **************************************************************************

 **************************************************************************

                    xk=(   0.50000,   0.83061,   0.00000  )

     zone border point and non-symmorphic group 
     symmetry decomposition not available

 **************************************************************************

 **************************************************************************

                    xk=(   0.50000,   0.78447,   0.00000  )

     zone border point and non-symmorphic group 
     symmetry decomposition not available

 **************************************************************************

 **************************************************************************

                    xk=(   0.50000,   0.73832,   0.00000  )

     zone border point and non-symmorphic group 
     symmetry decomposition not available

 **************************************************************************

 **************************************************************************

                    xk=(   0.50000,   0.69218,   0.00000  )

     zone border point and non-symmorphic group 
     symmetry decomposition not available

 **************************************************************************

 **************************************************************************

                    xk=(   0.50000,   0.64603,   0.00000  )

     zone border point and non-symmorphic group 
     symmetry decomposition not available

 **************************************************************************

 **************************************************************************

                    xk=(   0.50000,   0.59989,   0.00000  )

     zone border point and non-symmorphic group 
     symmetry decomposition not available

 **************************************************************************

 **************************************************************************

                    xk=(   0.50000,   0.55374,   0.00000  )

     zone border point and non-symmorphic group 
     symmetry decomposition not available

 **************************************************************************

 **************************************************************************

                    xk=(   0.50000,   0.50760,   0.00000  )

     zone border point and non-symmorphic group 
     symmetry decomposition not available

 **************************************************************************

 **************************************************************************

                    xk=(   0.50000,   0.46145,   0.00000  )

     zone border point and non-symmorphic group 
     symmetry decomposition not available

 **************************************************************************

 **************************************************************************

                    xk=(   0.50000,   0.41531,   0.00000  )

     zone border point and non-symmorphic group 
     symmetry decomposition not available

 **************************************************************************

 **************************************************************************

                    xk=(   0.50000,   0.36916,   0.00000  )

     zone border point and non-symmorphic group 
     symmetry decomposition not available

 **************************************************************************

 **************************************************************************

                    xk=(   0.50000,   0.32302,   0.00000  )

     zone border point and non-symmorphic group 
     symmetry decomposition not available

 **************************************************************************

 **************************************************************************

                    xk=(   0.50000,   0.27687,   0.00000  )

     zone border point and non-symmorphic group 
     symmetry decomposition not available

 **************************************************************************

 **************************************************************************

                    xk=(   0.50000,   0.23073,   0.00000  )

     zone border point and non-symmorphic group 
     symmetry decomposition not available

 **************************************************************************

 **************************************************************************

                    xk=(   0.50000,   0.18458,   0.00000  )

     zone border point and non-symmorphic group 
     symmetry decomposition not available

 **************************************************************************

 **************************************************************************

                    xk=(   0.50000,   0.13844,   0.00000  )

     zone border point and non-symmorphic group 
     symmetry decomposition not available

 **************************************************************************

 **************************************************************************

                    xk=(   0.50000,   0.09229,   0.00000  )

     zone border point and non-symmorphic group 
     symmetry decomposition not available

 **************************************************************************

 **************************************************************************

                    xk=(   0.50000,   0.04615,   0.00000  )

     zone border point and non-symmorphic group 
     symmetry decomposition not available

 **************************************************************************

 **************************************************************************

                    xk=(   0.50000,   0.00000,   0.00000  )

     zone border point and non-symmorphic group 
     symmetry decomposition not available

 **************************************************************************

     BANDS        :   5m15.62s CPU   4m33.86s WALL


   This run was terminated on:  22: 3:26  21May2026            

=------------------------------------------------------------------------------=
   JOB DONE.
=------------------------------------------------------------------------------=
