
     Program PWSCF v.6.7MaX starts on 17May2026 at 23:27:24 

     This program is part of the open-source Quantum ESPRESSO suite
     for quantum simulation of materials; please cite
         "P. Giannozzi et al., J. Phys.:Condens. Matter 21 395502 (2009);
         "P. Giannozzi et al., J. Phys.:Condens. Matter 29 465901 (2017);
          URL http://www.quantum-espresso.org", 
     in publications or presentations arising from this work. More details at
     http://www.quantum-espresso.org/quote

     Parallel version (MPI), running on     6 processors

     MPI processes distributed on     1 nodes
     K-points division:     npool     =       2
     R & G space division:  proc/nbgrp/npool/nimage =       3
     Waiting for input...
     Reading input from standard input

     Current dimensions of program PWSCF are:
     Max number of different atomic species (ntypx) = 10
     Max number of k-points (npk) =  40000
     Max angular momentum in pseudopotentials (lmaxx) =  3

     Subspace diagonalization in iterative solution of the eigenvalue problem:
     a serial algorithm will be used


     Parallelization info
     --------------------
     sticks:   dense  smooth     PW     G-vecs:    dense   smooth      PW
     Min        2254     903    255                89691    22685    3377
     Max        2256     905    255                89692    22685    3377
     Sum        6765    2711    765               269075    68055   10131



     bravais-lattice index     =            8
     lattice parameter (alat)  =      21.4862  a.u.
     unit-cell volume          =    1425.7436 (a.u.)^3
     number of atoms/cell      =            8
     number of atomic types    =            2
     number of electrons       =        80.00
     number of Kohn-Sham states=           50
     kinetic-energy cutoff     =      50.0000  Ry
     charge density cutoff     =     500.0000  Ry
     scf convergence threshold =      1.0E-08
     mixing beta               =       0.7000
     number of iterations used =            8  plain     mixing
     Exchange-correlation= SLA  PW   PBE  PBE
                           (   1   4   3   4   0   0   0)

     celldm(1)=  21.486186  celldm(2)=   0.368162  celldm(3)=   0.390413
     celldm(4)=   0.000000  celldm(5)=   0.000000  celldm(6)=   0.000000

     crystal axes: (cart. coord. in units of alat)
               a(1) = (   1.000000   0.000000   0.000000 )  
               a(2) = (   0.000000   0.368162   0.000000 )  
               a(3) = (   0.000000   0.000000   0.390413 )  

     reciprocal axes: (cart. coord. in units 2 pi/alat)
               b(1) = (  1.000000  0.000000  0.000000 )  
               b(2) = (  0.000000  2.716197  0.000000 )  
               b(3) = (  0.000000  0.000000  2.561388 )  


     PseudoPot. # 1 for Sn read from file:
     ../pseudo/Sn_pbe_v1.uspp.F.UPF
     MD5 check sum: 4cf58ce39ec5d5d420df3dd08604eb00
     Pseudo is Ultrasoft + core correction, Zval = 14.0
     Generated by new atomic code, or converted to UPF format
     Using radial grid of  891 points,  6 beta functions with: 
                l(1) =   0
                l(2) =   0
                l(3) =   1
                l(4) =   1
                l(5) =   2
                l(6) =   2
     Q(r) pseudized with  6 coefficients,  rinner =    1.200   1.200   1.200
                                                       1.200   1.200

     PseudoPot. # 2 for Se read from file:
     ../pseudo/Se_pbe_v1.uspp.F.UPF
     MD5 check sum: 1b3568f3a8ae88f9a2a0ad0698632c85
     Pseudo is Ultrasoft + core correction, Zval =  6.0
     Generated by new atomic code, or converted to UPF format
     Using radial grid of  877 points,  6 beta functions with: 
                l(1) =   0
                l(2) =   0
                l(3) =   1
                l(4) =   1
                l(5) =   2
                l(6) =   2
     Q(r) pseudized with  8 coefficients,  rinner =    1.300   1.300   1.300
                                                       1.300   1.300

     atomic species   valence    mass     pseudopotential
        Sn            14.00   118.71000     Sn( 1.00)
        Se             6.00    78.97100     Se( 1.00)

      8 Sym. Ops., with inversion, found ( 6 have fractional translation)


                                    s                        frac. trans.

      isym =  1     identity                                     

 cryst.   s( 1) = (     1          0          0      )
                  (     0          1          0      )
                  (     0          0          1      )

 cart.    s( 1) = (  1.0000000  0.0000000  0.0000000 )
                  (  0.0000000  1.0000000  0.0000000 )
                  (  0.0000000  0.0000000  1.0000000 )


      isym =  2     180 deg rotation - cart. axis [0,0,1]        

 cryst.   s( 2) = (    -1          0          0      )    f =(  0.5000000 )
                  (     0         -1          0      )       (  0.0000000 )
                  (     0          0          1      )       (  0.5000000 )

 cart.    s( 2) = ( -1.0000000  0.0000000  0.0000000 )    f =(  0.5000000 )
                  (  0.0000000 -1.0000000  0.0000000 )       (  0.0000000 )
                  (  0.0000000  0.0000000  1.0000000 )       (  0.1952067 )


      isym =  3     180 deg rotation - cart. axis [0,1,0]        

 cryst.   s( 3) = (    -1          0          0      )    f =(  0.0000000 )
                  (     0          1          0      )       ( -0.5000000 )
                  (     0          0         -1      )       (  0.0000000 )

 cart.    s( 3) = ( -1.0000000  0.0000000  0.0000000 )    f =(  0.0000000 )
                  (  0.0000000  1.0000000  0.0000000 )       ( -0.1840809 )
                  (  0.0000000  0.0000000 -1.0000000 )       (  0.0000000 )


      isym =  4     180 deg rotation - cart. axis [1,0,0]        

 cryst.   s( 4) = (     1          0          0      )    f =(  0.5000000 )
                  (     0         -1          0      )       (  0.5000000 )
                  (     0          0         -1      )       (  0.5000000 )

 cart.    s( 4) = (  1.0000000  0.0000000  0.0000000 )    f =(  0.5000000 )
                  (  0.0000000 -1.0000000  0.0000000 )       (  0.1840809 )
                  (  0.0000000  0.0000000 -1.0000000 )       (  0.1952067 )


      isym =  5     inversion                                    

 cryst.   s( 5) = (    -1          0          0      )
                  (     0         -1          0      )
                  (     0          0         -1      )

 cart.    s( 5) = ( -1.0000000  0.0000000  0.0000000 )
                  (  0.0000000 -1.0000000  0.0000000 )
                  (  0.0000000  0.0000000 -1.0000000 )


      isym =  6     inv. 180 deg rotation - cart. axis [0,0,1]   

 cryst.   s( 6) = (     1          0          0      )    f =(  0.5000000 )
                  (     0          1          0      )       (  0.0000000 )
                  (     0          0         -1      )       (  0.5000000 )

 cart.    s( 6) = (  1.0000000  0.0000000  0.0000000 )    f =(  0.5000000 )
                  (  0.0000000  1.0000000  0.0000000 )       (  0.0000000 )
                  (  0.0000000  0.0000000 -1.0000000 )       (  0.1952067 )


      isym =  7     inv. 180 deg rotation - cart. axis [0,1,0]   

 cryst.   s( 7) = (     1          0          0      )    f =(  0.0000000 )
                  (     0         -1          0      )       (  0.5000000 )
                  (     0          0          1      )       (  0.0000000 )

 cart.    s( 7) = (  1.0000000  0.0000000  0.0000000 )    f =(  0.0000000 )
                  (  0.0000000 -1.0000000  0.0000000 )       (  0.1840809 )
                  (  0.0000000  0.0000000  1.0000000 )       (  0.0000000 )


      isym =  8     inv. 180 deg rotation - cart. axis [1,0,0]   

 cryst.   s( 8) = (    -1          0          0      )    f =(  0.5000000 )
                  (     0          1          0      )       ( -0.5000000 )
                  (     0          0          1      )       (  0.5000000 )

 cart.    s( 8) = ( -1.0000000  0.0000000  0.0000000 )    f =(  0.5000000 )
                  (  0.0000000  1.0000000  0.0000000 )       ( -0.1840809 )
                  (  0.0000000  0.0000000  1.0000000 )       (  0.1952067 )


     point group D_2h (mmm) 
     there are  8 classes
     the character table:

       E     C2    C2'   C2''  i     s_v   s_v'  s_v''
A_g    1.00  1.00  1.00  1.00  1.00  1.00  1.00  1.00
B_1g   1.00  1.00 -1.00 -1.00  1.00  1.00 -1.00 -1.00
B_2g   1.00 -1.00  1.00 -1.00  1.00 -1.00  1.00 -1.00
B_3g   1.00 -1.00 -1.00  1.00  1.00 -1.00 -1.00  1.00
A_u    1.00  1.00  1.00  1.00 -1.00 -1.00 -1.00 -1.00
B_1u   1.00  1.00 -1.00 -1.00 -1.00 -1.00  1.00  1.00
B_2u   1.00 -1.00  1.00 -1.00 -1.00  1.00 -1.00  1.00
B_3u   1.00 -1.00 -1.00  1.00 -1.00  1.00  1.00 -1.00

     the symmetry operations in each class and the name of the first element:

     E        1
          identity                                               
     C2       2
          180 deg rotation - cart. axis [0,0,1]                  
     C2'      4
          180 deg rotation - cart. axis [1,0,0]                  
     C2''     3
          180 deg rotation - cart. axis [0,1,0]                  
     i        5
          inversion                                              
     s_v      6
          inv. 180 deg rotation - cart. axis [0,0,1]             
     s_v'     8
          inv. 180 deg rotation - cart. axis [1,0,0]             
     s_v''    7
          inv. 180 deg rotation - cart. axis [0,1,0]             

   Cartesian axes

     site n.     atom                  positions (alat units)
         1           Se  tau(   1) = (   0.8555000   0.0920405   0.1884916  )
         2           Sn  tau(   2) = (   0.1187000   0.0920405   0.0385728  )
         3           Se  tau(   3) = (   0.6445000   0.2761214   0.3836983  )
         4           Sn  tau(   4) = (   0.3813000   0.2761214   0.2337795  )
         5           Se  tau(   5) = (   0.3555000   0.0920405   0.0067151  )
         6           Sn  tau(   6) = (   0.6187000   0.0920405   0.1566338  )
         7           Se  tau(   7) = (   0.1445000   0.2761214   0.2019218  )
         8           Sn  tau(   8) = (   0.8813000   0.2761214   0.3518405  )

   Crystallographic axes

     site n.     atom                  positions (cryst. coord.)
         1           Se  tau(   1) = (  0.8555000  0.2500000  0.4828000  )
         2           Sn  tau(   2) = (  0.1187000  0.2500000  0.0988000  )
         3           Se  tau(   3) = (  0.6445000  0.7500000  0.9828000  )
         4           Sn  tau(   4) = (  0.3813000  0.7500000  0.5988000  )
         5           Se  tau(   5) = (  0.3555000  0.2500000  0.0172000  )
         6           Sn  tau(   6) = (  0.6187000  0.2500000  0.4012000  )
         7           Se  tau(   7) = (  0.1445000  0.7500000  0.5172000  )
         8           Sn  tau(   8) = (  0.8813000  0.7500000  0.9012000  )

     number of k points=     4
                       cart. coord. in units 2pi/alat
        k(    1) = (   0.2500000   0.3395246   0.3201735), wk =   0.5000000
        k(    2) = (   0.2500000   0.3395246   0.9605204), wk =   0.5000000
        k(    3) = (   0.2500000   1.0185738   0.3201735), wk =   0.5000000
        k(    4) = (   0.2500000   1.0185738   0.9605204), wk =   0.5000000

                       cryst. coord.
        k(    1) = (   0.2500000   0.1250000   0.1250000), wk =   0.5000000
        k(    2) = (   0.2500000   0.1250000   0.3750000), wk =   0.5000000
        k(    3) = (   0.2500000   0.3750000   0.1250000), wk =   0.5000000
        k(    4) = (   0.2500000   0.3750000   0.3750000), wk =   0.5000000

     Dense  grid:   269075 G-vectors     FFT dimensions: ( 160,  60,  60)

     Smooth grid:    68055 G-vectors     FFT dimensions: ( 100,  36,  40)

     Dynamical RAM for                 wfc:       2.16 MB

     Dynamical RAM for     wfc (w. buffer):       6.49 MB

     Dynamical RAM for           str. fact:       2.74 MB

     Dynamical RAM for           local pot:       0.00 MB

     Dynamical RAM for          nlocal pot:       6.23 MB

     Dynamical RAM for                qrad:       3.59 MB

     Dynamical RAM for          rho,v,vnew:       8.50 MB

     Dynamical RAM for               rhoin:       2.83 MB

     Dynamical RAM for            rho*nmix:      21.90 MB

     Dynamical RAM for           G-vectors:       5.31 MB

     Dynamical RAM for          h,s,v(r/c):       0.46 MB

     Dynamical RAM for          <psi|beta>:       0.11 MB

     Dynamical RAM for                 psi:       4.33 MB

     Dynamical RAM for                hpsi:       4.33 MB

     Dynamical RAM for                spsi:       4.33 MB

     Dynamical RAM for      wfcinit/wfcrot:       4.56 MB

     Dynamical RAM for           addusdens:     130.70 MB

     Dynamical RAM for          addusforce:     134.82 MB

     Estimated static dynamical RAM per process >      69.02 MB

     Estimated max dynamical RAM per process >     203.84 MB

     Estimated total dynamical RAM >       1.19 GB

     Initial potential from superposition of free atoms

     starting charge   75.99954, renormalised to   80.00000
     Starting wfcs are   52 randomized atomic wfcs

     total cpu time spent up to now is        5.3 secs

     Self-consistent Calculation

     iteration #  1     ecut=    50.00 Ry     beta= 0.70
     Davidson diagonalization with overlap
     ethr =  1.00E-02,  avg # of iterations =  3.8

     total cpu time spent up to now is       11.2 secs

     total energy              =    -826.55603424 Ry
     estimated scf accuracy    <       2.62890159 Ry

     iteration #  2     ecut=    50.00 Ry     beta= 0.70
     Davidson diagonalization with overlap
     ethr =  3.29E-03,  avg # of iterations =  2.0

     total cpu time spent up to now is       16.9 secs

     total energy              =    -827.34395659 Ry
     estimated scf accuracy    <       1.07856812 Ry

     iteration #  3     ecut=    50.00 Ry     beta= 0.70
     Davidson diagonalization with overlap
     ethr =  1.35E-03,  avg # of iterations =  2.0

     total cpu time spent up to now is       22.2 secs

     total energy              =    -827.61135093 Ry
     estimated scf accuracy    <       0.06056469 Ry

     iteration #  4     ecut=    50.00 Ry     beta= 0.70
     Davidson diagonalization with overlap
     ethr =  7.57E-05,  avg # of iterations =  4.0

     total cpu time spent up to now is       28.0 secs

     total energy              =    -827.62244302 Ry
     estimated scf accuracy    <       0.00287771 Ry

     iteration #  5     ecut=    50.00 Ry     beta= 0.70
     Davidson diagonalization with overlap
     ethr =  3.60E-06,  avg # of iterations =  6.0

     total cpu time spent up to now is       34.6 secs

     total energy              =    -827.62307947 Ry
     estimated scf accuracy    <       0.00079972 Ry

     iteration #  6     ecut=    50.00 Ry     beta= 0.70
     Davidson diagonalization with overlap
     ethr =  1.00E-06,  avg # of iterations =  2.0

     total cpu time spent up to now is       40.8 secs

     total energy              =    -827.62325132 Ry
     estimated scf accuracy    <       0.00004124 Ry

     iteration #  7     ecut=    50.00 Ry     beta= 0.70
     Davidson diagonalization with overlap
     ethr =  5.15E-08,  avg # of iterations =  5.0

     total cpu time spent up to now is       47.4 secs

     total energy              =    -827.62327962 Ry
     estimated scf accuracy    <       0.00000245 Ry

     iteration #  8     ecut=    50.00 Ry     beta= 0.70
     Davidson diagonalization with overlap
     ethr =  3.06E-09,  avg # of iterations =  4.0

     total cpu time spent up to now is       54.3 secs

     total energy              =    -827.62328069 Ry
     estimated scf accuracy    <       0.00000042 Ry

     iteration #  9     ecut=    50.00 Ry     beta= 0.70
     Davidson diagonalization with overlap
     ethr =  5.30E-10,  avg # of iterations =  3.5

     total cpu time spent up to now is       60.1 secs

     End of self-consistent calculation

          k = 0.2500 0.3395 0.3202 (  8496 PWs)   bands (ev):

   -13.2578 -13.2513 -13.2489 -13.2470 -13.2466 -13.2454 -13.2418 -13.2389
   -13.2316 -13.2266 -13.2254 -13.2249 -13.2123 -13.2090 -13.1918 -13.1900
   -13.1836 -13.1834 -13.1708 -13.1655  -5.5680  -5.3428  -4.5344  -4.2360
     0.6258   1.3130   2.3031   2.5208   3.5302   4.3559   4.5739   5.0988
     5.4636   5.8247   5.8609   6.1430   6.7895   7.1288   7.3782   7.5815
     9.7361  10.0236  10.4625  10.9170  11.1396  11.4208  11.8046  12.2289
    12.4222  12.7996

     occupation numbers 
     1.0000   1.0000   1.0000   1.0000   1.0000   1.0000   1.0000   1.0000
     1.0000   1.0000   1.0000   1.0000   1.0000   1.0000   1.0000   1.0000
     1.0000   1.0000   1.0000   1.0000   1.0000   1.0000   1.0000   1.0000
     1.0000   1.0000   1.0000   1.0000   1.0000   1.0000   1.0000   1.0000
     1.0000   1.0000   1.0000   1.0000   1.0000   1.0000   1.0000   1.0000
     0.0000   0.0000   0.0000   0.0000   0.0000   0.0000   0.0000   0.0000
     0.0000   0.0000

          k = 0.2500 0.3395 0.9605 (  8505 PWs)   bands (ev):

   -13.2556 -13.2534 -13.2508 -13.2491 -13.2450 -13.2441 -13.2435 -13.2424
   -13.2285 -13.2262 -13.2178 -13.2172 -13.2129 -13.2107 -13.1906 -13.1881
   -13.1869 -13.1856 -13.1690 -13.1668  -5.1267  -4.9405  -4.6069  -4.4070
     0.1187   0.5714   1.3993   1.7147   4.1404   4.5626   4.7791   5.3204
     5.6427   5.9246   6.0274   6.6157   7.1137   7.3462   7.4833   7.6303
     9.3494   9.7386   9.7860  10.0508  10.5436  10.9907  11.0488  11.4736
    12.3480  12.4329

     occupation numbers 
     1.0000   1.0000   1.0000   1.0000   1.0000   1.0000   1.0000   1.0000
     1.0000   1.0000   1.0000   1.0000   1.0000   1.0000   1.0000   1.0000
     1.0000   1.0000   1.0000   1.0000   1.0000   1.0000   1.0000   1.0000
     1.0000   1.0000   1.0000   1.0000   1.0000   1.0000   1.0000   1.0000
     1.0000   1.0000   1.0000   1.0000   1.0000   1.0000   1.0000   1.0000
     0.0000   0.0000   0.0000   0.0000   0.0000   0.0000   0.0000   0.0000
     0.0000   0.0000

          k = 0.2500 1.0186 0.3202 (  8531 PWs)   bands (ev):

   -13.2580 -13.2558 -13.2546 -13.2525 -13.2394 -13.2381 -13.2378 -13.2350
   -13.2289 -13.2285 -13.2224 -13.2178 -13.2105 -13.2059 -13.1972 -13.1967
   -13.1811 -13.1775 -13.1719 -13.1712  -5.0018  -4.8623  -4.4705  -4.3793
     0.3747   0.8846   1.0395   1.3999   4.1505   4.3702   4.7568   5.2590
     5.5797   5.8669   6.0133   6.4663   6.6995   6.9615   7.1750   7.4186
     9.3641   9.4467   9.7078   9.8711  10.8096  10.8753  11.1674  11.4563
    11.9923  12.5469

     occupation numbers 
     1.0000   1.0000   1.0000   1.0000   1.0000   1.0000   1.0000   1.0000
     1.0000   1.0000   1.0000   1.0000   1.0000   1.0000   1.0000   1.0000
     1.0000   1.0000   1.0000   1.0000   1.0000   1.0000   1.0000   1.0000
     1.0000   1.0000   1.0000   1.0000   1.0000   1.0000   1.0000   1.0000
     1.0000   1.0000   1.0000   1.0000   1.0000   1.0000   1.0000   1.0000
     0.0000   0.0000   0.0000   0.0000   0.0000   0.0000   0.0000   0.0000
     0.0000   0.0000

          k = 0.2500 1.0186 0.9605 (  8508 PWs)   bands (ev):

   -13.2655 -13.2643 -13.2602 -13.2593 -13.2379 -13.2363 -13.2343 -13.2335
   -13.2269 -13.2265 -13.2180 -13.2161 -13.2078 -13.2062 -13.1956 -13.1951
   -13.1805 -13.1790 -13.1708 -13.1705  -4.6895  -4.5882  -4.4315  -4.3550
     0.7548   1.0641   1.4898   1.5117   3.2042   3.5476   3.8852   4.2633
     4.4441   4.8827   5.0233   5.7356   5.8805   6.3717   6.7623   7.0150
     9.8606  10.7941  11.1117  11.3968  11.7404  12.0431  12.7334  12.8804
    13.0377  13.2793

     occupation numbers 
     1.0000   1.0000   1.0000   1.0000   1.0000   1.0000   1.0000   1.0000
     1.0000   1.0000   1.0000   1.0000   1.0000   1.0000   1.0000   1.0000
     1.0000   1.0000   1.0000   1.0000   1.0000   1.0000   1.0000   1.0000
     1.0000   1.0000   1.0000   1.0000   1.0000   1.0000   1.0000   1.0000
     1.0000   1.0000   1.0000   1.0000   1.0000   1.0000   1.0000   1.0000
     0.0000   0.0000   0.0000   0.0000   0.0000   0.0000   0.0000   0.0000
     0.0000   0.0000

     highest occupied, lowest unoccupied level (ev):     7.6303    9.3494

!    total energy              =    -827.62328087 Ry
     estimated scf accuracy    <          1.2E-09 Ry

     The total energy is the sum of the following terms:
     one-electron contribution =    -257.01008533 Ry
     hartree contribution      =     179.10822638 Ry
     xc contribution           =    -309.11660572 Ry
     ewald contribution        =    -440.60481620 Ry

     convergence has been achieved in   9 iterations

     Forces acting on atoms (cartesian axes, Ry/au):

     atom    1 type  2   force =     0.00894453   -0.00000000   -0.00283898
     atom    2 type  1   force =    -0.00926774    0.00000000   -0.00289581
     atom    3 type  2   force =    -0.00894453    0.00000000   -0.00283898
     atom    4 type  1   force =     0.00926774   -0.00000000   -0.00289581
     atom    5 type  2   force =     0.00894453    0.00000000    0.00283898
     atom    6 type  1   force =    -0.00926774   -0.00000000    0.00289581
     atom    7 type  2   force =    -0.00894453    0.00000000    0.00283898
     atom    8 type  1   force =     0.00926774    0.00000000    0.00289581
     The non-local contrib.  to forces
     atom    1 type  2   force =    -0.11094178    0.00000000    0.10516501
     atom    2 type  1   force =     0.35560019    0.00000000    0.28099552
     atom    3 type  2   force =     0.11094178    0.00000000    0.10516501
     atom    4 type  1   force =    -0.35560019    0.00000000    0.28099552
     atom    5 type  2   force =    -0.11094178    0.00000000   -0.10516501
     atom    6 type  1   force =     0.35560019    0.00000000   -0.28099552
     atom    7 type  2   force =     0.11094178    0.00000000   -0.10516501
     atom    8 type  1   force =    -0.35560019    0.00000000   -0.28099552
     The ionic contribution  to forces
     atom    1 type  2   force =     1.53473235    0.00000000   -1.05154455
     atom    2 type  1   force =    -1.03769718    0.00000000   -0.57506129
     atom    3 type  2   force =    -1.53473235   -0.00000000   -1.05154455
     atom    4 type  1   force =     1.03769718   -0.00000000   -0.57506129
     atom    5 type  2   force =     1.53473235    0.00000000    1.05154455
     atom    6 type  1   force =    -1.03769718   -0.00000000    0.57506129
     atom    7 type  2   force =    -1.53473235   -0.00000000    1.05154455
     atom    8 type  1   force =     1.03769718    0.00000000    0.57506129
     The local contribution  to forces
     atom    1 type  2   force =    -1.42698007   -0.00000000    0.95526684
     atom    2 type  1   force =     0.67807905   -0.00000000    0.29595719
     atom    3 type  2   force =     1.42698007    0.00000000    0.95526684
     atom    4 type  1   force =    -0.67807905    0.00000000    0.29595719
     atom    5 type  2   force =    -1.42698007   -0.00000000   -0.95526684
     atom    6 type  1   force =     0.67807905   -0.00000000   -0.29595719
     atom    7 type  2   force =     1.42698007    0.00000000   -0.95526684
     atom    8 type  1   force =    -0.67807905    0.00000000   -0.29595719
     The core correction contribution to forces
     atom    1 type  2   force =     0.01210843   -0.00000000   -0.01172633
     atom    2 type  1   force =    -0.00521348   -0.00000000   -0.00482122
     atom    3 type  2   force =    -0.01210843    0.00000000   -0.01172633
     atom    4 type  1   force =     0.00521348    0.00000000   -0.00482122
     atom    5 type  2   force =     0.01210843   -0.00000000    0.01172633
     atom    6 type  1   force =    -0.00521348   -0.00000000    0.00482122
     atom    7 type  2   force =    -0.01210843   -0.00000000    0.01172633
     atom    8 type  1   force =     0.00521348    0.00000000    0.00482122
     The Hubbard contrib.    to forces
     atom    1 type  2   force =     0.00000000    0.00000000    0.00000000
     atom    2 type  1   force =     0.00000000    0.00000000    0.00000000
     atom    3 type  2   force =     0.00000000    0.00000000    0.00000000
     atom    4 type  1   force =     0.00000000    0.00000000    0.00000000
     atom    5 type  2   force =     0.00000000    0.00000000    0.00000000
     atom    6 type  1   force =     0.00000000    0.00000000    0.00000000
     atom    7 type  2   force =     0.00000000    0.00000000    0.00000000
     atom    8 type  1   force =     0.00000000    0.00000000    0.00000000
     The SCF correction term to forces
     atom    1 type  2   force =     0.00002560   -0.00000000    0.00000006
     atom    2 type  1   force =    -0.00003633    0.00000000    0.00003400
     atom    3 type  2   force =    -0.00002560   -0.00000000    0.00000006
     atom    4 type  1   force =     0.00003633   -0.00000000    0.00003400
     atom    5 type  2   force =     0.00002560    0.00000000   -0.00000006
     atom    6 type  1   force =    -0.00003633   -0.00000000   -0.00003400
     atom    7 type  2   force =    -0.00002560    0.00000000   -0.00000006
     atom    8 type  1   force =     0.00003633   -0.00000000   -0.00003400

     Total force =     0.027007     Total SCF correction =     0.000112

     Writing output data file ./tmp/SnSe_pnma.save/

     init_run     :      4.34s CPU      5.09s WALL (       1 calls)
     electrons    :     44.08s CPU     54.79s WALL (       1 calls)
     forces       :      3.71s CPU      4.51s WALL (       1 calls)

     Called by init_run:
     wfcinit      :      0.84s CPU      0.69s WALL (       1 calls)
     wfcinit:atom :      0.00s CPU      0.00s WALL (       2 calls)
     wfcinit:wfcr :      0.79s CPU      0.65s WALL (       2 calls)
     potinit      :      0.88s CPU      0.94s WALL (       1 calls)
     hinit0       :      1.44s CPU      1.46s WALL (       1 calls)

     Called by electrons:
     c_bands      :     22.27s CPU     26.93s WALL (       9 calls)
     sum_band     :      8.38s CPU      9.28s WALL (       9 calls)
     v_of_rho     :      2.31s CPU      2.64s WALL (      10 calls)
     v_h          :      0.22s CPU      0.23s WALL (      10 calls)
     v_xc         :      2.30s CPU      2.65s WALL (      11 calls)
     newd         :     11.67s CPU     17.36s WALL (      10 calls)
     mix_rho      :      0.41s CPU      0.41s WALL (       9 calls)

     Called by c_bands:
     init_us_2    :      0.17s CPU      0.15s WALL (      40 calls)
     cegterg      :     16.67s CPU     21.65s WALL (      18 calls)

     Called by sum_band:
     sum_band:wei :      0.00s CPU      0.00s WALL (       9 calls)
     sum_band:loo :      1.74s CPU      1.73s WALL (       9 calls)
     sum_band:buf :      0.02s CPU      0.02s WALL (      18 calls)
     sum_band:ini :      0.08s CPU      0.06s WALL (      18 calls)
     sum_band:cal :      0.51s CPU      0.60s WALL (      18 calls)
     sum_band:bec :      0.00s CPU      0.00s WALL (      18 calls)
     addusdens    :      5.95s CPU      6.87s WALL (       9 calls)
     addusd:skk   :      0.02s CPU      0.05s WALL (      18 calls)
     addusd:dgemm :      2.19s CPU      2.74s WALL (      18 calls)
     addusd:qvan2 :      3.35s CPU      3.12s WALL (      18 calls)

     Called by *egterg:
     cdiaghg      :      2.17s CPU      6.60s WALL (      82 calls)
     cegterg:over :      2.96s CPU      4.02s WALL (      64 calls)
     cegterg:upda :      0.52s CPU      0.49s WALL (      64 calls)
     cegterg:last :      0.85s CPU      0.53s WALL (      38 calls)
     h_psi        :      8.57s CPU      8.37s WALL (      84 calls)
     s_psi        :      0.91s CPU      0.52s WALL (      84 calls)
     g_psi        :      0.05s CPU      0.05s WALL (      64 calls)

     Called by h_psi:
     h_psi:calbec :      2.13s CPU      2.83s WALL (      84 calls)
     vloc_psi     :      5.38s CPU      4.91s WALL (      84 calls)
     add_vuspsi   :      1.01s CPU      0.55s WALL (      84 calls)

     General routines
     calbec       :      2.87s CPU      3.77s WALL (     110 calls)
     fft          :      2.23s CPU      2.38s WALL (     139 calls)
     ffts         :      0.04s CPU      0.04s WALL (      19 calls)
     fftw         :      5.62s CPU      5.16s WALL (    5898 calls)
     interpolate  :      0.21s CPU      0.22s WALL (      10 calls)

     Parallel routines
     fft_scatt_xy :      1.21s CPU      1.13s WALL (    6056 calls)
     fft_scatt_yz :      2.30s CPU      2.33s WALL (    6056 calls)

     PWSCF        :     52.38s CPU   1m 4.68s WALL


   This run was terminated on:  23:28:28  17May2026            

=------------------------------------------------------------------------------=
   JOB DONE.
=------------------------------------------------------------------------------=
