
     Program PWSCF v.6.7MaX starts on 17May2026 at 23:34:29 

     This program is part of the open-source Quantum ESPRESSO suite
     for quantum simulation of materials; please cite
         "P. Giannozzi et al., J. Phys.:Condens. Matter 21 395502 (2009);
         "P. Giannozzi et al., J. Phys.:Condens. Matter 29 465901 (2017);
          URL http://www.quantum-espresso.org", 
     in publications or presentations arising from this work. More details at
     http://www.quantum-espresso.org/quote

     Parallel version (MPI), running on     6 processors

     MPI processes distributed on     1 nodes
     K-points division:     npool     =       6
     Waiting for input...
     Reading input from standard input

     Current dimensions of program PWSCF are:
     Max number of different atomic species (ntypx) = 10
     Max number of k-points (npk) =  40000
     Max angular momentum in pseudopotentials (lmaxx) =  3

     Subspace diagonalization in iterative solution of the eigenvalue problem:
     a serial algorithm will be used


     G-vector sticks info
     --------------------
     sticks:   dense  smooth     PW     G-vecs:    dense   smooth      PW
     Sum        6765    2711    781               269075    68055   10441



     bravais-lattice index     =            8
     lattice parameter (alat)  =      21.4862  a.u.
     unit-cell volume          =    1425.7436 (a.u.)^3
     number of atoms/cell      =            8
     number of atomic types    =            2
     number of electrons       =        80.00
     number of Kohn-Sham states=           50
     kinetic-energy cutoff     =      50.0000  Ry
     charge density cutoff     =     500.0000  Ry
     scf convergence threshold =      1.0E-08
     mixing beta               =       0.7000
     number of iterations used =            8  plain     mixing
     Exchange-correlation= SLA  PW   PBE  PBE
                           (   1   4   3   4   0   0   0)

     celldm(1)=  21.486186  celldm(2)=   0.368162  celldm(3)=   0.390413
     celldm(4)=   0.000000  celldm(5)=   0.000000  celldm(6)=   0.000000

     crystal axes: (cart. coord. in units of alat)
               a(1) = (   1.000000   0.000000   0.000000 )  
               a(2) = (   0.000000   0.368162   0.000000 )  
               a(3) = (   0.000000   0.000000   0.390413 )  

     reciprocal axes: (cart. coord. in units 2 pi/alat)
               b(1) = (  1.000000  0.000000  0.000000 )  
               b(2) = (  0.000000  2.716197  0.000000 )  
               b(3) = (  0.000000  0.000000  2.561388 )  


     PseudoPot. # 1 for Sn read from file:
     ../pseudo/Sn_pbe_v1.uspp.F.UPF
     MD5 check sum: 4cf58ce39ec5d5d420df3dd08604eb00
     Pseudo is Ultrasoft + core correction, Zval = 14.0
     Generated by new atomic code, or converted to UPF format
     Using radial grid of  891 points,  6 beta functions with: 
                l(1) =   0
                l(2) =   0
                l(3) =   1
                l(4) =   1
                l(5) =   2
                l(6) =   2
     Q(r) pseudized with  6 coefficients,  rinner =    1.200   1.200   1.200
                                                       1.200   1.200

     PseudoPot. # 2 for Se read from file:
     ../pseudo/Se_pbe_v1.uspp.F.UPF
     MD5 check sum: 1b3568f3a8ae88f9a2a0ad0698632c85
     Pseudo is Ultrasoft + core correction, Zval =  6.0
     Generated by new atomic code, or converted to UPF format
     Using radial grid of  877 points,  6 beta functions with: 
                l(1) =   0
                l(2) =   0
                l(3) =   1
                l(4) =   1
                l(5) =   2
                l(6) =   2
     Q(r) pseudized with  8 coefficients,  rinner =    1.300   1.300   1.300
                                                       1.300   1.300

     atomic species   valence    mass     pseudopotential
        Sn            14.00   118.71000     Sn( 1.00)
        Se             6.00    78.97100     Se( 1.00)

      8 Sym. Ops., with inversion, found ( 6 have fractional translation)


                                    s                        frac. trans.

      isym =  1     identity                                     

 cryst.   s( 1) = (     1          0          0      )
                  (     0          1          0      )
                  (     0          0          1      )

 cart.    s( 1) = (  1.0000000  0.0000000  0.0000000 )
                  (  0.0000000  1.0000000  0.0000000 )
                  (  0.0000000  0.0000000  1.0000000 )


      isym =  2     180 deg rotation - cart. axis [0,0,1]        

 cryst.   s( 2) = (    -1          0          0      )    f =(  0.5000000 )
                  (     0         -1          0      )       (  0.0000000 )
                  (     0          0          1      )       (  0.5000000 )

 cart.    s( 2) = ( -1.0000000  0.0000000  0.0000000 )    f =(  0.5000000 )
                  (  0.0000000 -1.0000000  0.0000000 )       (  0.0000000 )
                  (  0.0000000  0.0000000  1.0000000 )       (  0.1952067 )


      isym =  3     180 deg rotation - cart. axis [0,1,0]        

 cryst.   s( 3) = (    -1          0          0      )    f =(  0.0000000 )
                  (     0          1          0      )       ( -0.5000000 )
                  (     0          0         -1      )       (  0.0000000 )

 cart.    s( 3) = ( -1.0000000  0.0000000  0.0000000 )    f =(  0.0000000 )
                  (  0.0000000  1.0000000  0.0000000 )       ( -0.1840809 )
                  (  0.0000000  0.0000000 -1.0000000 )       (  0.0000000 )


      isym =  4     180 deg rotation - cart. axis [1,0,0]        

 cryst.   s( 4) = (     1          0          0      )    f =(  0.5000000 )
                  (     0         -1          0      )       (  0.5000000 )
                  (     0          0         -1      )       (  0.5000000 )

 cart.    s( 4) = (  1.0000000  0.0000000  0.0000000 )    f =(  0.5000000 )
                  (  0.0000000 -1.0000000  0.0000000 )       (  0.1840809 )
                  (  0.0000000  0.0000000 -1.0000000 )       (  0.1952067 )


      isym =  5     inversion                                    

 cryst.   s( 5) = (    -1          0          0      )
                  (     0         -1          0      )
                  (     0          0         -1      )

 cart.    s( 5) = ( -1.0000000  0.0000000  0.0000000 )
                  (  0.0000000 -1.0000000  0.0000000 )
                  (  0.0000000  0.0000000 -1.0000000 )


      isym =  6     inv. 180 deg rotation - cart. axis [0,0,1]   

 cryst.   s( 6) = (     1          0          0      )    f =(  0.5000000 )
                  (     0          1          0      )       (  0.0000000 )
                  (     0          0         -1      )       (  0.5000000 )

 cart.    s( 6) = (  1.0000000  0.0000000  0.0000000 )    f =(  0.5000000 )
                  (  0.0000000  1.0000000  0.0000000 )       (  0.0000000 )
                  (  0.0000000  0.0000000 -1.0000000 )       (  0.1952067 )


      isym =  7     inv. 180 deg rotation - cart. axis [0,1,0]   

 cryst.   s( 7) = (     1          0          0      )    f =(  0.0000000 )
                  (     0         -1          0      )       (  0.5000000 )
                  (     0          0          1      )       (  0.0000000 )

 cart.    s( 7) = (  1.0000000  0.0000000  0.0000000 )    f =(  0.0000000 )
                  (  0.0000000 -1.0000000  0.0000000 )       (  0.1840809 )
                  (  0.0000000  0.0000000  1.0000000 )       (  0.0000000 )


      isym =  8     inv. 180 deg rotation - cart. axis [1,0,0]   

 cryst.   s( 8) = (    -1          0          0      )    f =(  0.5000000 )
                  (     0          1          0      )       ( -0.5000000 )
                  (     0          0          1      )       (  0.5000000 )

 cart.    s( 8) = ( -1.0000000  0.0000000  0.0000000 )    f =(  0.5000000 )
                  (  0.0000000  1.0000000  0.0000000 )       ( -0.1840809 )
                  (  0.0000000  0.0000000  1.0000000 )       (  0.1952067 )


     point group D_2h (mmm) 
     there are  8 classes
     the character table:

       E     C2    C2'   C2''  i     s_v   s_v'  s_v''
A_g    1.00  1.00  1.00  1.00  1.00  1.00  1.00  1.00
B_1g   1.00  1.00 -1.00 -1.00  1.00  1.00 -1.00 -1.00
B_2g   1.00 -1.00  1.00 -1.00  1.00 -1.00  1.00 -1.00
B_3g   1.00 -1.00 -1.00  1.00  1.00 -1.00 -1.00  1.00
A_u    1.00  1.00  1.00  1.00 -1.00 -1.00 -1.00 -1.00
B_1u   1.00  1.00 -1.00 -1.00 -1.00 -1.00  1.00  1.00
B_2u   1.00 -1.00  1.00 -1.00 -1.00  1.00 -1.00  1.00
B_3u   1.00 -1.00 -1.00  1.00 -1.00  1.00  1.00 -1.00

     the symmetry operations in each class and the name of the first element:

     E        1
          identity                                               
     C2       2
          180 deg rotation - cart. axis [0,0,1]                  
     C2'      4
          180 deg rotation - cart. axis [1,0,0]                  
     C2''     3
          180 deg rotation - cart. axis [0,1,0]                  
     i        5
          inversion                                              
     s_v      6
          inv. 180 deg rotation - cart. axis [0,0,1]             
     s_v'     8
          inv. 180 deg rotation - cart. axis [1,0,0]             
     s_v''    7
          inv. 180 deg rotation - cart. axis [0,1,0]             

   Cartesian axes

     site n.     atom                  positions (alat units)
         1           Se  tau(   1) = (   0.8555000   0.0920405   0.1884916  )
         2           Sn  tau(   2) = (   0.1187000   0.0920405   0.0385728  )
         3           Se  tau(   3) = (   0.6445000   0.2761214   0.3836983  )
         4           Sn  tau(   4) = (   0.3813000   0.2761214   0.2337795  )
         5           Se  tau(   5) = (   0.3555000   0.0920405   0.0067151  )
         6           Sn  tau(   6) = (   0.6187000   0.0920405   0.1566338  )
         7           Se  tau(   7) = (   0.1445000   0.2761214   0.2019218  )
         8           Sn  tau(   8) = (   0.8813000   0.2761214   0.3518405  )

   Crystallographic axes

     site n.     atom                  positions (cryst. coord.)
         1           Se  tau(   1) = (  0.8555000  0.2500000  0.4828000  )
         2           Sn  tau(   2) = (  0.1187000  0.2500000  0.0988000  )
         3           Se  tau(   3) = (  0.6445000  0.7500000  0.9828000  )
         4           Sn  tau(   4) = (  0.3813000  0.7500000  0.5988000  )
         5           Se  tau(   5) = (  0.3555000  0.2500000  0.0172000  )
         6           Sn  tau(   6) = (  0.6187000  0.2500000  0.4012000  )
         7           Se  tau(   7) = (  0.1445000  0.7500000  0.5172000  )
         8           Sn  tau(   8) = (  0.8813000  0.7500000  0.9012000  )

     number of k points=    50
                       cart. coord. in units 2pi/alat
        k(    1) = (   0.1250000   0.1358098   0.1280694), wk =   0.0400000
        k(    2) = (   0.1250000   0.1358098   0.3842082), wk =   0.0400000
        k(    3) = (   0.1250000   0.1358098   0.6403469), wk =   0.0400000
        k(    4) = (   0.1250000   0.1358098   0.8964857), wk =   0.0400000
        k(    5) = (   0.1250000   0.1358098   1.1526245), wk =   0.0400000
        k(    6) = (   0.1250000   0.4074295   0.1280694), wk =   0.0400000
        k(    7) = (   0.1250000   0.4074295   0.3842082), wk =   0.0400000
        k(    8) = (   0.1250000   0.4074295   0.6403469), wk =   0.0400000
        k(    9) = (   0.1250000   0.4074295   0.8964857), wk =   0.0400000
        k(   10) = (   0.1250000   0.4074295   1.1526245), wk =   0.0400000
        k(   11) = (   0.1250000   0.6790492   0.1280694), wk =   0.0400000
        k(   12) = (   0.1250000   0.6790492   0.3842082), wk =   0.0400000
        k(   13) = (   0.1250000   0.6790492   0.6403469), wk =   0.0400000
        k(   14) = (   0.1250000   0.6790492   0.8964857), wk =   0.0400000
        k(   15) = (   0.1250000   0.6790492   1.1526245), wk =   0.0400000
        k(   16) = (   0.1250000   0.9506689   0.1280694), wk =   0.0400000
        k(   17) = (   0.1250000   0.9506689   0.3842082), wk =   0.0400000
        k(   18) = (   0.1250000   0.9506689   0.6403469), wk =   0.0400000
        k(   19) = (   0.1250000   0.9506689   0.8964857), wk =   0.0400000
        k(   20) = (   0.1250000   0.9506689   1.1526245), wk =   0.0400000
        k(   21) = (   0.1250000   1.2222886   0.1280694), wk =   0.0400000
        k(   22) = (   0.1250000   1.2222886   0.3842082), wk =   0.0400000
        k(   23) = (   0.1250000   1.2222886   0.6403469), wk =   0.0400000
        k(   24) = (   0.1250000   1.2222886   0.8964857), wk =   0.0400000
        k(   25) = (   0.1250000   1.2222886   1.1526245), wk =   0.0400000
        k(   26) = (   0.3750000   0.1358098   0.1280694), wk =   0.0400000
        k(   27) = (   0.3750000   0.1358098   0.3842082), wk =   0.0400000
        k(   28) = (   0.3750000   0.1358098   0.6403469), wk =   0.0400000
        k(   29) = (   0.3750000   0.1358098   0.8964857), wk =   0.0400000
        k(   30) = (   0.3750000   0.1358098   1.1526245), wk =   0.0400000
        k(   31) = (   0.3750000   0.4074295   0.1280694), wk =   0.0400000
        k(   32) = (   0.3750000   0.4074295   0.3842082), wk =   0.0400000
        k(   33) = (   0.3750000   0.4074295   0.6403469), wk =   0.0400000
        k(   34) = (   0.3750000   0.4074295   0.8964857), wk =   0.0400000
        k(   35) = (   0.3750000   0.4074295   1.1526245), wk =   0.0400000
        k(   36) = (   0.3750000   0.6790492   0.1280694), wk =   0.0400000
        k(   37) = (   0.3750000   0.6790492   0.3842082), wk =   0.0400000
        k(   38) = (   0.3750000   0.6790492   0.6403469), wk =   0.0400000
        k(   39) = (   0.3750000   0.6790492   0.8964857), wk =   0.0400000
        k(   40) = (   0.3750000   0.6790492   1.1526245), wk =   0.0400000
        k(   41) = (   0.3750000   0.9506689   0.1280694), wk =   0.0400000
        k(   42) = (   0.3750000   0.9506689   0.3842082), wk =   0.0400000
        k(   43) = (   0.3750000   0.9506689   0.6403469), wk =   0.0400000
        k(   44) = (   0.3750000   0.9506689   0.8964857), wk =   0.0400000
        k(   45) = (   0.3750000   0.9506689   1.1526245), wk =   0.0400000
        k(   46) = (   0.3750000   1.2222886   0.1280694), wk =   0.0400000
        k(   47) = (   0.3750000   1.2222886   0.3842082), wk =   0.0400000
        k(   48) = (   0.3750000   1.2222886   0.6403469), wk =   0.0400000
        k(   49) = (   0.3750000   1.2222886   0.8964857), wk =   0.0400000
        k(   50) = (   0.3750000   1.2222886   1.1526245), wk =   0.0400000

                       cryst. coord.
        k(    1) = (   0.1250000   0.0500000   0.0500000), wk =   0.0400000
        k(    2) = (   0.1250000   0.0500000   0.1500000), wk =   0.0400000
        k(    3) = (   0.1250000   0.0500000   0.2500000), wk =   0.0400000
        k(    4) = (   0.1250000   0.0500000   0.3500000), wk =   0.0400000
        k(    5) = (   0.1250000   0.0500000   0.4500000), wk =   0.0400000
        k(    6) = (   0.1250000   0.1500000   0.0500000), wk =   0.0400000
        k(    7) = (   0.1250000   0.1500000   0.1500000), wk =   0.0400000
        k(    8) = (   0.1250000   0.1500000   0.2500000), wk =   0.0400000
        k(    9) = (   0.1250000   0.1500000   0.3500000), wk =   0.0400000
        k(   10) = (   0.1250000   0.1500000   0.4500000), wk =   0.0400000
        k(   11) = (   0.1250000   0.2500000   0.0500000), wk =   0.0400000
        k(   12) = (   0.1250000   0.2500000   0.1500000), wk =   0.0400000
        k(   13) = (   0.1250000   0.2500000   0.2500000), wk =   0.0400000
        k(   14) = (   0.1250000   0.2500000   0.3500000), wk =   0.0400000
        k(   15) = (   0.1250000   0.2500000   0.4500000), wk =   0.0400000
        k(   16) = (   0.1250000   0.3500000   0.0500000), wk =   0.0400000
        k(   17) = (   0.1250000   0.3500000   0.1500000), wk =   0.0400000
        k(   18) = (   0.1250000   0.3500000   0.2500000), wk =   0.0400000
        k(   19) = (   0.1250000   0.3500000   0.3500000), wk =   0.0400000
        k(   20) = (   0.1250000   0.3500000   0.4500000), wk =   0.0400000
        k(   21) = (   0.1250000   0.4500000   0.0500000), wk =   0.0400000
        k(   22) = (   0.1250000   0.4500000   0.1500000), wk =   0.0400000
        k(   23) = (   0.1250000   0.4500000   0.2500000), wk =   0.0400000
        k(   24) = (   0.1250000   0.4500000   0.3500000), wk =   0.0400000
        k(   25) = (   0.1250000   0.4500000   0.4500000), wk =   0.0400000
        k(   26) = (   0.3750000   0.0500000   0.0500000), wk =   0.0400000
        k(   27) = (   0.3750000   0.0500000   0.1500000), wk =   0.0400000
        k(   28) = (   0.3750000   0.0500000   0.2500000), wk =   0.0400000
        k(   29) = (   0.3750000   0.0500000   0.3500000), wk =   0.0400000
        k(   30) = (   0.3750000   0.0500000   0.4500000), wk =   0.0400000
        k(   31) = (   0.3750000   0.1500000   0.0500000), wk =   0.0400000
        k(   32) = (   0.3750000   0.1500000   0.1500000), wk =   0.0400000
        k(   33) = (   0.3750000   0.1500000   0.2500000), wk =   0.0400000
        k(   34) = (   0.3750000   0.1500000   0.3500000), wk =   0.0400000
        k(   35) = (   0.3750000   0.1500000   0.4500000), wk =   0.0400000
        k(   36) = (   0.3750000   0.2500000   0.0500000), wk =   0.0400000
        k(   37) = (   0.3750000   0.2500000   0.1500000), wk =   0.0400000
        k(   38) = (   0.3750000   0.2500000   0.2500000), wk =   0.0400000
        k(   39) = (   0.3750000   0.2500000   0.3500000), wk =   0.0400000
        k(   40) = (   0.3750000   0.2500000   0.4500000), wk =   0.0400000
        k(   41) = (   0.3750000   0.3500000   0.0500000), wk =   0.0400000
        k(   42) = (   0.3750000   0.3500000   0.1500000), wk =   0.0400000
        k(   43) = (   0.3750000   0.3500000   0.2500000), wk =   0.0400000
        k(   44) = (   0.3750000   0.3500000   0.3500000), wk =   0.0400000
        k(   45) = (   0.3750000   0.3500000   0.4500000), wk =   0.0400000
        k(   46) = (   0.3750000   0.4500000   0.0500000), wk =   0.0400000
        k(   47) = (   0.3750000   0.4500000   0.1500000), wk =   0.0400000
        k(   48) = (   0.3750000   0.4500000   0.2500000), wk =   0.0400000
        k(   49) = (   0.3750000   0.4500000   0.3500000), wk =   0.0400000
        k(   50) = (   0.3750000   0.4500000   0.4500000), wk =   0.0400000

     Dense  grid:   269075 G-vectors     FFT dimensions: ( 160,  60,  60)

     Smooth grid:    68055 G-vectors     FFT dimensions: ( 100,  36,  40)

     Dynamical RAM for                 wfc:       6.49 MB

     Dynamical RAM for     wfc (w. buffer):      64.94 MB

     Dynamical RAM for           str. fact:       8.21 MB

     Dynamical RAM for           local pot:       0.00 MB

     Dynamical RAM for          nlocal pot:      18.70 MB

     Dynamical RAM for                qrad:       3.59 MB

     Dynamical RAM for          rho,v,vnew:      25.50 MB

     Dynamical RAM for               rhoin:       8.50 MB

     Dynamical RAM for            rho*nmix:      65.69 MB

     Dynamical RAM for           G-vectors:      15.92 MB

     Dynamical RAM for          h,s,v(r/c):       0.46 MB

     Dynamical RAM for          <psi|beta>:       0.11 MB

     Dynamical RAM for                 psi:      12.99 MB

     Dynamical RAM for                hpsi:      12.99 MB

     Dynamical RAM for                spsi:      12.99 MB

     Dynamical RAM for      wfcinit/wfcrot:      13.57 MB

     Dynamical RAM for           addusdens:     133.43 MB

     Dynamical RAM for          addusforce:     136.19 MB

     Estimated static dynamical RAM per process >     245.34 MB

     Estimated max dynamical RAM per process >     381.53 MB

     Estimated total dynamical RAM >       2.24 GB

     Initial potential from superposition of free atoms

     starting charge   75.99954, renormalised to   80.00000
     Starting wfcs are   52 randomized atomic wfcs

     total cpu time spent up to now is       13.2 secs

     Self-consistent Calculation

     iteration #  1     ecut=    50.00 Ry     beta= 0.70
     Davidson diagonalization with overlap
     ethr =  1.00E-02,  avg # of iterations =  4.0

     total cpu time spent up to now is       51.3 secs

     total energy              =    -826.55244236 Ry
     estimated scf accuracy    <       2.63091409 Ry

     iteration #  2     ecut=    50.00 Ry     beta= 0.70
     Davidson diagonalization with overlap
     ethr =  3.29E-03,  avg # of iterations =  2.0

     total cpu time spent up to now is       82.9 secs

     total energy              =    -827.33928932 Ry
     estimated scf accuracy    <       1.08726489 Ry

     iteration #  3     ecut=    50.00 Ry     beta= 0.70
     Davidson diagonalization with overlap
     ethr =  1.36E-03,  avg # of iterations =  2.0

     total cpu time spent up to now is      110.3 secs

     total energy              =    -827.60930720 Ry
     estimated scf accuracy    <       0.06093557 Ry

     iteration #  4     ecut=    50.00 Ry     beta= 0.70
     Davidson diagonalization with overlap
     ethr =  7.62E-05,  avg # of iterations =  3.2

     total cpu time spent up to now is      140.7 secs

     total energy              =    -827.62040582 Ry
     estimated scf accuracy    <       0.00292271 Ry

     iteration #  5     ecut=    50.00 Ry     beta= 0.70
     Davidson diagonalization with overlap
     ethr =  3.65E-06,  avg # of iterations =  7.3

     total cpu time spent up to now is      181.0 secs

     total energy              =    -827.62105325 Ry
     estimated scf accuracy    <       0.00081132 Ry

     iteration #  6     ecut=    50.00 Ry     beta= 0.70
     Davidson diagonalization with overlap
     ethr =  1.01E-06,  avg # of iterations =  2.0

     total cpu time spent up to now is      211.9 secs

     total energy              =    -827.62122866 Ry
     estimated scf accuracy    <       0.00004433 Ry

     iteration #  7     ecut=    50.00 Ry     beta= 0.70
     Davidson diagonalization with overlap
     ethr =  5.54E-08,  avg # of iterations =  5.0

     total cpu time spent up to now is      253.4 secs

     total energy              =    -827.62125652 Ry
     estimated scf accuracy    <       0.00000257 Ry

     iteration #  8     ecut=    50.00 Ry     beta= 0.70
     Davidson diagonalization with overlap
     ethr =  3.21E-09,  avg # of iterations =  3.4

     total cpu time spent up to now is      292.6 secs

     total energy              =    -827.62125761 Ry
     estimated scf accuracy    <       0.00000043 Ry

     iteration #  9     ecut=    50.00 Ry     beta= 0.70
     Davidson diagonalization with overlap
     ethr =  5.35E-10,  avg # of iterations =  2.9

     total cpu time spent up to now is      326.3 secs

     End of self-consistent calculation

          k = 0.1250 0.1358 0.1281 (  8489 PWs)   bands (ev):

   -13.2652 -13.2548 -13.2515 -13.2497 -13.2491 -13.2463 -13.2427 -13.2386
   -13.2349 -13.2321 -13.2319 -13.2263 -13.2174 -13.2115 -13.1966 -13.1927
   -13.1870 -13.1844 -13.1751 -13.1669  -5.7154  -5.3985  -4.6283  -4.1804
     0.7738   1.7532   2.6022   2.9385   3.2579   4.6230   4.6832   4.9188
     5.1759   5.3764   5.8811   6.2973   6.5123   6.8976   7.3800   7.5704
     9.1288  10.7837  11.0456  11.1763  11.3059  11.4138  12.1526  12.4143
    12.7042  12.9115

     occupation numbers 
     1.0000   1.0000   1.0000   1.0000   1.0000   1.0000   1.0000   1.0000
     1.0000   1.0000   1.0000   1.0000   1.0000   1.0000   1.0000   1.0000
     1.0000   1.0000   1.0000   1.0000   1.0000   1.0000   1.0000   1.0000
     1.0000   1.0000   1.0000   1.0000   1.0000   1.0000   1.0000   1.0000
     1.0000   1.0000   1.0000   1.0000   1.0000   1.0000   1.0000   1.0000
     0.0000   0.0000   0.0000   0.0000   0.0000   0.0000   0.0000   0.0000
     0.0000   0.0000

          k = 0.1250 0.1358 0.3842 (  8497 PWs)   bands (ev):

   -13.2641 -13.2540 -13.2514 -13.2507 -13.2485 -13.2475 -13.2433 -13.2396
   -13.2343 -13.2305 -13.2296 -13.2264 -13.2170 -13.2119 -13.1967 -13.1922
   -13.1877 -13.1849 -13.1747 -13.1673  -5.6306  -5.3206  -4.6190  -4.2012
     0.5222   1.5706   2.1555   2.6971   3.2849   4.6229   4.7549   5.2749
     5.4473   5.7782   5.8827   6.3715   6.6651   7.1862   7.2721   7.5904
     9.1974  10.2117  10.6319  11.0658  11.1326  11.4336  11.7769  12.2415
    12.4771  12.9331

     occupation numbers 
     1.0000   1.0000   1.0000   1.0000   1.0000   1.0000   1.0000   1.0000
     1.0000   1.0000   1.0000   1.0000   1.0000   1.0000   1.0000   1.0000
     1.0000   1.0000   1.0000   1.0000   1.0000   1.0000   1.0000   1.0000
     1.0000   1.0000   1.0000   1.0000   1.0000   1.0000   1.0000   1.0000
     1.0000   1.0000   1.0000   1.0000   1.0000   1.0000   1.0000   1.0000
     0.0000   0.0000   0.0000   0.0000   0.0000   0.0000   0.0000   0.0000
     0.0000   0.0000

          k = 0.1250 0.1358 0.6403 (  8509 PWs)   bands (ev):

   -13.2622 -13.2531 -13.2522 -13.2510 -13.2494 -13.2476 -13.2442 -13.2412
   -13.2330 -13.2275 -13.2269 -13.2260 -13.2165 -13.2128 -13.1965 -13.1914
   -13.1890 -13.1858 -13.1739 -13.1680  -5.4710  -5.1739  -4.6227  -4.2563
     0.2028   1.2075   1.6249   2.3089   3.4714   4.7931   4.9283   5.6065
     5.8060   5.9746   6.1591   6.4328   6.9299   7.1713   7.4712   7.7757
     9.3638   9.6326   9.8449  10.5446  10.6720  11.2498  11.4986  11.6773
    12.5436  12.6422

     occupation numbers 
     1.0000   1.0000   1.0000   1.0000   1.0000   1.0000   1.0000   1.0000
     1.0000   1.0000   1.0000   1.0000   1.0000   1.0000   1.0000   1.0000
     1.0000   1.0000   1.0000   1.0000   1.0000   1.0000   1.0000   1.0000
     1.0000   1.0000   1.0000   1.0000   1.0000   1.0000   1.0000   1.0000
     1.0000   1.0000   1.0000   1.0000   1.0000   1.0000   1.0000   1.0000
     0.0000   0.0000   0.0000   0.0000   0.0000   0.0000   0.0000   0.0000
     0.0000   0.0000

          k = 0.1250 0.1358 0.8965 (  8506 PWs)   bands (ev):

   -13.2598 -13.2540 -13.2529 -13.2520 -13.2495 -13.2472 -13.2449 -13.2430
   -13.2315 -13.2276 -13.2235 -13.2223 -13.2165 -13.2142 -13.1958 -13.1913
   -13.1897 -13.1869 -13.1728 -13.1690  -5.2582  -4.9797  -4.6734  -4.3633
    -0.0067   0.6910   1.3651   1.8802   3.8030   4.9375   5.1896   5.7326
     6.0593   6.1498   6.3874   6.4930   7.0010   7.4105   7.6527   7.9889
     9.1210   9.3353   9.8151   9.9004  10.1037  10.6926  11.0506  11.1788
    12.0009  12.1129

     occupation numbers 
     1.0000   1.0000   1.0000   1.0000   1.0000   1.0000   1.0000   1.0000
     1.0000   1.0000   1.0000   1.0000   1.0000   1.0000   1.0000   1.0000
     1.0000   1.0000   1.0000   1.0000   1.0000   1.0000   1.0000   1.0000
     1.0000   1.0000   1.0000   1.0000   1.0000   1.0000   1.0000   1.0000
     1.0000   1.0000   1.0000   1.0000   1.0000   1.0000   1.0000   1.0000
     0.0000   0.0000   0.0000   0.0000   0.0000   0.0000   0.0000   0.0000
     0.0000   0.0000

          k = 0.1250 0.1358 1.1526 (  8485 PWs)   bands (ev):

   -13.2574 -13.2554 -13.2534 -13.2532 -13.2483 -13.2474 -13.2449 -13.2443
   -13.2300 -13.2286 -13.2198 -13.2190 -13.2175 -13.2162 -13.1944 -13.1927
   -13.1889 -13.1879 -13.1715 -13.1702  -5.0291  -4.8506  -4.7136  -4.5275
    -0.0009   0.2460   1.3476   1.5338   4.2306   4.6776   5.5778   5.8599
     6.0095   6.2061   6.4453   6.6364   7.2476   7.5425   7.7442   7.8528
     9.1185   9.2520   9.4348   9.8871   9.9647  10.3407  10.6702  11.0108
    11.4171  11.5724

     occupation numbers 
     1.0000   1.0000   1.0000   1.0000   1.0000   1.0000   1.0000   1.0000
     1.0000   1.0000   1.0000   1.0000   1.0000   1.0000   1.0000   1.0000
     1.0000   1.0000   1.0000   1.0000   1.0000   1.0000   1.0000   1.0000
     1.0000   1.0000   1.0000   1.0000   1.0000   1.0000   1.0000   1.0000
     1.0000   1.0000   1.0000   1.0000   1.0000   1.0000   1.0000   1.0000
     0.0000   0.0000   0.0000   0.0000   0.0000   0.0000   0.0000   0.0000
     0.0000   0.0000

          k = 0.1250 0.4074 0.1281 (  8497 PWs)   bands (ev):

   -13.2610 -13.2531 -13.2513 -13.2491 -13.2479 -13.2472 -13.2455 -13.2409
   -13.2364 -13.2300 -13.2288 -13.2286 -13.2150 -13.2120 -13.1946 -13.1936
   -13.1867 -13.1857 -13.1753 -13.1684  -5.6091  -5.3071  -4.5855  -4.1855
     0.6421   1.5243   2.3834   2.4783   3.2936   4.5073   4.7664   5.0999
     5.3439   5.4705   5.9793   6.3695   6.5547   7.2068   7.4162   7.5095
     9.2813  10.0630  10.8672  11.0217  11.2166  11.4171  11.8137  12.1532
    12.5268  12.9111

     occupation numbers 
     1.0000   1.0000   1.0000   1.0000   1.0000   1.0000   1.0000   1.0000
     1.0000   1.0000   1.0000   1.0000   1.0000   1.0000   1.0000   1.0000
     1.0000   1.0000   1.0000   1.0000   1.0000   1.0000   1.0000   1.0000
     1.0000   1.0000   1.0000   1.0000   1.0000   1.0000   1.0000   1.0000
     1.0000   1.0000   1.0000   1.0000   1.0000   1.0000   1.0000   1.0000
     0.0000   0.0000   0.0000   0.0000   0.0000   0.0000   0.0000   0.0000
     0.0000   0.0000

          k = 0.1250 0.4074 0.3842 (  8510 PWs)   bands (ev):

   -13.2605 -13.2529 -13.2525 -13.2488 -13.2481 -13.2469 -13.2458 -13.2424
   -13.2357 -13.2290 -13.2280 -13.2268 -13.2152 -13.2120 -13.1949 -13.1929
   -13.1872 -13.1864 -13.1749 -13.1687  -5.5267  -5.2318  -4.5755  -4.2015
     0.4831   1.4594   2.0288   2.3832   3.3755   4.2063   4.4250   5.3799
     5.5541   5.8210   5.9600   6.3006   6.9717   7.2262   7.4888   7.6157
     9.3274   9.7350  10.2205  10.5163  11.1669  11.4143  11.9340  11.9969
    12.4990  12.8420

     occupation numbers 
     1.0000   1.0000   1.0000   1.0000   1.0000   1.0000   1.0000   1.0000
     1.0000   1.0000   1.0000   1.0000   1.0000   1.0000   1.0000   1.0000
     1.0000   1.0000   1.0000   1.0000   1.0000   1.0000   1.0000   1.0000
     1.0000   1.0000   1.0000   1.0000   1.0000   1.0000   1.0000   1.0000
     1.0000   1.0000   1.0000   1.0000   1.0000   1.0000   1.0000   1.0000
     0.0000   0.0000   0.0000   0.0000   0.0000   0.0000   0.0000   0.0000
     0.0000   0.0000

          k = 0.1250 0.4074 0.6403 (  8511 PWs)   bands (ev):

   -13.2599 -13.2544 -13.2528 -13.2489 -13.2478 -13.2475 -13.2452 -13.2444
   -13.2345 -13.2292 -13.2250 -13.2237 -13.2154 -13.2121 -13.1948 -13.1921
   -13.1881 -13.1875 -13.1741 -13.1692  -5.3721  -5.0908  -4.5765  -4.2466
     0.2604   1.2369   1.6104   2.1581   3.5810   4.1201   4.3292   5.3888
     5.5458   6.0414   6.2010   6.4573   7.1331   7.2187   7.5060   7.6423
     9.4329   9.6570   9.7634  10.0800  10.9040  11.1225  11.5828  12.1413
    12.7030  12.7691

     occupation numbers 
     1.0000   1.0000   1.0000   1.0000   1.0000   1.0000   1.0000   1.0000
     1.0000   1.0000   1.0000   1.0000   1.0000   1.0000   1.0000   1.0000
     1.0000   1.0000   1.0000   1.0000   1.0000   1.0000   1.0000   1.0000
     1.0000   1.0000   1.0000   1.0000   1.0000   1.0000   1.0000   1.0000
     1.0000   1.0000   1.0000   1.0000   1.0000   1.0000   1.0000   1.0000
     0.0000   0.0000   0.0000   0.0000   0.0000   0.0000   0.0000   0.0000
     0.0000   0.0000

          k = 0.1250 0.4074 0.8965 (  8510 PWs)   bands (ev):

   -13.2595 -13.2566 -13.2526 -13.2499 -13.2485 -13.2466 -13.2463 -13.2444
   -13.2331 -13.2298 -13.2216 -13.2201 -13.2158 -13.2127 -13.1940 -13.1912
   -13.1896 -13.1884 -13.1731 -13.1700  -5.1676  -4.9057  -4.6207  -4.3389
     0.1087   0.7859   1.4333   1.8624   3.8881   4.2737   4.4515   5.3176
     5.5554   5.8369   6.1728   6.6423   7.0369   7.3110   7.4447   7.6538
     9.2746   9.5873   9.8306  10.1176  10.7117  11.0935  11.1607  12.0130
    12.5493  12.7411

     occupation numbers 
     1.0000   1.0000   1.0000   1.0000   1.0000   1.0000   1.0000   1.0000
     1.0000   1.0000   1.0000   1.0000   1.0000   1.0000   1.0000   1.0000
     1.0000   1.0000   1.0000   1.0000   1.0000   1.0000   1.0000   1.0000
     1.0000   1.0000   1.0000   1.0000   1.0000   1.0000   1.0000   1.0000
     1.0000   1.0000   1.0000   1.0000   1.0000   1.0000   1.0000   1.0000
     0.0000   0.0000   0.0000   0.0000   0.0000   0.0000   0.0000   0.0000
     0.0000   0.0000

          k = 0.1250 0.4074 1.1526 (  8498 PWs)   bands (ev):

   -13.2591 -13.2582 -13.2520 -13.2510 -13.2487 -13.2479 -13.2452 -13.2445
   -13.2317 -13.2306 -13.2188 -13.2172 -13.2163 -13.2142 -13.1927 -13.1912
   -13.1902 -13.1893 -13.1720 -13.1709  -4.9501  -4.7833  -4.6566  -4.4857
     0.1341   0.3724   1.4369   1.5935   4.2408   4.4403   4.7396   5.1177
     5.4054   5.5063   6.2721   6.4966   7.0725   7.3066   7.4942   7.6055
     9.2686   9.5118   9.7560  10.1405  10.8415  11.0920  11.4411  11.6692
    12.1583  12.3579

     occupation numbers 
     1.0000   1.0000   1.0000   1.0000   1.0000   1.0000   1.0000   1.0000
     1.0000   1.0000   1.0000   1.0000   1.0000   1.0000   1.0000   1.0000
     1.0000   1.0000   1.0000   1.0000   1.0000   1.0000   1.0000   1.0000
     1.0000   1.0000   1.0000   1.0000   1.0000   1.0000   1.0000   1.0000
     1.0000   1.0000   1.0000   1.0000   1.0000   1.0000   1.0000   1.0000
     0.0000   0.0000   0.0000   0.0000   0.0000   0.0000   0.0000   0.0000
     0.0000   0.0000

          k = 0.1250 0.6790 0.1281 (  8515 PWs)   bands (ev):

   -13.2560 -13.2545 -13.2532 -13.2507 -13.2469 -13.2443 -13.2437 -13.2422
   -13.2367 -13.2316 -13.2280 -13.2243 -13.2138 -13.2118 -13.1961 -13.1923
   -13.1900 -13.1834 -13.1753 -13.1708  -5.4072  -5.1381  -4.5259  -4.2229
     0.4355   1.1945   1.7404   2.0410   3.4955   4.5782   4.9225   5.3091
     5.5463   5.6527   6.1510   6.3844   6.7070   7.2980   7.3386   7.7638
     9.1064   9.5626  10.1060  10.4079  10.7813  11.2608  11.3871  11.8218
    12.6377  12.6844

     occupation numbers 
     1.0000   1.0000   1.0000   1.0000   1.0000   1.0000   1.0000   1.0000
     1.0000   1.0000   1.0000   1.0000   1.0000   1.0000   1.0000   1.0000
     1.0000   1.0000   1.0000   1.0000   1.0000   1.0000   1.0000   1.0000
     1.0000   1.0000   1.0000   1.0000   1.0000   1.0000   1.0000   1.0000
     1.0000   1.0000   1.0000   1.0000   1.0000   1.0000   1.0000   1.0000
     0.0000   0.0000   0.0000   0.0000   0.0000   0.0000   0.0000   0.0000
     0.0000   0.0000

          k = 0.1250 0.6790 0.3842 (  8514 PWs)   bands (ev):

   -13.2584 -13.2554 -13.2532 -13.2515 -13.2465 -13.2444 -13.2434 -13.2420
   -13.2358 -13.2315 -13.2265 -13.2228 -13.2146 -13.2111 -13.1958 -13.1924
   -13.1901 -13.1841 -13.1749 -13.1709  -5.3301  -5.0686  -4.5133  -4.2282
     0.4053   1.2465   1.6937   1.9222   3.5948   4.0043   4.3199   5.1833
     5.5920   6.0642   6.0655   6.3394   6.9806   7.2242   7.4227   7.5322
     9.3836   9.6077   9.7178  10.0092  10.9411  11.1853  11.7751  12.0746
    12.6248  12.9021

     occupation numbers 
     1.0000   1.0000   1.0000   1.0000   1.0000   1.0000   1.0000   1.0000
     1.0000   1.0000   1.0000   1.0000   1.0000   1.0000   1.0000   1.0000
     1.0000   1.0000   1.0000   1.0000   1.0000   1.0000   1.0000   1.0000
     1.0000   1.0000   1.0000   1.0000   1.0000   1.0000   1.0000   1.0000
     1.0000   1.0000   1.0000   1.0000   1.0000   1.0000   1.0000   1.0000
     0.0000   0.0000   0.0000   0.0000   0.0000   0.0000   0.0000   0.0000
     0.0000   0.0000

          k = 0.1250 0.6790 0.6403 (  8515 PWs)   bands (ev):

   -13.2609 -13.2579 -13.2541 -13.2527 -13.2465 -13.2438 -13.2422 -13.2419
   -13.2346 -13.2315 -13.2237 -13.2202 -13.2150 -13.2108 -13.1953 -13.1925
   -13.1900 -13.1851 -13.1743 -13.1711  -5.1868  -4.9400  -4.5071  -4.2518
     0.3520   1.2440   1.5221   1.8388   3.6364   3.7660   3.9791   4.9671
     5.1399   5.9658   6.0999   6.5617   6.6979   6.9733   7.3032   7.5330
     9.2026   9.6336  10.2608  10.6104  10.8185  11.3189  11.5536  12.4954
    12.8233  13.1797

     occupation numbers 
     1.0000   1.0000   1.0000   1.0000   1.0000   1.0000   1.0000   1.0000
     1.0000   1.0000   1.0000   1.0000   1.0000   1.0000   1.0000   1.0000
     1.0000   1.0000   1.0000   1.0000   1.0000   1.0000   1.0000   1.0000
     1.0000   1.0000   1.0000   1.0000   1.0000   1.0000   1.0000   1.0000
     1.0000   1.0000   1.0000   1.0000   1.0000   1.0000   1.0000   1.0000
     0.0000   0.0000   0.0000   0.0000   0.0000   0.0000   0.0000   0.0000
     0.0000   0.0000

          k = 0.1250 0.6790 0.8965 (  8510 PWs)   bands (ev):

   -13.2629 -13.2608 -13.2555 -13.2545 -13.2458 -13.2430 -13.2421 -13.2414
   -13.2334 -13.2316 -13.2208 -13.2176 -13.2150 -13.2112 -13.1945 -13.1927
   -13.1895 -13.1862 -13.1735 -13.1714  -5.0009  -4.7748  -4.5362  -4.3128
     0.3216   0.9457   1.5123   1.7643   3.5751   3.8093   4.1022   4.7569
     4.8683   5.6050   5.7962   6.3430   6.4258   6.8671   7.0798   7.5182
     9.1105  10.1163  10.6418  11.0112  11.3394  11.5295  11.6832  12.6048
    12.9219  13.2334

     occupation numbers 
     1.0000   1.0000   1.0000   1.0000   1.0000   1.0000   1.0000   1.0000
     1.0000   1.0000   1.0000   1.0000   1.0000   1.0000   1.0000   1.0000
     1.0000   1.0000   1.0000   1.0000   1.0000   1.0000   1.0000   1.0000
     1.0000   1.0000   1.0000   1.0000   1.0000   1.0000   1.0000   1.0000
     1.0000   1.0000   1.0000   1.0000   1.0000   1.0000   1.0000   1.0000
     0.0000   0.0000   0.0000   0.0000   0.0000   0.0000   0.0000   0.0000
     0.0000   0.0000

          k = 0.1250 0.6790 1.1526 (  8505 PWs)   bands (ev):

   -13.2637 -13.2630 -13.2563 -13.2559 -13.2446 -13.2435 -13.2416 -13.2412
   -13.2324 -13.2319 -13.2183 -13.2168 -13.2138 -13.2122 -13.1937 -13.1931
   -13.1886 -13.1874 -13.1727 -13.1720  -4.8086  -4.6670  -4.5618  -4.4231
     0.3920   0.6094   1.5703   1.6608   3.7839   3.9813   4.1458   4.3915
     4.8816   5.2518   5.6592   5.9578   6.4189   6.6696   7.1053   7.2879
     9.4541  10.0146  10.7716  11.3223  11.6733  11.9339  12.4080  12.4801
    12.9073  12.9749

     occupation numbers 
     1.0000   1.0000   1.0000   1.0000   1.0000   1.0000   1.0000   1.0000
     1.0000   1.0000   1.0000   1.0000   1.0000   1.0000   1.0000   1.0000
     1.0000   1.0000   1.0000   1.0000   1.0000   1.0000   1.0000   1.0000
     1.0000   1.0000   1.0000   1.0000   1.0000   1.0000   1.0000   1.0000
     1.0000   1.0000   1.0000   1.0000   1.0000   1.0000   1.0000   1.0000
     0.0000   0.0000   0.0000   0.0000   0.0000   0.0000   0.0000   0.0000
     0.0000   0.0000

          k = 0.1250 0.9507 0.1281 (  8539 PWs)   bands (ev):

   -13.2586 -13.2561 -13.2553 -13.2529 -13.2433 -13.2424 -13.2416 -13.2376
   -13.2345 -13.2328 -13.2272 -13.2198 -13.2159 -13.2090 -13.1993 -13.1982
   -13.1862 -13.1807 -13.1753 -13.1737  -5.1331  -4.9219  -4.4981  -4.3338
     0.2741   0.9589   1.0732   1.5751   3.8522   4.8071   5.0897   5.5330
     5.7152   5.8925   6.1980   6.4274   6.8718   7.2041   7.2772   7.7328
     8.8268   9.4921   9.7325   9.7664  10.3123  10.6679  10.7925  11.1813
    12.0173  12.2121

     occupation numbers 
     1.0000   1.0000   1.0000   1.0000   1.0000   1.0000   1.0000   1.0000
     1.0000   1.0000   1.0000   1.0000   1.0000   1.0000   1.0000   1.0000
     1.0000   1.0000   1.0000   1.0000   1.0000   1.0000   1.0000   1.0000
     1.0000   1.0000   1.0000   1.0000   1.0000   1.0000   1.0000   1.0000
     1.0000   1.0000   1.0000   1.0000   1.0000   1.0000   1.0000   1.0000
     0.0000   0.0000   0.0000   0.0000   0.0000   0.0000   0.0000   0.0000
     0.0000   0.0000

          k = 0.1250 0.9507 0.3842 (  8539 PWs)   bands (ev):

   -13.2609 -13.2583 -13.2565 -13.2543 -13.2434 -13.2409 -13.2409 -13.2373
   -13.2335 -13.2325 -13.2260 -13.2192 -13.2156 -13.2090 -13.1989 -13.1977
   -13.1862 -13.1812 -13.1750 -13.1735  -5.0654  -4.8622  -4.4792  -4.3220
     0.3423   1.0524   1.1504   1.5464   3.9240   4.0895   4.4649   5.1976
     5.5443   5.8523   6.0997   6.4958   6.6539   7.1269   7.1741   7.4523
     9.2513   9.4942   9.5696   9.9453  10.8056  11.2571  11.3292  11.7390
    12.3357  12.7875

     occupation numbers 
     1.0000   1.0000   1.0000   1.0000   1.0000   1.0000   1.0000   1.0000
     1.0000   1.0000   1.0000   1.0000   1.0000   1.0000   1.0000   1.0000
     1.0000   1.0000   1.0000   1.0000   1.0000   1.0000   1.0000   1.0000
     1.0000   1.0000   1.0000   1.0000   1.0000   1.0000   1.0000   1.0000
     1.0000   1.0000   1.0000   1.0000   1.0000   1.0000   1.0000   1.0000
     0.0000   0.0000   0.0000   0.0000   0.0000   0.0000   0.0000   0.0000
     0.0000   0.0000

          k = 0.1250 0.9507 0.6403 (  8511 PWs)   bands (ev):

   -13.2643 -13.2618 -13.2585 -13.2568 -13.2429 -13.2399 -13.2392 -13.2369
   -13.2322 -13.2320 -13.2238 -13.2183 -13.2146 -13.2093 -13.1981 -13.1971
   -13.1861 -13.1821 -13.1745 -13.1732  -4.9422  -4.7544  -4.4575  -4.3116
     0.4585   1.1665   1.2978   1.5008   3.5118   3.8500   4.1441   4.6654
     4.9763   5.6064   5.7730   6.0844   6.4907   6.7010   6.9245   7.4744
     9.0272  10.1289  10.4103  10.8398  11.1946  11.5888  12.0639  12.3710
    12.5942  12.9648

     occupation numbers 
     1.0000   1.0000   1.0000   1.0000   1.0000   1.0000   1.0000   1.0000
     1.0000   1.0000   1.0000   1.0000   1.0000   1.0000   1.0000   1.0000
     1.0000   1.0000   1.0000   1.0000   1.0000   1.0000   1.0000   1.0000
     1.0000   1.0000   1.0000   1.0000   1.0000   1.0000   1.0000   1.0000
     1.0000   1.0000   1.0000   1.0000   1.0000   1.0000   1.0000   1.0000
     0.0000   0.0000   0.0000   0.0000   0.0000   0.0000   0.0000   0.0000
     0.0000   0.0000

          k = 0.1250 0.9507 0.8965 (  8497 PWs)   bands (ev):

   -13.2671 -13.2654 -13.2605 -13.2595 -13.2421 -13.2396 -13.2377 -13.2366
   -13.2314 -13.2312 -13.2214 -13.2178 -13.2130 -13.2097 -13.1973 -13.1965
   -13.1856 -13.1830 -13.1740 -13.1731  -4.7881  -4.6218  -4.4593  -4.3240
     0.5933   1.1033   1.4970   1.5484   3.2146   3.5931   4.0662   4.2421
     4.6851   5.0579   5.3499   5.7889   6.1326   6.3692   6.8785   7.1526
     9.3582  10.9504  11.0140  11.2101  11.7447  12.0322  12.6365  12.7896
    12.8896  13.1579

     occupation numbers 
     1.0000   1.0000   1.0000   1.0000   1.0000   1.0000   1.0000   1.0000
     1.0000   1.0000   1.0000   1.0000   1.0000   1.0000   1.0000   1.0000
     1.0000   1.0000   1.0000   1.0000   1.0000   1.0000   1.0000   1.0000
     1.0000   1.0000   1.0000   1.0000   1.0000   1.0000   1.0000   1.0000
     1.0000   1.0000   1.0000   1.0000   1.0000   1.0000   1.0000   1.0000
     0.0000   0.0000   0.0000   0.0000   0.0000   0.0000   0.0000   0.0000
     0.0000   0.0000

          k = 0.1250 0.9507 1.1526 (  8501 PWs)   bands (ev):

   -13.2685 -13.2679 -13.2617 -13.2613 -13.2411 -13.2402 -13.2368 -13.2365
   -13.2309 -13.2308 -13.2194 -13.2181 -13.2114 -13.2103 -13.1966 -13.1963
   -13.1848 -13.1839 -13.1735 -13.1732  -4.6380  -4.5375  -4.4665  -4.3778
     0.7398   0.9172   1.6328   1.6360   3.2405   3.5585   3.6720   4.0059
     4.5436   4.8115   5.2261   5.6215   5.8385   6.0967   6.8818   6.9385
     9.8771  10.4448  11.5772  11.5982  12.3833  12.5631  12.7726  12.9437
    13.1339  13.3854

     occupation numbers 
     1.0000   1.0000   1.0000   1.0000   1.0000   1.0000   1.0000   1.0000
     1.0000   1.0000   1.0000   1.0000   1.0000   1.0000   1.0000   1.0000
     1.0000   1.0000   1.0000   1.0000   1.0000   1.0000   1.0000   1.0000
     1.0000   1.0000   1.0000   1.0000   1.0000   1.0000   1.0000   1.0000
     1.0000   1.0000   1.0000   1.0000   1.0000   1.0000   1.0000   1.0000
     0.0000   0.0000   0.0000   0.0000   0.0000   0.0000   0.0000   0.0000
     0.0000   0.0000

          k = 0.1250 1.2223 0.1281 (  8544 PWs)   bands (ev):

   -13.2600 -13.2589 -13.2564 -13.2552 -13.2408 -13.2403 -13.2396 -13.2377
   -13.2301 -13.2288 -13.2277 -13.2225 -13.2120 -13.2065 -13.2046 -13.2026
   -13.1816 -13.1782 -13.1770 -13.1760  -4.8263  -4.7075  -4.5538  -4.5419
     0.2924   0.5636   0.9456   1.1723   4.3061   4.7449   5.3593   5.7049
     5.8338   5.8607   6.2665   6.5261   7.0510   7.1043   7.2245   7.2993
     9.1361   9.2249   9.3980   9.6423   9.9725  10.1978  10.6906  10.9120
    11.4197  11.6061

     occupation numbers 
     1.0000   1.0000   1.0000   1.0000   1.0000   1.0000   1.0000   1.0000
     1.0000   1.0000   1.0000   1.0000   1.0000   1.0000   1.0000   1.0000
     1.0000   1.0000   1.0000   1.0000   1.0000   1.0000   1.0000   1.0000
     1.0000   1.0000   1.0000   1.0000   1.0000   1.0000   1.0000   1.0000
     1.0000   1.0000   1.0000   1.0000   1.0000   1.0000   1.0000   1.0000
     0.0000   0.0000   0.0000   0.0000   0.0000   0.0000   0.0000   0.0000
     0.0000   0.0000

          k = 0.1250 1.2223 0.3842 (  8533 PWs)   bands (ev):

   -13.2624 -13.2613 -13.2580 -13.2570 -13.2408 -13.2399 -13.2381 -13.2368
   -13.2298 -13.2286 -13.2263 -13.2220 -13.2118 -13.2079 -13.2026 -13.2018
   -13.1818 -13.1792 -13.1761 -13.1757  -4.7736  -4.6615  -4.5232  -4.5087
     0.4046   0.6740   1.0379   1.2214   4.3004   4.3809   4.6674   5.0540
     5.3436   5.5669   6.2639   6.4166   6.4665   6.7423   7.2807   7.4405
     9.0532   9.1829   9.7832  10.1195  10.8519  11.0698  11.3129  11.7391
    11.8219  12.4231

     occupation numbers 
     1.0000   1.0000   1.0000   1.0000   1.0000   1.0000   1.0000   1.0000
     1.0000   1.0000   1.0000   1.0000   1.0000   1.0000   1.0000   1.0000
     1.0000   1.0000   1.0000   1.0000   1.0000   1.0000   1.0000   1.0000
     1.0000   1.0000   1.0000   1.0000   1.0000   1.0000   1.0000   1.0000
     1.0000   1.0000   1.0000   1.0000   1.0000   1.0000   1.0000   1.0000
     0.0000   0.0000   0.0000   0.0000   0.0000   0.0000   0.0000   0.0000
     0.0000   0.0000

          k = 0.1250 1.2223 0.6403 (  8514 PWs)   bands (ev):

   -13.2660 -13.2651 -13.2606 -13.2599 -13.2405 -13.2394 -13.2362 -13.2355
   -13.2292 -13.2281 -13.2245 -13.2212 -13.2112 -13.2087 -13.2008 -13.2005
   -13.1819 -13.1800 -13.1754 -13.1753  -4.6812  -4.5824  -4.4760  -4.4562
     0.6134   0.8779   1.2012   1.2969   3.7219   4.0862   4.1994   4.4226
     4.8787   5.2568   5.6856   5.9232   6.0132   6.2873   7.0663   7.2597
     9.2993   9.8331  10.7471  11.1220  11.6427  11.8209  12.0865  12.3319
    12.6525  12.8535

     occupation numbers 
     1.0000   1.0000   1.0000   1.0000   1.0000   1.0000   1.0000   1.0000
     1.0000   1.0000   1.0000   1.0000   1.0000   1.0000   1.0000   1.0000
     1.0000   1.0000   1.0000   1.0000   1.0000   1.0000   1.0000   1.0000
     1.0000   1.0000   1.0000   1.0000   1.0000   1.0000   1.0000   1.0000
     1.0000   1.0000   1.0000   1.0000   1.0000   1.0000   1.0000   1.0000
     0.0000   0.0000   0.0000   0.0000   0.0000   0.0000   0.0000   0.0000
     0.0000   0.0000

          k = 0.1250 1.2223 0.8965 (  8509 PWs)   bands (ev):

   -13.2695 -13.2688 -13.2632 -13.2628 -13.2401 -13.2392 -13.2347 -13.2344
   -13.2285 -13.2276 -13.2228 -13.2207 -13.2103 -13.2090 -13.1995 -13.1993
   -13.1818 -13.1806 -13.1749 -13.1748  -4.5743  -4.4942  -4.4366  -4.4084
     0.8762   1.1185   1.3510   1.4045   3.2421   3.6093   3.7683   4.0611
     4.5401   4.7532   5.1869   5.6492   5.7027   5.9620   6.8663   6.9326
     9.8676  10.4743  11.3873  11.5178  12.2215  12.3811  12.5925  12.7669
    13.0233  13.4919

     occupation numbers 
     1.0000   1.0000   1.0000   1.0000   1.0000   1.0000   1.0000   1.0000
     1.0000   1.0000   1.0000   1.0000   1.0000   1.0000   1.0000   1.0000
     1.0000   1.0000   1.0000   1.0000   1.0000   1.0000   1.0000   1.0000
     1.0000   1.0000   1.0000   1.0000   1.0000   1.0000   1.0000   1.0000
     1.0000   1.0000   1.0000   1.0000   1.0000   1.0000   1.0000   1.0000
     0.0000   0.0000   0.0000   0.0000   0.0000   0.0000   0.0000   0.0000
     0.0000   0.0000

          k = 0.1250 1.2223 1.1526 (  8508 PWs)   bands (ev):

   -13.2714 -13.2712 -13.2647 -13.2646 -13.2397 -13.2393 -13.2339 -13.2338
   -13.2278 -13.2275 -13.2215 -13.2208 -13.2094 -13.2090 -13.1987 -13.1986
   -13.1815 -13.1811 -13.1746 -13.1746  -4.4845  -4.4415  -4.4159  -4.3911
     1.1081   1.2173   1.4663   1.5174   3.0605   3.2104   3.5989   3.6993
     4.4207   4.4256   4.9113   5.1642   5.7965   5.9386   6.7053   6.7494
    10.3984  10.8135  11.1412  11.4408  12.7108  12.7826  12.8541  13.0040
    13.6304  13.8233

     occupation numbers 
     1.0000   1.0000   1.0000   1.0000   1.0000   1.0000   1.0000   1.0000
     1.0000   1.0000   1.0000   1.0000   1.0000   1.0000   1.0000   1.0000
     1.0000   1.0000   1.0000   1.0000   1.0000   1.0000   1.0000   1.0000
     1.0000   1.0000   1.0000   1.0000   1.0000   1.0000   1.0000   1.0000
     1.0000   1.0000   1.0000   1.0000   1.0000   1.0000   1.0000   1.0000
     0.0000   0.0000   0.0000   0.0000   0.0000   0.0000   0.0000   0.0000
     0.0000   0.0000

          k = 0.3750 0.1358 0.1281 (  8488 PWs)   bands (ev):

   -13.2623 -13.2578 -13.2515 -13.2502 -13.2490 -13.2478 -13.2410 -13.2394
   -13.2330 -13.2318 -13.2312 -13.2288 -13.2157 -13.2132 -13.1953 -13.1936
   -13.1863 -13.1852 -13.1725 -13.1691  -5.6440  -5.5192  -4.4693  -4.2902
     0.9459   1.2897   2.8527   2.9265   3.7206   4.3476   4.7536   4.9214
     5.1178   5.4421   6.0343   6.0691   6.2942   6.4115   7.4783   7.5585
    10.2771  10.7252  10.8433  11.1372  11.4364  11.5292  11.8703  12.2225
    12.9357  13.2022

     occupation numbers 
     1.0000   1.0000   1.0000   1.0000   1.0000   1.0000   1.0000   1.0000
     1.0000   1.0000   1.0000   1.0000   1.0000   1.0000   1.0000   1.0000
     1.0000   1.0000   1.0000   1.0000   1.0000   1.0000   1.0000   1.0000
     1.0000   1.0000   1.0000   1.0000   1.0000   1.0000   1.0000   1.0000
     1.0000   1.0000   1.0000   1.0000   1.0000   1.0000   1.0000   1.0000
     0.0000   0.0000   0.0000   0.0000   0.0000   0.0000   0.0000   0.0000
     0.0000   0.0000

          k = 0.3750 0.1358 0.3842 (  8495 PWs)   bands (ev):

   -13.2615 -13.2573 -13.2507 -13.2500 -13.2494 -13.2487 -13.2420 -13.2405
   -13.2321 -13.2300 -13.2296 -13.2284 -13.2156 -13.2135 -13.1952 -13.1934
   -13.1869 -13.1857 -13.1723 -13.1692  -5.5612  -5.4394  -4.4686  -4.3022
     0.7105   1.0788   2.4225   2.6018   3.8493   4.5032   4.8322   4.9780
     5.4027   5.6422   6.0536   6.2000   6.6214   6.8042   7.3724   7.5320
    10.1493  10.3937  10.8303  10.9161  11.0768  11.3538  11.5752  12.0939
    12.6499  12.9247

     occupation numbers 
     1.0000   1.0000   1.0000   1.0000   1.0000   1.0000   1.0000   1.0000
     1.0000   1.0000   1.0000   1.0000   1.0000   1.0000   1.0000   1.0000
     1.0000   1.0000   1.0000   1.0000   1.0000   1.0000   1.0000   1.0000
     1.0000   1.0000   1.0000   1.0000   1.0000   1.0000   1.0000   1.0000
     1.0000   1.0000   1.0000   1.0000   1.0000   1.0000   1.0000   1.0000
     0.0000   0.0000   0.0000   0.0000   0.0000   0.0000   0.0000   0.0000
     0.0000   0.0000

          k = 0.3750 0.1358 0.6403 (  8507 PWs)   bands (ev):

   -13.2600 -13.2564 -13.2515 -13.2506 -13.2493 -13.2484 -13.2435 -13.2422
   -13.2310 -13.2286 -13.2267 -13.2261 -13.2156 -13.2141 -13.1950 -13.1930
   -13.1878 -13.1866 -13.1720 -13.1696  -5.4056  -5.2900  -4.4863  -4.3419
     0.3978   0.7616   1.8926   2.1368   4.0536   4.7124   5.0147   5.2246
     5.6620   5.9262   6.2400   6.3402   6.9271   7.1059   7.3834   7.5937
     9.7513   9.9254  10.3868  10.4629  10.8869  11.0597  11.2448  11.8348
    12.1892  12.4321

     occupation numbers 
     1.0000   1.0000   1.0000   1.0000   1.0000   1.0000   1.0000   1.0000
     1.0000   1.0000   1.0000   1.0000   1.0000   1.0000   1.0000   1.0000
     1.0000   1.0000   1.0000   1.0000   1.0000   1.0000   1.0000   1.0000
     1.0000   1.0000   1.0000   1.0000   1.0000   1.0000   1.0000   1.0000
     1.0000   1.0000   1.0000   1.0000   1.0000   1.0000   1.0000   1.0000
     0.0000   0.0000   0.0000   0.0000   0.0000   0.0000   0.0000   0.0000
     0.0000   0.0000

          k = 0.3750 0.1358 0.8965 (  8520 PWs)   bands (ev):

   -13.2581 -13.2556 -13.2530 -13.2522 -13.2485 -13.2478 -13.2448 -13.2439
   -13.2300 -13.2285 -13.2230 -13.2225 -13.2161 -13.2151 -13.1945 -13.1927
   -13.1887 -13.1876 -13.1716 -13.1701  -5.2005  -5.0959  -4.5483  -4.4306
     0.1688   0.4568   1.4657   1.6851   4.3584   4.9952   5.3129   5.5393
     5.6520   6.0489   6.2970   6.4797   7.0942   7.2109   7.6467   7.8170
     9.3804   9.5543   9.8036  10.0994  10.4813  10.7149  10.8990  11.3234
    11.9165  12.0148

     occupation numbers 
     1.0000   1.0000   1.0000   1.0000   1.0000   1.0000   1.0000   1.0000
     1.0000   1.0000   1.0000   1.0000   1.0000   1.0000   1.0000   1.0000
     1.0000   1.0000   1.0000   1.0000   1.0000   1.0000   1.0000   1.0000
     1.0000   1.0000   1.0000   1.0000   1.0000   1.0000   1.0000   1.0000
     1.0000   1.0000   1.0000   1.0000   1.0000   1.0000   1.0000   1.0000
     0.0000   0.0000   0.0000   0.0000   0.0000   0.0000   0.0000   0.0000
     0.0000   0.0000

          k = 0.3750 0.1358 1.1526 (  8499 PWs)   bands (ev):

   -13.2565 -13.2554 -13.2537 -13.2533 -13.2480 -13.2477 -13.2454 -13.2451
   -13.2292 -13.2287 -13.2195 -13.2192 -13.2172 -13.2167 -13.1936 -13.1929
   -13.1889 -13.1885 -13.1711 -13.1706  -4.9923  -4.9265  -4.6364  -4.5674
     0.1110   0.2248   1.2751   1.3661   4.7458   5.1055   5.5377   5.6884
     5.8404   5.8557   6.2069   6.3532   7.4132   7.5104   7.7407   7.8205
     9.2401   9.3701   9.5333   9.7224  10.1888  10.3146  10.9861  11.0294
    11.5510  11.6776

     occupation numbers 
     1.0000   1.0000   1.0000   1.0000   1.0000   1.0000   1.0000   1.0000
     1.0000   1.0000   1.0000   1.0000   1.0000   1.0000   1.0000   1.0000
     1.0000   1.0000   1.0000   1.0000   1.0000   1.0000   1.0000   1.0000
     1.0000   1.0000   1.0000   1.0000   1.0000   1.0000   1.0000   1.0000
     1.0000   1.0000   1.0000   1.0000   1.0000   1.0000   1.0000   1.0000
     0.0000   0.0000   0.0000   0.0000   0.0000   0.0000   0.0000   0.0000
     0.0000   0.0000

          k = 0.3750 0.4074 0.1281 (  8500 PWs)   bands (ev):

   -13.2587 -13.2552 -13.2507 -13.2498 -13.2489 -13.2482 -13.2434 -13.2417
   -13.2343 -13.2314 -13.2289 -13.2286 -13.2143 -13.2131 -13.1939 -13.1935
   -13.1867 -13.1863 -13.1731 -13.1703  -5.5408  -5.4217  -4.4418  -4.2821
     0.8075   1.1302   2.4702   2.5148   3.7980   4.4008   4.7182   4.8852
     5.4201   5.6362   5.9702   6.0614   6.4998   6.6744   7.5372   7.5765
    10.1577  10.4100  10.7246  11.0144  11.2194  11.3242  11.6291  12.0841
    12.6014  12.9572

     occupation numbers 
     1.0000   1.0000   1.0000   1.0000   1.0000   1.0000   1.0000   1.0000
     1.0000   1.0000   1.0000   1.0000   1.0000   1.0000   1.0000   1.0000
     1.0000   1.0000   1.0000   1.0000   1.0000   1.0000   1.0000   1.0000
     1.0000   1.0000   1.0000   1.0000   1.0000   1.0000   1.0000   1.0000
     1.0000   1.0000   1.0000   1.0000   1.0000   1.0000   1.0000   1.0000
     0.0000   0.0000   0.0000   0.0000   0.0000   0.0000   0.0000   0.0000
     0.0000   0.0000

          k = 0.3750 0.4074 0.3842 (  8499 PWs)   bands (ev):

   -13.2584 -13.2552 -13.2517 -13.2502 -13.2484 -13.2475 -13.2442 -13.2428
   -13.2337 -13.2310 -13.2273 -13.2269 -13.2145 -13.2131 -13.1939 -13.1931
   -13.1873 -13.1870 -13.1729 -13.1703  -5.4603  -5.3443  -4.4394  -4.2907
     0.6665   1.0188   2.2125   2.3256   3.8942   4.2511   4.5332   4.8973
     5.4252   5.6899   6.1028   6.1454   6.9711   7.1007   7.4750   7.5875
     9.7404   9.8842  10.5709  10.8129  11.1219  11.3474  11.7259  11.9352
    12.4099  12.5510

     occupation numbers 
     1.0000   1.0000   1.0000   1.0000   1.0000   1.0000   1.0000   1.0000
     1.0000   1.0000   1.0000   1.0000   1.0000   1.0000   1.0000   1.0000
     1.0000   1.0000   1.0000   1.0000   1.0000   1.0000   1.0000   1.0000
     1.0000   1.0000   1.0000   1.0000   1.0000   1.0000   1.0000   1.0000
     1.0000   1.0000   1.0000   1.0000   1.0000   1.0000   1.0000   1.0000
     0.0000   0.0000   0.0000   0.0000   0.0000   0.0000   0.0000   0.0000
     0.0000   0.0000

          k = 0.3750 0.4074 0.6403 (  8513 PWs)   bands (ev):

   -13.2581 -13.2554 -13.2533 -13.2514 -13.2473 -13.2468 -13.2449 -13.2441
   -13.2328 -13.2306 -13.2244 -13.2239 -13.2147 -13.2133 -13.1937 -13.1926
   -13.1883 -13.1881 -13.1724 -13.1705  -5.3098  -5.2002  -4.4526  -4.3229
     0.4526   0.8080   1.8387   2.0282   4.0272   4.1969   4.5219   5.1132
     5.2894   5.5771   6.3880   6.5181   7.1449   7.1689   7.4394   7.5749
     9.6403   9.6516  10.1878  10.5910  10.6858  11.2415  11.5963  11.7897
    12.4201  12.5957

     occupation numbers 
     1.0000   1.0000   1.0000   1.0000   1.0000   1.0000   1.0000   1.0000
     1.0000   1.0000   1.0000   1.0000   1.0000   1.0000   1.0000   1.0000
     1.0000   1.0000   1.0000   1.0000   1.0000   1.0000   1.0000   1.0000
     1.0000   1.0000   1.0000   1.0000   1.0000   1.0000   1.0000   1.0000
     1.0000   1.0000   1.0000   1.0000   1.0000   1.0000   1.0000   1.0000
     0.0000   0.0000   0.0000   0.0000   0.0000   0.0000   0.0000   0.0000
     0.0000   0.0000

          k = 0.3750 0.4074 0.8965 (  8503 PWs)   bands (ev):

   -13.2581 -13.2564 -13.2542 -13.2527 -13.2471 -13.2463 -13.2452 -13.2445
   -13.2319 -13.2305 -13.2212 -13.2206 -13.2151 -13.2138 -13.1930 -13.1919
   -13.1896 -13.1891 -13.1719 -13.1707  -5.1130  -5.0145  -4.5063  -4.3996
     0.2803   0.5600   1.5159   1.6997   4.2123   4.3482   4.7646   5.1894
     5.3278   5.5735   6.2294   6.5430   6.9467   7.0864   7.4888   7.5865
     9.5340   9.8487  10.1306  10.2822  10.7776  10.9834  11.3240  11.5638
    12.4472  12.6054

     occupation numbers 
     1.0000   1.0000   1.0000   1.0000   1.0000   1.0000   1.0000   1.0000
     1.0000   1.0000   1.0000   1.0000   1.0000   1.0000   1.0000   1.0000
     1.0000   1.0000   1.0000   1.0000   1.0000   1.0000   1.0000   1.0000
     1.0000   1.0000   1.0000   1.0000   1.0000   1.0000   1.0000   1.0000
     1.0000   1.0000   1.0000   1.0000   1.0000   1.0000   1.0000   1.0000
     0.0000   0.0000   0.0000   0.0000   0.0000   0.0000   0.0000   0.0000
     0.0000   0.0000

          k = 0.3750 0.4074 1.1526 (  8495 PWs)   bands (ev):

   -13.2581 -13.2576 -13.2541 -13.2536 -13.2470 -13.2466 -13.2449 -13.2445
   -13.2312 -13.2307 -13.2185 -13.2180 -13.2156 -13.2148 -13.1921 -13.1911
   -13.1909 -13.1901 -13.1714 -13.1710  -4.9156  -4.8541  -4.5853  -4.5221
     0.2403   0.3492   1.3696   1.4469   4.5085   4.6081   4.9663   5.0114
     5.3341   5.6459   6.0219   6.2853   6.9162   7.0293   7.4364   7.4962
     9.6915  10.0013  10.0572  10.2773  10.6730  10.8591  11.3767  11.4728
    12.2885  12.3813

     occupation numbers 
     1.0000   1.0000   1.0000   1.0000   1.0000   1.0000   1.0000   1.0000
     1.0000   1.0000   1.0000   1.0000   1.0000   1.0000   1.0000   1.0000
     1.0000   1.0000   1.0000   1.0000   1.0000   1.0000   1.0000   1.0000
     1.0000   1.0000   1.0000   1.0000   1.0000   1.0000   1.0000   1.0000
     1.0000   1.0000   1.0000   1.0000   1.0000   1.0000   1.0000   1.0000
     0.0000   0.0000   0.0000   0.0000   0.0000   0.0000   0.0000   0.0000
     0.0000   0.0000

          k = 0.3750 0.6790 0.1281 (  8546 PWs)   bands (ev):

   -13.2561 -13.2556 -13.2515 -13.2504 -13.2460 -13.2449 -13.2443 -13.2436
   -13.2350 -13.2329 -13.2269 -13.2254 -13.2132 -13.2124 -13.1953 -13.1941
   -13.1874 -13.1850 -13.1739 -13.1721  -5.3456  -5.2392  -4.4139  -4.2935
     0.5924   0.8844   1.8378   1.9728   3.9946   4.5359   4.8829   5.0020
     5.6705   5.8770   6.0529   6.1268   6.6205   6.8291   7.5342   7.6725
     9.4024   9.7889  10.5463  10.6335  10.9231  11.1849  11.3171  11.9875
    12.0737  12.3617

     occupation numbers 
     1.0000   1.0000   1.0000   1.0000   1.0000   1.0000   1.0000   1.0000
     1.0000   1.0000   1.0000   1.0000   1.0000   1.0000   1.0000   1.0000
     1.0000   1.0000   1.0000   1.0000   1.0000   1.0000   1.0000   1.0000
     1.0000   1.0000   1.0000   1.0000   1.0000   1.0000   1.0000   1.0000
     1.0000   1.0000   1.0000   1.0000   1.0000   1.0000   1.0000   1.0000
     0.0000   0.0000   0.0000   0.0000   0.0000   0.0000   0.0000   0.0000
     0.0000   0.0000

          k = 0.3750 0.6790 0.3842 (  8531 PWs)   bands (ev):

   -13.2578 -13.2565 -13.2527 -13.2513 -13.2459 -13.2448 -13.2436 -13.2428
   -13.2344 -13.2326 -13.2254 -13.2239 -13.2135 -13.2121 -13.1952 -13.1941
   -13.1876 -13.1854 -13.1736 -13.1720  -5.2705  -5.1674  -4.4069  -4.2940
     0.5782   0.8965   1.7899   1.8825   3.9637   4.0968   4.5102   4.9602
     5.3425   5.6196   6.2899   6.3942   6.9350   6.9700   7.4754   7.5418
     9.5315   9.5959  10.2181  10.5159  10.8614  11.3021  11.5867  11.7643
    12.2518  12.5929

     occupation numbers 
     1.0000   1.0000   1.0000   1.0000   1.0000   1.0000   1.0000   1.0000
     1.0000   1.0000   1.0000   1.0000   1.0000   1.0000   1.0000   1.0000
     1.0000   1.0000   1.0000   1.0000   1.0000   1.0000   1.0000   1.0000
     1.0000   1.0000   1.0000   1.0000   1.0000   1.0000   1.0000   1.0000
     1.0000   1.0000   1.0000   1.0000   1.0000   1.0000   1.0000   1.0000
     0.0000   0.0000   0.0000   0.0000   0.0000   0.0000   0.0000   0.0000
     0.0000   0.0000

          k = 0.3750 0.6790 0.6403 (  8515 PWs)   bands (ev):

   -13.2600 -13.2585 -13.2546 -13.2533 -13.2453 -13.2442 -13.2423 -13.2420
   -13.2336 -13.2323 -13.2229 -13.2216 -13.2135 -13.2119 -13.1950 -13.1941
   -13.1879 -13.1861 -13.1732 -13.1718  -5.1315  -5.0351  -4.4093  -4.3093
     0.5354   0.8659   1.6692   1.7722   3.7434   3.8377   4.4860   4.8290
     4.9534   5.4588   6.3465   6.4879   6.6039   6.6676   7.4767   7.5980
     9.6592   9.9806  10.1862  10.4856  10.9032  11.2563  11.6339  12.0653
    12.5194  12.8371

     occupation numbers 
     1.0000   1.0000   1.0000   1.0000   1.0000   1.0000   1.0000   1.0000
     1.0000   1.0000   1.0000   1.0000   1.0000   1.0000   1.0000   1.0000
     1.0000   1.0000   1.0000   1.0000   1.0000   1.0000   1.0000   1.0000
     1.0000   1.0000   1.0000   1.0000   1.0000   1.0000   1.0000   1.0000
     1.0000   1.0000   1.0000   1.0000   1.0000   1.0000   1.0000   1.0000
     0.0000   0.0000   0.0000   0.0000   0.0000   0.0000   0.0000   0.0000
     0.0000   0.0000

          k = 0.3750 0.6790 0.8965 (  8498 PWs)   bands (ev):

   -13.2620 -13.2608 -13.2565 -13.2556 -13.2445 -13.2435 -13.2414 -13.2413
   -13.2327 -13.2320 -13.2204 -13.2193 -13.2131 -13.2118 -13.1948 -13.1941
   -13.1881 -13.1869 -13.1726 -13.1718  -4.9532  -4.8678  -4.4442  -4.3599
     0.4828   0.7413   1.5543   1.6637   3.6700   3.7854   4.5404   4.6560
     4.8343   5.4196   5.9455   6.1313   6.3673   6.5195   7.2335   7.4333
     9.8789  10.2819  10.6646  10.8517  11.1501  11.3129  11.8039  12.1607
    12.6269  12.8891

     occupation numbers 
     1.0000   1.0000   1.0000   1.0000   1.0000   1.0000   1.0000   1.0000
     1.0000   1.0000   1.0000   1.0000   1.0000   1.0000   1.0000   1.0000
     1.0000   1.0000   1.0000   1.0000   1.0000   1.0000   1.0000   1.0000
     1.0000   1.0000   1.0000   1.0000   1.0000   1.0000   1.0000   1.0000
     1.0000   1.0000   1.0000   1.0000   1.0000   1.0000   1.0000   1.0000
     0.0000   0.0000   0.0000   0.0000   0.0000   0.0000   0.0000   0.0000
     0.0000   0.0000

          k = 0.3750 0.6790 1.1526 (  8497 PWs)   bands (ev):

   -13.2630 -13.2625 -13.2575 -13.2572 -13.2437 -13.2433 -13.2410 -13.2409
   -13.2322 -13.2320 -13.2186 -13.2181 -13.2125 -13.2120 -13.1945 -13.1942
   -13.1879 -13.1875 -13.1721 -13.1719  -4.7791  -4.7268  -4.5034  -4.4522
     0.4848   0.5820   1.5143   1.5606   3.8554   3.9567   4.2593   4.3406
     5.0933   5.3772   5.7115   5.8997   6.2863   6.3841   6.9913   7.1176
    10.1817  10.4638  10.9195  11.1350  11.4094  11.5383  11.8957  12.0946
    12.8054  12.9670

     occupation numbers 
     1.0000   1.0000   1.0000   1.0000   1.0000   1.0000   1.0000   1.0000
     1.0000   1.0000   1.0000   1.0000   1.0000   1.0000   1.0000   1.0000
     1.0000   1.0000   1.0000   1.0000   1.0000   1.0000   1.0000   1.0000
     1.0000   1.0000   1.0000   1.0000   1.0000   1.0000   1.0000   1.0000
     1.0000   1.0000   1.0000   1.0000   1.0000   1.0000   1.0000   1.0000
     0.0000   0.0000   0.0000   0.0000   0.0000   0.0000   0.0000   0.0000
     0.0000   0.0000

          k = 0.3750 0.9507 0.1281 (  8549 PWs)   bands (ev):

   -13.2582 -13.2572 -13.2544 -13.2532 -13.2427 -13.2421 -13.2414 -13.2395
   -13.2335 -13.2328 -13.2256 -13.2231 -13.2127 -13.2103 -13.1992 -13.1988
   -13.1844 -13.1821 -13.1748 -13.1742  -5.0835  -4.9996  -4.4337  -4.3691
     0.4294   0.7016   1.2105   1.4191   4.3244   4.8136   5.1812   5.2372
     5.7322   6.0882   6.1045   6.2224   6.7019   6.7733   7.4475   7.5902
     9.1164   9.3482  10.0281  10.1670  10.5538  10.6618  11.0223  11.3342
    11.6440  12.1931

     occupation numbers 
     1.0000   1.0000   1.0000   1.0000   1.0000   1.0000   1.0000   1.0000
     1.0000   1.0000   1.0000   1.0000   1.0000   1.0000   1.0000   1.0000
     1.0000   1.0000   1.0000   1.0000   1.0000   1.0000   1.0000   1.0000
     1.0000   1.0000   1.0000   1.0000   1.0000   1.0000   1.0000   1.0000
     1.0000   1.0000   1.0000   1.0000   1.0000   1.0000   1.0000   1.0000
     0.0000   0.0000   0.0000   0.0000   0.0000   0.0000   0.0000   0.0000
     0.0000   0.0000

          k = 0.3750 0.9507 0.3842 (  8535 PWs)   bands (ev):

   -13.2602 -13.2588 -13.2563 -13.2550 -13.2422 -13.2412 -13.2406 -13.2391
   -13.2327 -13.2323 -13.2246 -13.2223 -13.2124 -13.2101 -13.1991 -13.1986
   -13.1844 -13.1824 -13.1746 -13.1740  -5.0179  -4.9373  -4.4172  -4.3557
     0.5046   0.7855   1.2632   1.4284   4.1390   4.2052   4.7444   5.0871
     5.4079   5.5968   6.1570   6.4161   6.6312   6.7169   7.2705   7.4057
     9.5582   9.7330   9.8545  10.0667  10.9369  11.1634  11.3409  11.6424
    11.9837  12.3661

     occupation numbers 
     1.0000   1.0000   1.0000   1.0000   1.0000   1.0000   1.0000   1.0000
     1.0000   1.0000   1.0000   1.0000   1.0000   1.0000   1.0000   1.0000
     1.0000   1.0000   1.0000   1.0000   1.0000   1.0000   1.0000   1.0000
     1.0000   1.0000   1.0000   1.0000   1.0000   1.0000   1.0000   1.0000
     1.0000   1.0000   1.0000   1.0000   1.0000   1.0000   1.0000   1.0000
     0.0000   0.0000   0.0000   0.0000   0.0000   0.0000   0.0000   0.0000
     0.0000   0.0000

          k = 0.3750 0.9507 0.6403 (  8527 PWs)   bands (ev):

   -13.2632 -13.2617 -13.2591 -13.2578 -13.2415 -13.2399 -13.2395 -13.2384
   -13.2316 -13.2315 -13.2229 -13.2211 -13.2115 -13.2098 -13.1988 -13.1982
   -13.1844 -13.1827 -13.1743 -13.1737  -4.8990  -4.8251  -4.3990  -4.3424
     0.6241   0.9056   1.3553   1.4460   3.6344   3.7817   4.6267   4.6661
     4.8712   5.2942   5.7807   6.0638   6.2702   6.5559   7.0881   7.3904
     9.7641  10.1392  10.5463  10.8012  11.0626  11.2841  12.0469  12.1363
    12.2321  12.5331

     occupation numbers 
     1.0000   1.0000   1.0000   1.0000   1.0000   1.0000   1.0000   1.0000
     1.0000   1.0000   1.0000   1.0000   1.0000   1.0000   1.0000   1.0000
     1.0000   1.0000   1.0000   1.0000   1.0000   1.0000   1.0000   1.0000
     1.0000   1.0000   1.0000   1.0000   1.0000   1.0000   1.0000   1.0000
     1.0000   1.0000   1.0000   1.0000   1.0000   1.0000   1.0000   1.0000
     0.0000   0.0000   0.0000   0.0000   0.0000   0.0000   0.0000   0.0000
     0.0000   0.0000

          k = 0.3750 0.9507 0.8965 (  8498 PWs)   bands (ev):

   -13.2659 -13.2648 -13.2616 -13.2607 -13.2408 -13.2394 -13.2385 -13.2377
   -13.2308 -13.2306 -13.2214 -13.2201 -13.2103 -13.2092 -13.1983 -13.1979
   -13.1842 -13.1831 -13.1738 -13.1735  -4.7520  -4.6887  -4.4016  -4.3511
     0.7330   0.9480   1.4789   1.5097   3.3535   3.5255   4.1783   4.3957
     4.6028   4.9228   5.2673   5.7223   6.1169   6.4831   6.8253   7.1060
    10.1101  10.7165  11.0418  11.1317  11.2559  11.5750  12.6249  12.6746
    12.7846  12.8868

     occupation numbers 
     1.0000   1.0000   1.0000   1.0000   1.0000   1.0000   1.0000   1.0000
     1.0000   1.0000   1.0000   1.0000   1.0000   1.0000   1.0000   1.0000
     1.0000   1.0000   1.0000   1.0000   1.0000   1.0000   1.0000   1.0000
     1.0000   1.0000   1.0000   1.0000   1.0000   1.0000   1.0000   1.0000
     1.0000   1.0000   1.0000   1.0000   1.0000   1.0000   1.0000   1.0000
     0.0000   0.0000   0.0000   0.0000   0.0000   0.0000   0.0000   0.0000
     0.0000   0.0000

          k = 0.3750 0.9507 1.1526 (  8486 PWs)   bands (ev):

   -13.2673 -13.2669 -13.2629 -13.2626 -13.2402 -13.2397 -13.2377 -13.2374
   -13.2302 -13.2301 -13.2202 -13.2198 -13.2092 -13.2089 -13.1979 -13.1978
   -13.1839 -13.1835 -13.1735 -13.1734  -4.6167  -4.5793  -4.4284  -4.3959
     0.8091   0.8856   1.5891   1.5934   3.3698   3.5559   3.7065   3.9206
     4.5982   4.8763   4.9909   5.3232   6.1617   6.3729   6.7466   6.8774
    10.3011  10.4934  11.2478  11.3801  11.9462  12.1262  12.5399  12.6285
    13.4799  13.5556

     occupation numbers 
     1.0000   1.0000   1.0000   1.0000   1.0000   1.0000   1.0000   1.0000
     1.0000   1.0000   1.0000   1.0000   1.0000   1.0000   1.0000   1.0000
     1.0000   1.0000   1.0000   1.0000   1.0000   1.0000   1.0000   1.0000
     1.0000   1.0000   1.0000   1.0000   1.0000   1.0000   1.0000   1.0000
     1.0000   1.0000   1.0000   1.0000   1.0000   1.0000   1.0000   1.0000
     0.0000   0.0000   0.0000   0.0000   0.0000   0.0000   0.0000   0.0000
     0.0000   0.0000

          k = 0.3750 1.2223 0.1281 (  8543 PWs)   bands (ev):

   -13.2591 -13.2579 -13.2576 -13.2563 -13.2403 -13.2401 -13.2397 -13.2387
   -13.2294 -13.2287 -13.2264 -13.2243 -13.2098 -13.2074 -13.2046 -13.2035
   -13.1805 -13.1790 -13.1769 -13.1764  -4.7964  -4.7485  -4.5447  -4.5411
     0.4520   0.7125   0.7247   0.9698   4.7509   5.1051   5.3067   5.4981
     5.7734   5.8810   6.0726   6.1791   6.8875   6.9528   7.2393   7.2581
     9.2957   9.3763   9.5933   9.7958  10.2013  10.3985  10.5669  10.8768
    11.4972  11.8362

     occupation numbers 
     1.0000   1.0000   1.0000   1.0000   1.0000   1.0000   1.0000   1.0000
     1.0000   1.0000   1.0000   1.0000   1.0000   1.0000   1.0000   1.0000
     1.0000   1.0000   1.0000   1.0000   1.0000   1.0000   1.0000   1.0000
     1.0000   1.0000   1.0000   1.0000   1.0000   1.0000   1.0000   1.0000
     1.0000   1.0000   1.0000   1.0000   1.0000   1.0000   1.0000   1.0000
     0.0000   0.0000   0.0000   0.0000   0.0000   0.0000   0.0000   0.0000
     0.0000   0.0000

          k = 0.3750 1.2223 0.3842 (  8545 PWs)   bands (ev):

   -13.2613 -13.2601 -13.2594 -13.2582 -13.2399 -13.2394 -13.2388 -13.2381
   -13.2289 -13.2282 -13.2257 -13.2239 -13.2092 -13.2075 -13.2038 -13.2030
   -13.1805 -13.1792 -13.1766 -13.1763  -4.7454  -4.7003  -4.5135  -4.5087
     0.5600   0.7984   0.8353   1.0417   4.4999   4.5255   4.8915   5.0142
     5.3133   5.7056   5.8085   6.1260   6.5988   6.8890   6.9343   7.2063
     9.5491   9.6887   9.7639  10.0611  10.9508  11.1340  11.3063  11.5673
    11.8170  12.2842

     occupation numbers 
     1.0000   1.0000   1.0000   1.0000   1.0000   1.0000   1.0000   1.0000
     1.0000   1.0000   1.0000   1.0000   1.0000   1.0000   1.0000   1.0000
     1.0000   1.0000   1.0000   1.0000   1.0000   1.0000   1.0000   1.0000
     1.0000   1.0000   1.0000   1.0000   1.0000   1.0000   1.0000   1.0000
     1.0000   1.0000   1.0000   1.0000   1.0000   1.0000   1.0000   1.0000
     0.0000   0.0000   0.0000   0.0000   0.0000   0.0000   0.0000   0.0000
     0.0000   0.0000

          k = 0.3750 1.2223 0.6403 (  8540 PWs)   bands (ev):

   -13.2646 -13.2637 -13.2622 -13.2613 -13.2393 -13.2386 -13.2376 -13.2371
   -13.2282 -13.2274 -13.2247 -13.2232 -13.2083 -13.2071 -13.2028 -13.2022
   -13.1804 -13.1794 -13.1763 -13.1760  -4.6568  -4.6172  -4.4647  -4.4579
     0.7561   0.9561   1.0305   1.1673   3.8547   4.0285   4.3323   4.4876
     4.9197   5.3005   5.3819   5.7539   6.2263   6.5774   6.6954   7.0318
    10.0030  10.3171  10.6135  10.9459  11.3542  11.4344  11.7684  11.9135
    12.5905  12.7388

     occupation numbers 
     1.0000   1.0000   1.0000   1.0000   1.0000   1.0000   1.0000   1.0000
     1.0000   1.0000   1.0000   1.0000   1.0000   1.0000   1.0000   1.0000
     1.0000   1.0000   1.0000   1.0000   1.0000   1.0000   1.0000   1.0000
     1.0000   1.0000   1.0000   1.0000   1.0000   1.0000   1.0000   1.0000
     1.0000   1.0000   1.0000   1.0000   1.0000   1.0000   1.0000   1.0000
     0.0000   0.0000   0.0000   0.0000   0.0000   0.0000   0.0000   0.0000
     0.0000   0.0000

          k = 0.3750 1.2223 0.8965 (  8516 PWs)   bands (ev):

   -13.2678 -13.2672 -13.2650 -13.2644 -13.2389 -13.2382 -13.2366 -13.2363
   -13.2272 -13.2266 -13.2236 -13.2226 -13.2071 -13.2065 -13.2017 -13.2013
   -13.1802 -13.1796 -13.1759 -13.1758  -4.5554  -4.5243  -4.4219  -4.4122
     0.9842   1.1227   1.2619   1.3256   3.4082   3.6445   3.8002   4.0785
     4.4446   4.7914   4.8218   5.2368   6.1696   6.4600   6.6652   6.8621
    10.3370  10.5929  10.9671  11.1727  11.8220  11.9729  12.3658  12.4385
    13.4663  13.6711

     occupation numbers 
     1.0000   1.0000   1.0000   1.0000   1.0000   1.0000   1.0000   1.0000
     1.0000   1.0000   1.0000   1.0000   1.0000   1.0000   1.0000   1.0000
     1.0000   1.0000   1.0000   1.0000   1.0000   1.0000   1.0000   1.0000
     1.0000   1.0000   1.0000   1.0000   1.0000   1.0000   1.0000   1.0000
     1.0000   1.0000   1.0000   1.0000   1.0000   1.0000   1.0000   1.0000
     0.0000   0.0000   0.0000   0.0000   0.0000   0.0000   0.0000   0.0000
     0.0000   0.0000

          k = 0.3750 1.2223 1.1526 (  8488 PWs)   bands (ev):

   -13.2696 -13.2694 -13.2666 -13.2664 -13.2385 -13.2382 -13.2361 -13.2359
   -13.2265 -13.2263 -13.2227 -13.2224 -13.2063 -13.2061 -13.2009 -13.2008
   -13.1799 -13.1797 -13.1756 -13.1756  -4.4746  -4.4582  -4.4045  -4.3957
     1.1498   1.1978   1.4451   1.4682   3.2580   3.4198   3.5397   3.7189
     4.2281   4.3646   4.5586   4.7613   6.2894   6.4160   6.6963   6.7527
    10.4488  10.5947  10.8298  10.9825  12.5840  12.6048  12.8130  12.8458
    14.2294  14.3257

     occupation numbers 
     1.0000   1.0000   1.0000   1.0000   1.0000   1.0000   1.0000   1.0000
     1.0000   1.0000   1.0000   1.0000   1.0000   1.0000   1.0000   1.0000
     1.0000   1.0000   1.0000   1.0000   1.0000   1.0000   1.0000   1.0000
     1.0000   1.0000   1.0000   1.0000   1.0000   1.0000   1.0000   1.0000
     1.0000   1.0000   1.0000   1.0000   1.0000   1.0000   1.0000   1.0000
     0.0000   0.0000   0.0000   0.0000   0.0000   0.0000   0.0000   0.0000
     0.0000   0.0000

     highest occupied, lowest unoccupied level (ev):     7.9889    8.8268

!    total energy              =    -827.62125777 Ry
     estimated scf accuracy    <          1.0E-09 Ry

     The total energy is the sum of the following terms:
     one-electron contribution =    -257.00340783 Ry
     hartree contribution      =     179.10532257 Ry
     xc contribution           =    -309.11835631 Ry
     ewald contribution        =    -440.60481620 Ry

     convergence has been achieved in   9 iterations

     Forces acting on atoms (cartesian axes, Ry/au):

     atom    1 type  2   force =     0.00877710   -0.00000000   -0.00119901
     atom    2 type  1   force =    -0.00824300    0.00000000   -0.00147787
     atom    3 type  2   force =    -0.00877710    0.00000000   -0.00119901
     atom    4 type  1   force =     0.00824300    0.00000000   -0.00147787
     atom    5 type  2   force =     0.00877710    0.00000000    0.00119901
     atom    6 type  1   force =    -0.00824300   -0.00000000    0.00147787
     atom    7 type  2   force =    -0.00877710    0.00000000    0.00119901
     atom    8 type  1   force =     0.00824300    0.00000000    0.00147787
     The non-local contrib.  to forces
     atom    1 type  2   force =    -0.11402548    0.00000000    0.09813945
     atom    2 type  1   force =     0.36248764    0.00000000    0.27064364
     atom    3 type  2   force =     0.11402548    0.00000000    0.09813945
     atom    4 type  1   force =    -0.36248764    0.00000000    0.27064364
     atom    5 type  2   force =    -0.11402548   -0.00000000   -0.09813945
     atom    6 type  1   force =     0.36248764    0.00000000   -0.27064364
     atom    7 type  2   force =     0.11402548    0.00000000   -0.09813945
     atom    8 type  1   force =    -0.36248764    0.00000000   -0.27064364
     The ionic contribution  to forces
     atom    1 type  2   force =     1.53473235    0.00000000   -1.05154455
     atom    2 type  1   force =    -1.03769718    0.00000000   -0.57506129
     atom    3 type  2   force =    -1.53473235    0.00000000   -1.05154455
     atom    4 type  1   force =     1.03769718   -0.00000000   -0.57506129
     atom    5 type  2   force =     1.53473235    0.00000000    1.05154455
     atom    6 type  1   force =    -1.03769718   -0.00000000    0.57506129
     atom    7 type  2   force =    -1.53473235   -0.00000000    1.05154455
     atom    8 type  1   force =     1.03769718    0.00000000    0.57506129
     The local contribution  to forces
     atom    1 type  2   force =    -1.42443390   -0.00000000    0.96305996
     atom    2 type  1   force =     0.67245195   -0.00000000    0.30741989
     atom    3 type  2   force =     1.42443390   -0.00000000    0.96305996
     atom    4 type  1   force =    -0.67245195    0.00000000    0.30741989
     atom    5 type  2   force =    -1.42443390    0.00000000   -0.96305996
     atom    6 type  1   force =     0.67245195    0.00000000   -0.30741989
     atom    7 type  2   force =     1.42443390    0.00000000   -0.96305996
     atom    8 type  1   force =    -0.67245195    0.00000000   -0.30741989
     The core correction contribution to forces
     atom    1 type  2   force =     0.01247722   -0.00000000   -0.01085381
     atom    2 type  1   force =    -0.00543664   -0.00000000   -0.00450841
     atom    3 type  2   force =    -0.01247722    0.00000000   -0.01085381
     atom    4 type  1   force =     0.00543664    0.00000000   -0.00450841
     atom    5 type  2   force =     0.01247722   -0.00000000    0.01085381
     atom    6 type  1   force =    -0.00543664   -0.00000000    0.00450841
     atom    7 type  2   force =    -0.01247722   -0.00000000    0.01085381
     atom    8 type  1   force =     0.00543664    0.00000000    0.00450841
     The Hubbard contrib.    to forces
     atom    1 type  2   force =     0.00000000    0.00000000    0.00000000
     atom    2 type  1   force =     0.00000000    0.00000000    0.00000000
     atom    3 type  2   force =     0.00000000    0.00000000    0.00000000
     atom    4 type  1   force =     0.00000000    0.00000000    0.00000000
     atom    5 type  2   force =     0.00000000    0.00000000    0.00000000
     atom    6 type  1   force =     0.00000000    0.00000000    0.00000000
     atom    7 type  2   force =     0.00000000    0.00000000    0.00000000
     atom    8 type  1   force =     0.00000000    0.00000000    0.00000000
     The SCF correction term to forces
     atom    1 type  2   force =     0.00002690   -0.00000000   -0.00000006
     atom    2 type  1   force =    -0.00004877    0.00000000    0.00002830
     atom    3 type  2   force =    -0.00002690   -0.00000000   -0.00000006
     atom    4 type  1   force =     0.00004877    0.00000000    0.00002830
     atom    5 type  2   force =     0.00002690    0.00000000    0.00000006
     atom    6 type  1   force =    -0.00004877   -0.00000000   -0.00002830
     atom    7 type  2   force =    -0.00002690    0.00000000    0.00000006
     atom    8 type  1   force =     0.00004877   -0.00000000   -0.00002830

     Total force =     0.024381     Total SCF correction =     0.000125

     Writing output data file ./tmp/SnSe_pnma.save/

     init_run     :     11.56s CPU     12.92s WALL (       1 calls)
     electrons    :    288.63s CPU    313.23s WALL (       1 calls)
     forces       :      8.72s CPU      8.97s WALL (       1 calls)

     Called by init_run:
     wfcinit      :      7.18s CPU      8.17s WALL (       1 calls)
     wfcinit:atom :      0.09s CPU      0.07s WALL (       9 calls)
     wfcinit:wfcr :      6.46s CPU      7.61s WALL (       9 calls)
     potinit      :      1.30s CPU      1.41s WALL (       1 calls)
     hinit0       :      2.21s CPU      2.24s WALL (       1 calls)

     Called by electrons:
     c_bands      :    239.07s CPU    256.67s WALL (       9 calls)
     sum_band     :     31.48s CPU     34.09s WALL (       9 calls)
     v_of_rho     :      4.63s CPU      5.25s WALL (      10 calls)
     v_h          :      0.35s CPU      0.35s WALL (      10 calls)
     v_xc         :      4.67s CPU      5.34s WALL (      11 calls)
     newd         :     13.22s CPU     17.33s WALL (      10 calls)
     mix_rho      :      0.85s CPU      0.82s WALL (       9 calls)

     Called by c_bands:
     init_us_2    :      2.37s CPU      2.03s WALL (     180 calls)
     cegterg      :    163.73s CPU    183.18s WALL (      81 calls)

     Called by sum_band:
     sum_band:wei :      0.01s CPU      0.02s WALL (       9 calls)
     sum_band:loo :     23.14s CPU     25.11s WALL (       9 calls)
     sum_band:buf :      0.22s CPU      0.16s WALL (      81 calls)
     sum_band:ini :      1.05s CPU      0.86s WALL (      81 calls)
     sum_band:cal :      5.27s CPU      9.14s WALL (      81 calls)
     sum_band:bec :      0.01s CPU      0.01s WALL (      81 calls)
     addusdens    :      5.73s CPU      6.55s WALL (       9 calls)
     addusd:skk   :      0.02s CPU      0.03s WALL (      18 calls)
     addusd:dgemm :      1.97s CPU      2.41s WALL (      18 calls)
     addusd:qvan2 :      3.17s CPU      2.93s WALL (      18 calls)

     Called by *egterg:
     cdiaghg      :     11.25s CPU     19.34s WALL (     376 calls)
     cegterg:over :     20.55s CPU     33.20s WALL (     295 calls)
     cegterg:upda :      5.64s CPU      2.96s WALL (     295 calls)
     cegterg:last :     10.13s CPU      3.62s WALL (     176 calls)
     h_psi        :     98.03s CPU    100.78s WALL (     385 calls)
     s_psi        :     10.78s CPU      3.64s WALL (     385 calls)
     g_psi        :      0.86s CPU      0.70s WALL (     295 calls)

     Called by h_psi:
     h_psi:calbec :     18.66s CPU     31.48s WALL (     385 calls)
     vloc_psi     :     68.04s CPU     64.82s WALL (     385 calls)
     add_vuspsi   :     10.73s CPU      3.75s WALL (     385 calls)

     General routines
     calbec       :     25.62s CPU     42.26s WALL (     502 calls)
     fft          :      2.86s CPU      2.85s WALL (     139 calls)
     ffts         :      0.09s CPU      0.08s WALL (      19 calls)
     fftw         :     68.08s CPU     64.03s WALL (   26530 calls)
     interpolate  :      0.29s CPU      0.29s WALL (      10 calls)

     Parallel routines

     PWSCF        :   5m 9.23s CPU   5m35.61s WALL


   This run was terminated on:  23:40: 4  17May2026            

=------------------------------------------------------------------------------=
   JOB DONE.
=------------------------------------------------------------------------------=
