
     Program PWSCF v.6.7MaX starts on 17May2026 at 23:26: 8 

     This program is part of the open-source Quantum ESPRESSO suite
     for quantum simulation of materials; please cite
         "P. Giannozzi et al., J. Phys.:Condens. Matter 21 395502 (2009);
         "P. Giannozzi et al., J. Phys.:Condens. Matter 29 465901 (2017);
          URL http://www.quantum-espresso.org", 
     in publications or presentations arising from this work. More details at
     http://www.quantum-espresso.org/quote

     Parallel version (MPI), running on     6 processors

     MPI processes distributed on     1 nodes
     R & G space division:  proc/nbgrp/npool/nimage =       6
     Waiting for input...
     Reading input from standard input

     Current dimensions of program PWSCF are:
     Max number of different atomic species (ntypx) = 10
     Max number of k-points (npk) =  40000
     Max angular momentum in pseudopotentials (lmaxx) =  3

     Subspace diagonalization in iterative solution of the eigenvalue problem:
     one sub-group per band group will be used
     scalapack distributed-memory algorithm (size of sub-group:  2*  2 procs)


     Parallelization info
     --------------------
     sticks:   dense  smooth     PW     G-vecs:    dense   smooth      PW
     Min        1127     451    131                44845    11342    1781
     Max        1128     453    132                44847    11343    1782
     Sum        6765    2711    787               269075    68055   10687



     bravais-lattice index     =            8
     lattice parameter (alat)  =      21.4862  a.u.
     unit-cell volume          =    1425.7436 (a.u.)^3
     number of atoms/cell      =            8
     number of atomic types    =            2
     number of electrons       =        80.00
     number of Kohn-Sham states=           50
     kinetic-energy cutoff     =      50.0000  Ry
     charge density cutoff     =     500.0000  Ry
     scf convergence threshold =      1.0E-08
     mixing beta               =       0.7000
     number of iterations used =            8  plain     mixing
     Exchange-correlation= SLA  PW   PBE  PBE
                           (   1   4   3   4   0   0   0)

     celldm(1)=  21.486186  celldm(2)=   0.368162  celldm(3)=   0.390413
     celldm(4)=   0.000000  celldm(5)=   0.000000  celldm(6)=   0.000000

     crystal axes: (cart. coord. in units of alat)
               a(1) = (   1.000000   0.000000   0.000000 )  
               a(2) = (   0.000000   0.368162   0.000000 )  
               a(3) = (   0.000000   0.000000   0.390413 )  

     reciprocal axes: (cart. coord. in units 2 pi/alat)
               b(1) = (  1.000000  0.000000  0.000000 )  
               b(2) = (  0.000000  2.716197  0.000000 )  
               b(3) = (  0.000000  0.000000  2.561388 )  


     PseudoPot. # 1 for Sn read from file:
     ../pseudo/Sn_pbe_v1.uspp.F.UPF
     MD5 check sum: 4cf58ce39ec5d5d420df3dd08604eb00
     Pseudo is Ultrasoft + core correction, Zval = 14.0
     Generated by new atomic code, or converted to UPF format
     Using radial grid of  891 points,  6 beta functions with: 
                l(1) =   0
                l(2) =   0
                l(3) =   1
                l(4) =   1
                l(5) =   2
                l(6) =   2
     Q(r) pseudized with  6 coefficients,  rinner =    1.200   1.200   1.200
                                                       1.200   1.200

     PseudoPot. # 2 for Se read from file:
     ../pseudo/Se_pbe_v1.uspp.F.UPF
     MD5 check sum: 1b3568f3a8ae88f9a2a0ad0698632c85
     Pseudo is Ultrasoft + core correction, Zval =  6.0
     Generated by new atomic code, or converted to UPF format
     Using radial grid of  877 points,  6 beta functions with: 
                l(1) =   0
                l(2) =   0
                l(3) =   1
                l(4) =   1
                l(5) =   2
                l(6) =   2
     Q(r) pseudized with  8 coefficients,  rinner =    1.300   1.300   1.300
                                                       1.300   1.300

     atomic species   valence    mass     pseudopotential
        Sn            14.00   118.71000     Sn( 1.00)
        Se             6.00    78.97100     Se( 1.00)

      8 Sym. Ops., with inversion, found ( 6 have fractional translation)


                                    s                        frac. trans.

      isym =  1     identity                                     

 cryst.   s( 1) = (     1          0          0      )
                  (     0          1          0      )
                  (     0          0          1      )

 cart.    s( 1) = (  1.0000000  0.0000000  0.0000000 )
                  (  0.0000000  1.0000000  0.0000000 )
                  (  0.0000000  0.0000000  1.0000000 )


      isym =  2     180 deg rotation - cart. axis [0,0,1]        

 cryst.   s( 2) = (    -1          0          0      )    f =(  0.5000000 )
                  (     0         -1          0      )       (  0.0000000 )
                  (     0          0          1      )       (  0.5000000 )

 cart.    s( 2) = ( -1.0000000  0.0000000  0.0000000 )    f =(  0.5000000 )
                  (  0.0000000 -1.0000000  0.0000000 )       (  0.0000000 )
                  (  0.0000000  0.0000000  1.0000000 )       (  0.1952067 )


      isym =  3     180 deg rotation - cart. axis [0,1,0]        

 cryst.   s( 3) = (    -1          0          0      )    f =(  0.0000000 )
                  (     0          1          0      )       ( -0.5000000 )
                  (     0          0         -1      )       (  0.0000000 )

 cart.    s( 3) = ( -1.0000000  0.0000000  0.0000000 )    f =(  0.0000000 )
                  (  0.0000000  1.0000000  0.0000000 )       ( -0.1840809 )
                  (  0.0000000  0.0000000 -1.0000000 )       (  0.0000000 )


      isym =  4     180 deg rotation - cart. axis [1,0,0]        

 cryst.   s( 4) = (     1          0          0      )    f =(  0.5000000 )
                  (     0         -1          0      )       (  0.5000000 )
                  (     0          0         -1      )       (  0.5000000 )

 cart.    s( 4) = (  1.0000000  0.0000000  0.0000000 )    f =(  0.5000000 )
                  (  0.0000000 -1.0000000  0.0000000 )       (  0.1840809 )
                  (  0.0000000  0.0000000 -1.0000000 )       (  0.1952067 )


      isym =  5     inversion                                    

 cryst.   s( 5) = (    -1          0          0      )
                  (     0         -1          0      )
                  (     0          0         -1      )

 cart.    s( 5) = ( -1.0000000  0.0000000  0.0000000 )
                  (  0.0000000 -1.0000000  0.0000000 )
                  (  0.0000000  0.0000000 -1.0000000 )


      isym =  6     inv. 180 deg rotation - cart. axis [0,0,1]   

 cryst.   s( 6) = (     1          0          0      )    f =(  0.5000000 )
                  (     0          1          0      )       (  0.0000000 )
                  (     0          0         -1      )       (  0.5000000 )

 cart.    s( 6) = (  1.0000000  0.0000000  0.0000000 )    f =(  0.5000000 )
                  (  0.0000000  1.0000000  0.0000000 )       (  0.0000000 )
                  (  0.0000000  0.0000000 -1.0000000 )       (  0.1952067 )


      isym =  7     inv. 180 deg rotation - cart. axis [0,1,0]   

 cryst.   s( 7) = (     1          0          0      )    f =(  0.0000000 )
                  (     0         -1          0      )       (  0.5000000 )
                  (     0          0          1      )       (  0.0000000 )

 cart.    s( 7) = (  1.0000000  0.0000000  0.0000000 )    f =(  0.0000000 )
                  (  0.0000000 -1.0000000  0.0000000 )       (  0.1840809 )
                  (  0.0000000  0.0000000  1.0000000 )       (  0.0000000 )


      isym =  8     inv. 180 deg rotation - cart. axis [1,0,0]   

 cryst.   s( 8) = (    -1          0          0      )    f =(  0.5000000 )
                  (     0          1          0      )       ( -0.5000000 )
                  (     0          0          1      )       (  0.5000000 )

 cart.    s( 8) = ( -1.0000000  0.0000000  0.0000000 )    f =(  0.5000000 )
                  (  0.0000000  1.0000000  0.0000000 )       ( -0.1840809 )
                  (  0.0000000  0.0000000  1.0000000 )       (  0.1952067 )


     point group D_2h (mmm) 
     there are  8 classes
     the character table:

       E     C2    C2'   C2''  i     s_v   s_v'  s_v''
A_g    1.00  1.00  1.00  1.00  1.00  1.00  1.00  1.00
B_1g   1.00  1.00 -1.00 -1.00  1.00  1.00 -1.00 -1.00
B_2g   1.00 -1.00  1.00 -1.00  1.00 -1.00  1.00 -1.00
B_3g   1.00 -1.00 -1.00  1.00  1.00 -1.00 -1.00  1.00
A_u    1.00  1.00  1.00  1.00 -1.00 -1.00 -1.00 -1.00
B_1u   1.00  1.00 -1.00 -1.00 -1.00 -1.00  1.00  1.00
B_2u   1.00 -1.00  1.00 -1.00 -1.00  1.00 -1.00  1.00
B_3u   1.00 -1.00 -1.00  1.00 -1.00  1.00  1.00 -1.00

     the symmetry operations in each class and the name of the first element:

     E        1
          identity                                               
     C2       2
          180 deg rotation - cart. axis [0,0,1]                  
     C2'      4
          180 deg rotation - cart. axis [1,0,0]                  
     C2''     3
          180 deg rotation - cart. axis [0,1,0]                  
     i        5
          inversion                                              
     s_v      6
          inv. 180 deg rotation - cart. axis [0,0,1]             
     s_v'     8
          inv. 180 deg rotation - cart. axis [1,0,0]             
     s_v''    7
          inv. 180 deg rotation - cart. axis [0,1,0]             

   Cartesian axes

     site n.     atom                  positions (alat units)
         1           Se  tau(   1) = (   0.8555000   0.0920405   0.1884916  )
         2           Sn  tau(   2) = (   0.1187000   0.0920405   0.0385728  )
         3           Se  tau(   3) = (   0.6445000   0.2761214   0.3836983  )
         4           Sn  tau(   4) = (   0.3813000   0.2761214   0.2337795  )
         5           Se  tau(   5) = (   0.3555000   0.0920405   0.0067151  )
         6           Sn  tau(   6) = (   0.6187000   0.0920405   0.1566338  )
         7           Se  tau(   7) = (   0.1445000   0.2761214   0.2019218  )
         8           Sn  tau(   8) = (   0.8813000   0.2761214   0.3518405  )

   Crystallographic axes

     site n.     atom                  positions (cryst. coord.)
         1           Se  tau(   1) = (  0.8555000  0.2500000  0.4828000  )
         2           Sn  tau(   2) = (  0.1187000  0.2500000  0.0988000  )
         3           Se  tau(   3) = (  0.6445000  0.7500000  0.9828000  )
         4           Sn  tau(   4) = (  0.3813000  0.7500000  0.5988000  )
         5           Se  tau(   5) = (  0.3555000  0.2500000  0.0172000  )
         6           Sn  tau(   6) = (  0.6187000  0.2500000  0.4012000  )
         7           Se  tau(   7) = (  0.1445000  0.7500000  0.5172000  )
         8           Sn  tau(   8) = (  0.8813000  0.7500000  0.9012000  )

     number of k points=     4
                       cart. coord. in units 2pi/alat
        k(    1) = (  -0.5000000   0.4526995   0.4268979), wk =   0.8888889
        k(    2) = (  -0.5000000   0.4526995  -1.2806938), wk =   0.4444444
        k(    3) = (  -0.5000000  -1.3580984   0.4268979), wk =   0.4444444
        k(    4) = (  -0.5000000  -1.3580984  -1.2806938), wk =   0.2222222

                       cryst. coord.
        k(    1) = (  -0.5000000   0.1666667   0.1666667), wk =   0.8888889
        k(    2) = (  -0.5000000   0.1666667  -0.5000000), wk =   0.4444444
        k(    3) = (  -0.5000000  -0.5000000   0.1666667), wk =   0.4444444
        k(    4) = (  -0.5000000  -0.5000000  -0.5000000), wk =   0.2222222

     Dense  grid:   269075 G-vectors     FFT dimensions: ( 160,  60,  60)

     Smooth grid:    68055 G-vectors     FFT dimensions: ( 100,  36,  40)

     Dynamical RAM for                 wfc:       1.08 MB

     Dynamical RAM for     wfc (w. buffer):       5.41 MB

     Dynamical RAM for           str. fact:       1.37 MB

     Dynamical RAM for           local pot:       0.00 MB

     Dynamical RAM for          nlocal pot:       3.12 MB

     Dynamical RAM for                qrad:       3.59 MB

     Dynamical RAM for          rho,v,vnew:       4.25 MB

     Dynamical RAM for               rhoin:       1.42 MB

     Dynamical RAM for            rho*nmix:      10.95 MB

     Dynamical RAM for           G-vectors:       2.65 MB

     Dynamical RAM for          h,s,v(r/c):       0.11 MB

     Dynamical RAM for          <psi|beta>:       0.11 MB

     Dynamical RAM for                 psi:       2.16 MB

     Dynamical RAM for                hpsi:       2.16 MB

     Dynamical RAM for                spsi:       2.16 MB

     Dynamical RAM for      wfcinit/wfcrot:       2.31 MB

     Dynamical RAM for           addusdens:     130.02 MB

     Dynamical RAM for          addusforce:     134.48 MB

     Estimated static dynamical RAM per process >      38.47 MB

     Estimated max dynamical RAM per process >     172.95 MB

     Estimated total dynamical RAM >       1.01 GB

     Initial potential from superposition of free atoms

     starting charge   75.99954, renormalised to   80.00000
     Starting wfcs are   52 randomized atomic wfcs

     total cpu time spent up to now is        4.9 secs

     Self-consistent Calculation

     iteration #  1     ecut=    50.00 Ry     beta= 0.70
     Davidson diagonalization with overlap
     ethr =  1.00E-02,  avg # of iterations =  3.5

     total cpu time spent up to now is       12.6 secs

     total energy              =    -826.58262436 Ry
     estimated scf accuracy    <       2.62953014 Ry

     iteration #  2     ecut=    50.00 Ry     beta= 0.70
     Davidson diagonalization with overlap
     ethr =  3.29E-03,  avg # of iterations =  2.0

     total cpu time spent up to now is       18.9 secs

     total energy              =    -827.37309701 Ry
     estimated scf accuracy    <       1.07579219 Ry

     iteration #  3     ecut=    50.00 Ry     beta= 0.70
     Davidson diagonalization with overlap
     ethr =  1.34E-03,  avg # of iterations =  2.0

     total cpu time spent up to now is       24.1 secs

     total energy              =    -827.63992048 Ry
     estimated scf accuracy    <       0.06153773 Ry

     iteration #  4     ecut=    50.00 Ry     beta= 0.70
     Davidson diagonalization with overlap
     ethr =  7.69E-05,  avg # of iterations =  2.0

     total cpu time spent up to now is       29.7 secs

     total energy              =    -827.65138522 Ry
     estimated scf accuracy    <       0.00302083 Ry

     iteration #  5     ecut=    50.00 Ry     beta= 0.70
     Davidson diagonalization with overlap
     ethr =  3.78E-06,  avg # of iterations =  5.8

     total cpu time spent up to now is       39.6 secs

     total energy              =    -827.65205665 Ry
     estimated scf accuracy    <       0.00074625 Ry

     iteration #  6     ecut=    50.00 Ry     beta= 0.70
     Davidson diagonalization with overlap
     ethr =  9.33E-07,  avg # of iterations =  2.0

     total cpu time spent up to now is       44.5 secs

     total energy              =    -827.65221786 Ry
     estimated scf accuracy    <       0.00003995 Ry

     iteration #  7     ecut=    50.00 Ry     beta= 0.70
     Davidson diagonalization with overlap
     ethr =  4.99E-08,  avg # of iterations =  5.0

     total cpu time spent up to now is       53.8 secs

     total energy              =    -827.65224708 Ry
     estimated scf accuracy    <       0.00000221 Ry

     iteration #  8     ecut=    50.00 Ry     beta= 0.70
     Davidson diagonalization with overlap
     ethr =  2.76E-09,  avg # of iterations =  4.8

     total cpu time spent up to now is       62.7 secs

     total energy              =    -827.65224806 Ry
     estimated scf accuracy    <       0.00000038 Ry

     iteration #  9     ecut=    50.00 Ry     beta= 0.70
     Davidson diagonalization with overlap
     ethr =  4.70E-10,  avg # of iterations =  4.0

     total cpu time spent up to now is       70.3 secs

     End of self-consistent calculation

          k =-0.5000 0.4527 0.4269 (  8494 PWs)   bands (ev):

   -13.2504 -13.2504 -13.2463 -13.2463 -13.2412 -13.2412 -13.2389 -13.2389
   -13.2275 -13.2275 -13.2215 -13.2215 -13.2083 -13.2083 -13.1901 -13.1901
   -13.1836 -13.1836 -13.1687 -13.1687  -5.3716  -5.3716  -4.3700  -4.3700
     0.7826   0.7826   2.1673   2.1673   4.1222   4.1222   4.6459   4.6459
     5.4396   5.4396   6.2544   6.2544   7.0700   7.0700   7.5439   7.5439
     9.6841   9.6841  10.7526  10.7526  11.2283  11.2283  11.6427  11.6427
    12.4791  12.4791

     occupation numbers 
     1.0000   1.0000   1.0000   1.0000   1.0000   1.0000   1.0000   1.0000
     1.0000   1.0000   1.0000   1.0000   1.0000   1.0000   1.0000   1.0000
     1.0000   1.0000   1.0000   1.0000   1.0000   1.0000   1.0000   1.0000
     1.0000   1.0000   1.0000   1.0000   1.0000   1.0000   1.0000   1.0000
     1.0000   1.0000   1.0000   1.0000   1.0000   1.0000   1.0000   1.0000
     0.0000   0.0000   0.0000   0.0000   0.0000   0.0000   0.0000   0.0000
     0.0000   0.0000

          k =-0.5000 0.4527-1.2807 (  8508 PWs)   bands (ev):

   -13.2529 -13.2529 -13.2496 -13.2496 -13.2409 -13.2409 -13.2374 -13.2374
   -13.2265 -13.2265 -13.2118 -13.2118 -13.2111 -13.2111 -13.1894 -13.1894
   -13.1858 -13.1858 -13.1681 -13.1681  -4.8441  -4.8441  -4.5776  -4.5776
     0.3268   0.3268   1.3823   1.3823   4.5823   4.5823   4.7804   4.7804
     5.5429   5.5429   5.9643   5.9643   6.8275   6.8275   7.3424   7.3424
    10.1964  10.1964  10.2542  10.2542  10.7848  10.7848  11.5314  11.5314
    12.4459  12.4459

     occupation numbers 
     1.0000   1.0000   1.0000   1.0000   1.0000   1.0000   1.0000   1.0000
     1.0000   1.0000   1.0000   1.0000   1.0000   1.0000   1.0000   1.0000
     1.0000   1.0000   1.0000   1.0000   1.0000   1.0000   1.0000   1.0000
     1.0000   1.0000   1.0000   1.0000   1.0000   1.0000   1.0000   1.0000
     1.0000   1.0000   1.0000   1.0000   1.0000   1.0000   1.0000   1.0000
     0.0000   0.0000   0.0000   0.0000   0.0000   0.0000   0.0000   0.0000
     0.0000   0.0000

          k =-0.5000-1.3581 0.4269 (  8552 PWs)   bands (ev):

   -13.2557 -13.2557 -13.2557 -13.2557 -13.2323 -13.2323 -13.2323 -13.2323
   -13.2203 -13.2203 -13.2203 -13.2203 -13.2027 -13.2027 -13.2027 -13.2027
   -13.1747 -13.1747 -13.1747 -13.1747  -4.6095  -4.6095  -4.6095  -4.6095
     0.8018   0.8018   0.8018   0.8018   4.6643   4.6643   4.6643   4.6643
     5.6331   5.6331   5.6331   5.6331   6.8393   6.8393   6.8393   6.8393
     9.9110   9.9110   9.9110   9.9110  11.3273  11.3273  11.3273  11.3273
    12.2320  12.2320

     occupation numbers 
     1.0000   1.0000   1.0000   1.0000   1.0000   1.0000   1.0000   1.0000
     1.0000   1.0000   1.0000   1.0000   1.0000   1.0000   1.0000   1.0000
     1.0000   1.0000   1.0000   1.0000   1.0000   1.0000   1.0000   1.0000
     1.0000   1.0000   1.0000   1.0000   1.0000   1.0000   1.0000   1.0000
     1.0000   1.0000   1.0000   1.0000   1.0000   1.0000   1.0000   1.0000
     0.0000   0.0000   0.0000   0.0000   0.0000   0.0000   0.0000   0.0000
     0.0000   0.0000

          k =-0.5000-1.3581-1.2807 (  8472 PWs)   bands (ev):

   -13.2639 -13.2639 -13.2639 -13.2639 -13.2303 -13.2303 -13.2303 -13.2303
   -13.2187 -13.2187 -13.2187 -13.2187 -13.2003 -13.2003 -13.2003 -13.2003
   -13.1740 -13.1740 -13.1740 -13.1740  -4.4292  -4.4292  -4.4292  -4.4292
     1.3420   1.3420   1.3420   1.3420   3.4616   3.4616   3.4616   3.4616
     4.3117   4.3117   4.3117   4.3117   6.5871   6.5871   6.5871   6.5871
    10.6188  10.6188  10.6188  10.6188  12.8364  12.8364  12.8364  12.8364
    14.6047  14.6047

     occupation numbers 
     1.0000   1.0000   1.0000   1.0000   1.0000   1.0000   1.0000   1.0000
     1.0000   1.0000   1.0000   1.0000   1.0000   1.0000   1.0000   1.0000
     1.0000   1.0000   1.0000   1.0000   1.0000   1.0000   1.0000   1.0000
     1.0000   1.0000   1.0000   1.0000   1.0000   1.0000   1.0000   1.0000
     1.0000   1.0000   1.0000   1.0000   1.0000   1.0000   1.0000   1.0000
     0.0000   0.0000   0.0000   0.0000   0.0000   0.0000   0.0000   0.0000
     0.0000   0.0000

     highest occupied, lowest unoccupied level (ev):     7.5439    9.6841

!    total energy              =    -827.65224819 Ry
     estimated scf accuracy    <          1.7E-09 Ry

     The total energy is the sum of the following terms:
     one-electron contribution =    -257.04086176 Ry
     hartree contribution      =     179.10519881 Ry
     xc contribution           =    -309.11176905 Ry
     ewald contribution        =    -440.60481620 Ry

     convergence has been achieved in   9 iterations

     Forces acting on atoms (cartesian axes, Ry/au):

     atom    1 type  2   force =     0.01602658   -0.00000000   -0.00876666
     atom    2 type  1   force =    -0.01296973   -0.00000000   -0.00287930
     atom    3 type  2   force =    -0.01602658    0.00000000   -0.00876666
     atom    4 type  1   force =     0.01296973    0.00000000   -0.00287930
     atom    5 type  2   force =     0.01602658    0.00000000    0.00876666
     atom    6 type  1   force =    -0.01296973    0.00000000    0.00287930
     atom    7 type  2   force =    -0.01602658    0.00000000    0.00876666
     atom    8 type  1   force =     0.01296973    0.00000000    0.00287930
     The non-local contrib.  to forces
     atom    1 type  2   force =    -0.10115470    0.00000000    0.12088605
     atom    2 type  1   force =     0.32194490    0.00000000    0.29824641
     atom    3 type  2   force =     0.10115470    0.00000000    0.12088605
     atom    4 type  1   force =    -0.32194490    0.00000000    0.29824641
     atom    5 type  2   force =    -0.10115470    0.00000000   -0.12088605
     atom    6 type  1   force =     0.32194490    0.00000000   -0.29824641
     atom    7 type  2   force =     0.10115470    0.00000000   -0.12088605
     atom    8 type  1   force =    -0.32194490    0.00000000   -0.29824641
     The ionic contribution  to forces
     atom    1 type  2   force =     1.53473235   -0.00000000   -1.05154455
     atom    2 type  1   force =    -1.03769718    0.00000000   -0.57506129
     atom    3 type  2   force =    -1.53473235    0.00000000   -1.05154455
     atom    4 type  1   force =     1.03769718    0.00000000   -0.57506129
     atom    5 type  2   force =     1.53473235   -0.00000000    1.05154455
     atom    6 type  1   force =    -1.03769718    0.00000000    0.57506129
     atom    7 type  2   force =    -1.53473235    0.00000000    1.05154455
     atom    8 type  1   force =     1.03769718    0.00000000    0.57506129
     The local contribution  to forces
     atom    1 type  2   force =    -1.42851011   -0.00000000    0.93556320
     atom    2 type  1   force =     0.70686795    0.00000000    0.27923879
     atom    3 type  2   force =     1.42851011    0.00000000    0.93556320
     atom    4 type  1   force =    -0.70686795    0.00000000    0.27923879
     atom    5 type  2   force =    -1.42851011   -0.00000000   -0.93556320
     atom    6 type  1   force =     0.70686795    0.00000000   -0.27923879
     atom    7 type  2   force =     1.42851011    0.00000000   -0.93556320
     atom    8 type  1   force =    -0.70686795    0.00000000   -0.27923879
     The core correction contribution to forces
     atom    1 type  2   force =     0.01093650    0.00000000   -0.01367067
     atom    2 type  1   force =    -0.00406395    0.00000000   -0.00534569
     atom    3 type  2   force =    -0.01093650   -0.00000000   -0.01367067
     atom    4 type  1   force =     0.00406395   -0.00000000   -0.00534569
     atom    5 type  2   force =     0.01093650    0.00000000    0.01367067
     atom    6 type  1   force =    -0.00406395    0.00000000    0.00534569
     atom    7 type  2   force =    -0.01093650   -0.00000000    0.01367067
     atom    8 type  1   force =     0.00406395   -0.00000000    0.00534569
     The Hubbard contrib.    to forces
     atom    1 type  2   force =     0.00000000    0.00000000    0.00000000
     atom    2 type  1   force =     0.00000000    0.00000000    0.00000000
     atom    3 type  2   force =     0.00000000    0.00000000    0.00000000
     atom    4 type  1   force =     0.00000000    0.00000000    0.00000000
     atom    5 type  2   force =     0.00000000    0.00000000    0.00000000
     atom    6 type  1   force =     0.00000000    0.00000000    0.00000000
     atom    7 type  2   force =     0.00000000    0.00000000    0.00000000
     atom    8 type  1   force =     0.00000000    0.00000000    0.00000000
     The SCF correction term to forces
     atom    1 type  2   force =     0.00002253    0.00000000   -0.00000069
     atom    2 type  1   force =    -0.00002145    0.00000000    0.00004247
     atom    3 type  2   force =    -0.00002253    0.00000000   -0.00000069
     atom    4 type  1   force =     0.00002145    0.00000000    0.00004247
     atom    5 type  2   force =     0.00002253   -0.00000000    0.00000069
     atom    6 type  1   force =    -0.00002145    0.00000000   -0.00004247
     atom    7 type  2   force =    -0.00002253    0.00000000    0.00000069
     atom    8 type  1   force =     0.00002145    0.00000000   -0.00004247

     Total force =     0.045176     Total SCF correction =     0.000105

     Writing output data file ./tmp/SnSe_pnma.save/

     init_run     :      3.92s CPU      4.59s WALL (       1 calls)
     electrons    :     62.83s CPU     65.41s WALL (       1 calls)
     forces       :      4.54s CPU      5.11s WALL (       1 calls)

     Called by init_run:
     wfcinit      :      1.10s CPU      1.25s WALL (       1 calls)
     wfcinit:atom :      0.01s CPU      0.00s WALL (       4 calls)
     wfcinit:wfcr :      1.06s CPU      1.22s WALL (       4 calls)
     potinit      :      0.54s CPU      0.57s WALL (       1 calls)
     hinit0       :      0.98s CPU      1.01s WALL (       1 calls)

     Called by electrons:
     c_bands      :     42.57s CPU     40.39s WALL (       9 calls)
     sum_band     :      7.87s CPU      8.72s WALL (       9 calls)
     v_of_rho     :      1.03s CPU      1.15s WALL (      10 calls)
     v_h          :      0.08s CPU      0.09s WALL (      10 calls)
     v_xc         :      1.04s CPU      1.17s WALL (      11 calls)
     newd         :     12.32s CPU     16.52s WALL (      10 calls)
     mix_rho      :      0.16s CPU      0.17s WALL (       9 calls)

     Called by c_bands:
     init_us_2    :      0.17s CPU      0.15s WALL (      80 calls)
     cegterg      :     41.61s CPU     39.54s WALL (      36 calls)

     Called by sum_band:
     sum_band:wei :      0.00s CPU      0.00s WALL (       9 calls)
     sum_band:loo :      1.79s CPU      1.70s WALL (       9 calls)
     sum_band:buf :      0.03s CPU      0.03s WALL (      36 calls)
     sum_band:ini :      0.08s CPU      0.07s WALL (      36 calls)
     sum_band:cal :      0.66s CPU      0.62s WALL (      36 calls)
     sum_band:bec :      0.00s CPU      0.00s WALL (      36 calls)
     addusdens    :      5.68s CPU      6.60s WALL (       9 calls)
     addusd:skk   :      0.02s CPU      0.05s WALL (      18 calls)
     addusd:dgemm :      1.93s CPU      2.52s WALL (      18 calls)
     addusd:qvan2 :      3.47s CPU      3.23s WALL (      18 calls)

     Called by *egterg:
     cdiaghg      :     17.10s CPU     17.16s WALL (     160 calls)
     cegterg:over :      5.74s CPU      5.90s WALL (     124 calls)
     cegterg:upda :      2.16s CPU      2.01s WALL (     124 calls)
     cegterg:last :      2.28s CPU      1.94s WALL (      77 calls)
     cdiaghg:chol :      1.71s CPU      1.49s WALL (     160 calls)
     cdiaghg:inve :      0.02s CPU      0.02s WALL (     160 calls)
     cdiaghg:para :      4.65s CPU      6.45s WALL (     320 calls)
     h_psi        :     10.50s CPU      9.36s WALL (     164 calls)
     s_psi        :      1.31s CPU      0.80s WALL (     164 calls)
     g_psi        :      0.05s CPU      0.04s WALL (     124 calls)

     Called by h_psi:
     h_psi:calbec :      2.59s CPU      2.33s WALL (     164 calls)
     vloc_psi     :      6.50s CPU      6.06s WALL (     164 calls)
     add_vuspsi   :      1.37s CPU      0.91s WALL (     164 calls)

     General routines
     calbec       :      3.58s CPU      3.22s WALL (     216 calls)
     fft          :      0.83s CPU      0.92s WALL (     139 calls)
     ffts         :      0.02s CPU      0.02s WALL (      19 calls)
     fftw         :      6.73s CPU      6.30s WALL (   11784 calls)
     interpolate  :      0.08s CPU      0.09s WALL (      10 calls)

     Parallel routines
     fft_scatt_xy :      0.84s CPU      0.81s WALL (   11942 calls)
     fft_scatt_yz :      2.98s CPU      2.84s WALL (   11942 calls)

     PWSCF        :   1m11.60s CPU   1m15.52s WALL


   This run was terminated on:  23:27:23  17May2026            

=------------------------------------------------------------------------------=
   JOB DONE.
=------------------------------------------------------------------------------=
Note: The following floating-point exceptions are signalling: IEEE_UNDERFLOW_FLAG IEEE_DENORMAL
Note: The following floating-point exceptions are signalling: IEEE_UNDERFLOW_FLAG IEEE_DENORMAL
Note: The following floating-point exceptions are signalling: IEEE_UNDERFLOW_FLAG IEEE_DENORMAL
Note: The following floating-point exceptions are signalling: IEEE_UNDERFLOW_FLAG IEEE_DENORMAL
