
     Program PWSCF v.7.3.1 starts on 24May2026 at 21: 2:33 

     This program is part of the open-source Quantum ESPRESSO suite
     for quantum simulation of materials; please cite
         "P. Giannozzi et al., J. Phys.:Condens. Matter 21 395502 (2009);
         "P. Giannozzi et al., J. Phys.:Condens. Matter 29 465901 (2017);
         "P. Giannozzi et al., J. Chem. Phys. 152 154105 (2020);
          URL http://www.quantum-espresso.org", 
     in publications or presentations arising from this work. More details at
     http://www.quantum-espresso.org/quote

     Parallel version (MPI & OpenMP), running on      16 processor cores
     Number of MPI processes:                16
     Threads/MPI process:                     1

     MPI processes distributed on     1 nodes
     56834 MiB available memory on the printing compute node when the environment starts
 
     Waiting for input...
     Reading input from standard input

     Current dimensions of program PWSCF are:
     Max number of different atomic species (ntypx) = 10
     Max number of k-points (npk) =  40000
     Max angular momentum in pseudopotentials (lmaxx) =  4
     Message from routine setup:
     using ibrav=0 with symmetry is DISCOURAGED, use correct ibrav instead
 
     K-points division:     npool     =       4
     R & G space division:  proc/nbgrp/npool/nimage =       4
     Subspace diagonalization in iterative solution of the eigenvalue problem:
     a serial algorithm will be used

 
     Parallelization info
     --------------------
     sticks:   dense  smooth     PW     G-vecs:    dense   smooth      PW
     Min         407     160     49                56303    14201    2352
     Max         408     161     51                56310    14210    2355
     Sum        1629     641    199               225221    56831    9415
 
     Using Slab Decomposition
 


     bravais-lattice index     =            0
     lattice parameter (alat)  =       8.6086  a.u.
     unit-cell volume          =    2564.7467 (a.u.)^3
     number of atoms/cell      =            4
     number of atomic types    =            2
     number of electrons       =        40.00
     number of Kohn-Sham states=           20
     kinetic-energy cutoff     =      30.0000  Ry
     charge density cutoff     =     300.0000  Ry
     scf convergence threshold =      1.0E-08
     mixing beta               =       0.7000
     number of iterations used =            8  plain     mixing
     Exchange-correlation= SLA  PW   PBE  PBE
                           (   1   4   3   4   0   0   0)

     celldm(1)=   8.608647  celldm(2)=   0.000000  celldm(3)=   0.000000
     celldm(4)=   0.000000  celldm(5)=   0.000000  celldm(6)=   0.000000

     crystal axes: (cart. coord. in units of alat)
               a(1) = (   1.000000   0.000000   0.000000 )  
               a(2) = (   0.000000   0.915684   0.000000 )  
               a(3) = (   0.000000   0.000000   4.390297 )  

     reciprocal axes: (cart. coord. in units 2 pi/alat)
               b(1) = (  1.000000  0.000000  0.000000 )  
               b(2) = (  0.000000  1.092079  0.000000 )  
               b(3) = (  0.000000  0.000000  0.227775 )  


     PseudoPot. # 1 for Sn read from file:
     ../pseudo/Sn_pbe_v1.uspp.F.UPF
     MD5 check sum: 4cf58ce39ec5d5d420df3dd08604eb00
     Pseudo is Ultrasoft + core correction, Zval = 14.0
     Generated by new atomic code, or converted to UPF format
     Using radial grid of  891 points,  6 beta functions with: 
                l(1) =   0
                l(2) =   0
                l(3) =   1
                l(4) =   1
                l(5) =   2
                l(6) =   2
     Q(r) pseudized with  6 coefficients,  rinner =    1.200   1.200   1.200
                                                       1.200   1.200

     PseudoPot. # 2 for Se read from file:
     ../pseudo/Se_pbe_v1.uspp.F.UPF
     MD5 check sum: 1b3568f3a8ae88f9a2a0ad0698632c85
     Pseudo is Ultrasoft + core correction, Zval =  6.0
     Generated by new atomic code, or converted to UPF format
     Using radial grid of  877 points,  6 beta functions with: 
                l(1) =   0
                l(2) =   0
                l(3) =   1
                l(4) =   1
                l(5) =   2
                l(6) =   2
     Q(r) pseudized with  8 coefficients,  rinner =    1.300   1.300   1.300
                                                       1.300   1.300

     atomic species   valence    mass     pseudopotential
     Sn               14.00   118.71000     Sn( 1.00)
     Se                6.00    78.97100     Se( 1.00)

      4 Sym. Ops. (no inversion) found ( 3 have fractional translation)


                                    s                        frac. trans.

      isym =  1     identity                                     

 cryst.   s( 1) = (     1          0          0      )
                  (     0          1          0      )
                  (     0          0          1      )

 cart.    s( 1) = (  1.0000000  0.0000000  0.0000000 )
                  (  0.0000000  1.0000000  0.0000000 )
                  (  0.0000000  0.0000000  1.0000000 )


      isym =  2     180 deg rotation - cart. axis [1,0,0]        

 cryst.   s( 2) = (     1          0          0      )    f =( -0.5000000 )
                  (     0         -1          0      )       ( -0.0000000 )
                  (     0          0         -1      )       (  0.0000000 )

 cart.    s( 2) = (  1.0000000  0.0000000  0.0000000 )    f =( -0.5000000 )
                  (  0.0000000 -1.0000000  0.0000000 )       ( -0.0000000 )
                  (  0.0000000  0.0000000 -1.0000000 )       (  0.0000000 )


      isym =  3     inv. 180 deg rotation - cart. axis [0,0,1]   

 cryst.   s( 3) = (     1          0          0      )    f =( -0.5000000 )
                  (     0          1          0      )       (  0.5000000 )
                  (     0          0         -1      )       (  0.0000000 )

 cart.    s( 3) = (  1.0000000  0.0000000  0.0000000 )    f =( -0.5000000 )
                  (  0.0000000  1.0000000  0.0000000 )       (  0.4578422 )
                  (  0.0000000  0.0000000 -1.0000000 )       (  0.0000000 )


      isym =  4     inv. 180 deg rotation - cart. axis [0,1,0]   

 cryst.   s( 4) = (     1          0          0      )    f =(  0.0000000 )
                  (     0         -1          0      )       (  0.5000000 )
                  (     0          0          1      )       (  0.0000000 )

 cart.    s( 4) = (  1.0000000  0.0000000  0.0000000 )    f =(  0.0000000 )
                  (  0.0000000 -1.0000000  0.0000000 )       (  0.4578422 )
                  (  0.0000000  0.0000000  1.0000000 )       (  0.0000000 )


   Cartesian axes

     site n.     atom                  positions (alat units)
         1        Sn     tau(   1) = (   0.0995059   0.6867633   1.8899228  )
         2        Se     tau(   2) = (   0.5295331   0.2289211   1.9041249  )
         3        Se     tau(   3) = (   0.0295331   0.6867633   2.4861725  )
         4        Sn     tau(   4) = (   0.5995059   0.2289211   2.5003746  )

   Crystallographic axes

     site n.     atom                  positions (cryst. coord.)
         1        Sn     tau(   1) = (  0.0995059  0.7500000  0.4304772  )
         2        Se     tau(   2) = (  0.5295331  0.2500000  0.4337121  )
         3        Se     tau(   3) = (  0.0295331  0.7500000  0.5662879  )
         4        Sn     tau(   4) = (  0.5995059  0.2500000  0.5695228  )

     number of k points=    25
                       cart. coord. in units 2pi/alat
        k(    1) = (   0.0000000   0.0000000   0.0000000), wk =   0.0312500
        k(    2) = (   0.0000000   0.1365099   0.0000000), wk =   0.0625000
        k(    3) = (   0.0000000   0.2730198   0.0000000), wk =   0.0625000
        k(    4) = (   0.0000000   0.4095298   0.0000000), wk =   0.0625000
        k(    5) = (   0.0000000  -0.5460397   0.0000000), wk =   0.0312500
        k(    6) = (   0.1250000   0.0000000   0.0000000), wk =   0.0625000
        k(    7) = (   0.1250000   0.1365099   0.0000000), wk =   0.1250000
        k(    8) = (   0.1250000   0.2730198   0.0000000), wk =   0.1250000
        k(    9) = (   0.1250000   0.4095298   0.0000000), wk =   0.1250000
        k(   10) = (   0.1250000  -0.5460397   0.0000000), wk =   0.0625000
        k(   11) = (   0.2500000   0.0000000   0.0000000), wk =   0.0625000
        k(   12) = (   0.2500000   0.1365099   0.0000000), wk =   0.1250000
        k(   13) = (   0.2500000   0.2730198   0.0000000), wk =   0.1250000
        k(   14) = (   0.2500000   0.4095298   0.0000000), wk =   0.1250000
        k(   15) = (   0.2500000  -0.5460397   0.0000000), wk =   0.0625000
        k(   16) = (   0.3750000   0.0000000   0.0000000), wk =   0.0625000
        k(   17) = (   0.3750000   0.1365099   0.0000000), wk =   0.1250000
        k(   18) = (   0.3750000   0.2730198   0.0000000), wk =   0.1250000
        k(   19) = (   0.3750000   0.4095298   0.0000000), wk =   0.1250000
        k(   20) = (   0.3750000  -0.5460397   0.0000000), wk =   0.0625000
        k(   21) = (  -0.5000000   0.0000000   0.0000000), wk =   0.0312500
        k(   22) = (  -0.5000000   0.1365099   0.0000000), wk =   0.0625000
        k(   23) = (  -0.5000000   0.2730198   0.0000000), wk =   0.0625000
        k(   24) = (  -0.5000000   0.4095298   0.0000000), wk =   0.0625000
        k(   25) = (  -0.5000000  -0.5460397   0.0000000), wk =   0.0312500

                       cryst. coord.
        k(    1) = (   0.0000000   0.0000000   0.0000000), wk =   0.0312500
        k(    2) = (   0.0000000   0.1250000   0.0000000), wk =   0.0625000
        k(    3) = (   0.0000000   0.2500000   0.0000000), wk =   0.0625000
        k(    4) = (   0.0000000   0.3750000   0.0000000), wk =   0.0625000
        k(    5) = (   0.0000000  -0.5000000   0.0000000), wk =   0.0312500
        k(    6) = (   0.1250000   0.0000000   0.0000000), wk =   0.0625000
        k(    7) = (   0.1250000   0.1250000   0.0000000), wk =   0.1250000
        k(    8) = (   0.1250000   0.2500000   0.0000000), wk =   0.1250000
        k(    9) = (   0.1250000   0.3750000   0.0000000), wk =   0.1250000
        k(   10) = (   0.1250000  -0.5000000   0.0000000), wk =   0.0625000
        k(   11) = (   0.2500000   0.0000000   0.0000000), wk =   0.0625000
        k(   12) = (   0.2500000   0.1250000   0.0000000), wk =   0.1250000
        k(   13) = (   0.2500000   0.2500000   0.0000000), wk =   0.1250000
        k(   14) = (   0.2500000   0.3750000   0.0000000), wk =   0.1250000
        k(   15) = (   0.2500000  -0.5000000   0.0000000), wk =   0.0625000
        k(   16) = (   0.3750000   0.0000000   0.0000000), wk =   0.0625000
        k(   17) = (   0.3750000   0.1250000   0.0000000), wk =   0.1250000
        k(   18) = (   0.3750000   0.2500000   0.0000000), wk =   0.1250000
        k(   19) = (   0.3750000   0.3750000   0.0000000), wk =   0.1250000
        k(   20) = (   0.3750000  -0.5000000   0.0000000), wk =   0.0625000
        k(   21) = (  -0.5000000   0.0000000   0.0000000), wk =   0.0312500
        k(   22) = (  -0.5000000   0.1250000   0.0000000), wk =   0.0625000
        k(   23) = (  -0.5000000   0.2500000   0.0000000), wk =   0.0625000
        k(   24) = (  -0.5000000   0.3750000   0.0000000), wk =   0.0625000
        k(   25) = (  -0.5000000  -0.5000000   0.0000000), wk =   0.0312500

     Dense  grid:   225221 G-vectors     FFT dimensions: (  48,  48, 216)

     Smooth grid:    56831 G-vectors     FFT dimensions: (  32,  30, 135)

     Dynamical RAM for                 wfc:       0.54 MB

     Dynamical RAM for     wfc (w. buffer):       4.34 MB

     Dynamical RAM for           str. fact:       1.72 MB

     Dynamical RAM for           local pot:       0.00 MB

     Dynamical RAM for          nlocal pot:       1.95 MB

     Dynamical RAM for                qrad:       2.78 MB

     Dynamical RAM for          rho,v,vnew:       5.43 MB

     Dynamical RAM for               rhoin:       1.81 MB

     Dynamical RAM for            rho*nmix:      13.75 MB

     Dynamical RAM for           G-vectors:       3.33 MB

     Dynamical RAM for          h,s,v(r/c):       0.07 MB

     Dynamical RAM for          <psi|beta>:       0.02 MB

     Dynamical RAM for                 psi:       1.09 MB

     Dynamical RAM for                hpsi:       1.09 MB

     Dynamical RAM for                spsi:       1.09 MB

     Dynamical RAM for      wfcinit/wfcrot:       1.43 MB

     Dynamical RAM for           addusdens:      41.02 MB

     Dynamical RAM for          addusforce:      41.25 MB

     Estimated static dynamical RAM per process >      28.68 MB

     Estimated max dynamical RAM per process >      83.68 MB

     Estimated total dynamical RAM >       1.15 GB

     Initial potential from superposition of free atoms

     starting charge      37.9998, renormalised to      40.0000

     negative rho (up, down):  2.022E-03 0.000E+00
     Starting wfcs are   26 randomized atomic wfcs

     total cpu time spent up to now is        0.9 secs

     Self-consistent Calculation

     iteration #  1     ecut=    30.00 Ry     beta= 0.70
     Davidson diagonalization with overlap

---- Real-time Memory Report at c_bands before calling an iterative solver
           184 MiB given to the printing process from OS
             0 MiB allocation reported by mallinfo(arena+hblkhd)
         55800 MiB available memory on the node where the printing process lives
------------------
     ethr =  1.00E-02,  avg # of iterations =  2.0

     negative rho (up, down):  1.469E-03 0.000E+00

     total cpu time spent up to now is        1.9 secs

     total energy              =    -413.21384832 Ry
     estimated scf accuracy    <       1.37132540 Ry

     iteration #  2     ecut=    30.00 Ry     beta= 0.70
     Davidson diagonalization with overlap

---- Real-time Memory Report at c_bands before calling an iterative solver
           213 MiB given to the printing process from OS
             0 MiB allocation reported by mallinfo(arena+hblkhd)
         55039 MiB available memory on the node where the printing process lives
------------------
     ethr =  3.43E-03,  avg # of iterations =  3.0

     negative rho (up, down):  1.536E-03 0.000E+00

     total cpu time spent up to now is        2.9 secs

     total energy              =    -413.67453688 Ry
     estimated scf accuracy    <       0.58468808 Ry

     iteration #  3     ecut=    30.00 Ry     beta= 0.70
     Davidson diagonalization with overlap

---- Real-time Memory Report at c_bands before calling an iterative solver
           223 MiB given to the printing process from OS
             0 MiB allocation reported by mallinfo(arena+hblkhd)
         54969 MiB available memory on the node where the printing process lives
------------------
     ethr =  1.46E-03,  avg # of iterations =  2.0

     negative rho (up, down):  1.536E-03 0.000E+00

     total cpu time spent up to now is        3.9 secs

     total energy              =    -413.79039217 Ry
     estimated scf accuracy    <       0.00966067 Ry

     iteration #  4     ecut=    30.00 Ry     beta= 0.70
     Davidson diagonalization with overlap

---- Real-time Memory Report at c_bands before calling an iterative solver
           227 MiB given to the printing process from OS
             0 MiB allocation reported by mallinfo(arena+hblkhd)
         54965 MiB available memory on the node where the printing process lives
------------------
     ethr =  2.42E-05,  avg # of iterations =  5.0

     negative rho (up, down):  1.541E-03 0.000E+00

     total cpu time spent up to now is        4.8 secs

     total energy              =    -413.79593016 Ry
     estimated scf accuracy    <       0.00905128 Ry

     iteration #  5     ecut=    30.00 Ry     beta= 0.70
     Davidson diagonalization with overlap

---- Real-time Memory Report at c_bands before calling an iterative solver
           229 MiB given to the printing process from OS
             0 MiB allocation reported by mallinfo(arena+hblkhd)
         54958 MiB available memory on the node where the printing process lives
------------------
     ethr =  2.26E-05,  avg # of iterations =  2.0

     negative rho (up, down):  1.565E-03 0.000E+00

     total cpu time spent up to now is        5.6 secs

     total energy              =    -413.79653694 Ry
     estimated scf accuracy    <       0.00097946 Ry

     iteration #  6     ecut=    30.00 Ry     beta= 0.70
     Davidson diagonalization with overlap

---- Real-time Memory Report at c_bands before calling an iterative solver
           232 MiB given to the printing process from OS
             0 MiB allocation reported by mallinfo(arena+hblkhd)
         54955 MiB available memory on the node where the printing process lives
------------------
     ethr =  2.45E-06,  avg # of iterations =  4.5

     negative rho (up, down):  1.564E-03 0.000E+00

     total cpu time spent up to now is        6.5 secs

     total energy              =    -413.79692360 Ry
     estimated scf accuracy    <       0.00117835 Ry

     iteration #  7     ecut=    30.00 Ry     beta= 0.70
     Davidson diagonalization with overlap

---- Real-time Memory Report at c_bands before calling an iterative solver
           234 MiB given to the printing process from OS
             0 MiB allocation reported by mallinfo(arena+hblkhd)
         54952 MiB available memory on the node where the printing process lives
------------------
     ethr =  2.45E-06,  avg # of iterations =  2.0

     negative rho (up, down):  1.561E-03 0.000E+00

     total cpu time spent up to now is        7.3 secs

     total energy              =    -413.79705575 Ry
     estimated scf accuracy    <       0.00005216 Ry

     iteration #  8     ecut=    30.00 Ry     beta= 0.70
     Davidson diagonalization with overlap

---- Real-time Memory Report at c_bands before calling an iterative solver
           236 MiB given to the printing process from OS
             0 MiB allocation reported by mallinfo(arena+hblkhd)
         54949 MiB available memory on the node where the printing process lives
------------------
     ethr =  1.30E-07,  avg # of iterations =  4.6

     negative rho (up, down):  1.561E-03 0.000E+00

     total cpu time spent up to now is        8.2 secs

     total energy              =    -413.79708871 Ry
     estimated scf accuracy    <       0.00002351 Ry

     iteration #  9     ecut=    30.00 Ry     beta= 0.70
     Davidson diagonalization with overlap

---- Real-time Memory Report at c_bands before calling an iterative solver
           238 MiB given to the printing process from OS
             0 MiB allocation reported by mallinfo(arena+hblkhd)
         54948 MiB available memory on the node where the printing process lives
------------------
     ethr =  5.88E-08,  avg # of iterations =  2.1

     negative rho (up, down):  1.561E-03 0.000E+00

     total cpu time spent up to now is        9.1 secs

     total energy              =    -413.79709101 Ry
     estimated scf accuracy    <       0.00000211 Ry

     iteration # 10     ecut=    30.00 Ry     beta= 0.70
     Davidson diagonalization with overlap

---- Real-time Memory Report at c_bands before calling an iterative solver
           239 MiB given to the printing process from OS
             0 MiB allocation reported by mallinfo(arena+hblkhd)
         54945 MiB available memory on the node where the printing process lives
------------------
     ethr =  5.27E-09,  avg # of iterations =  4.0

     negative rho (up, down):  1.561E-03 0.000E+00

     total cpu time spent up to now is       10.0 secs

     total energy              =    -413.79709182 Ry
     estimated scf accuracy    <       0.00000011 Ry

     iteration # 11     ecut=    30.00 Ry     beta= 0.70
     Davidson diagonalization with overlap

---- Real-time Memory Report at c_bands before calling an iterative solver
           240 MiB given to the printing process from OS
             0 MiB allocation reported by mallinfo(arena+hblkhd)
         54943 MiB available memory on the node where the printing process lives
------------------
     ethr =  2.74E-10,  avg # of iterations =  4.0

     negative rho (up, down):  1.561E-03 0.000E+00

     total cpu time spent up to now is       10.9 secs

     total energy              =    -413.79709188 Ry
     estimated scf accuracy    <       0.00000005 Ry

     iteration # 12     ecut=    30.00 Ry     beta= 0.70
     Davidson diagonalization with overlap

---- Real-time Memory Report at c_bands before calling an iterative solver
           241 MiB given to the printing process from OS
             0 MiB allocation reported by mallinfo(arena+hblkhd)
         54944 MiB available memory on the node where the printing process lives
------------------
     ethr =  1.23E-10,  avg # of iterations =  2.0

     negative rho (up, down):  1.561E-03 0.000E+00

     total cpu time spent up to now is       11.7 secs

     End of self-consistent calculation

          k = 0.0000 0.0000 0.0000 (  7147 PWs)   bands (ev):

   -22.2273 -22.2165 -22.2146 -22.2093 -22.2032 -22.1824 -22.1790 -22.1728
   -22.1695 -22.1604 -14.2645 -13.2632  -7.2871  -6.1955  -4.4557  -4.1623
    -3.7011  -2.8762  -2.5826  -1.5188

     occupation numbers 
     1.0000   1.0000   1.0000   1.0000   1.0000   1.0000   1.0000   1.0000
     1.0000   1.0000   1.0000   1.0000   1.0000   1.0000   1.0000   1.0000
     1.0000   1.0000   1.0000   1.0000

          k = 0.0000 0.1365 0.0000 (  7097 PWs)   bands (ev):

   -22.2250 -22.2160 -22.2145 -22.2108 -22.2018 -22.1828 -22.1793 -22.1718
   -22.1706 -22.1603 -14.1911 -13.2434  -7.4483  -6.4252  -4.4077  -4.0750
    -3.6445  -2.8617  -2.3596  -1.5631

     occupation numbers 
     1.0000   1.0000   1.0000   1.0000   1.0000   1.0000   1.0000   1.0000
     1.0000   1.0000   1.0000   1.0000   1.0000   1.0000   1.0000   1.0000
     1.0000   1.0000   1.0000   1.0000

          k = 0.0000 0.2730 0.0000 (  7132 PWs)   bands (ev):

   -22.2213 -22.2194 -22.2123 -22.2100 -22.1988 -22.1844 -22.1799 -22.1734
   -22.1692 -22.1604 -13.9863 -13.2137  -7.8052  -6.9931  -4.1920  -3.8252
    -3.4101  -2.7500  -1.8845  -1.7343

     occupation numbers 
     1.0000   1.0000   1.0000   1.0000   1.0000   1.0000   1.0000   1.0000
     1.0000   1.0000   1.0000   1.0000   1.0000   1.0000   1.0000   1.0000
     1.0000   1.0000   1.0000   1.0000

          k = 0.0000 0.4095 0.0000 (  7126 PWs)   bands (ev):

   -22.2226 -22.2223 -22.2087 -22.2061 -22.1950 -22.1871 -22.1798 -22.1764
   -22.1659 -22.1611 -13.7006 -13.2518  -8.0717  -7.6099  -3.8043  -3.4581
    -3.0971  -2.6894  -1.9024  -1.3873

     occupation numbers 
     1.0000   1.0000   1.0000   1.0000   1.0000   1.0000   1.0000   1.0000
     1.0000   1.0000   1.0000   1.0000   1.0000   1.0000   1.0000   1.0000
     1.0000   1.0000   1.0000   1.0000

          k = 0.0000-0.5460 0.0000 (  7142 PWs)   bands (ev):

   -22.2237 -22.2237 -22.2056 -22.2056 -22.1909 -22.1909 -22.1787 -22.1787
   -22.1628 -22.1628 -13.4231 -13.4231  -8.0177  -8.0177  -3.3916  -3.3916
    -2.8867  -2.8867  -1.5854  -1.5854

     occupation numbers 
     1.0000   1.0000   1.0000   1.0000   1.0000   1.0000   1.0000   1.0000
     1.0000   1.0000   1.0000   1.0000   1.0000   1.0000   1.0000   1.0000
     1.0000   1.0000   1.0000   1.0000

          k = 0.1250 0.0000 0.0000 (  7131 PWs)   bands (ev):

   -22.2267 -22.2166 -22.2149 -22.2100 -22.2015 -22.1824 -22.1786 -22.1725
   -22.1698 -22.1610 -14.2077 -13.2670  -7.5060  -6.4965  -4.3994  -3.8769
    -3.6092  -2.5330  -2.4964  -1.6065

     occupation numbers 
     1.0000   1.0000   1.0000   1.0000   1.0000   1.0000   1.0000   1.0000
     1.0000   1.0000   1.0000   1.0000   1.0000   1.0000   1.0000   1.0000
     1.0000   1.0000   1.0000   1.0000

          k = 0.1250 0.1365 0.0000 (  7110 PWs)   bands (ev):

   -22.2246 -22.2167 -22.2144 -22.2115 -22.2001 -22.1828 -22.1790 -22.1714
   -22.1709 -22.1609 -14.1357 -13.2458  -7.5859  -6.6393  -4.3373  -4.2769
    -3.1673  -3.0157  -1.9407  -1.6091

     occupation numbers 
     1.0000   1.0000   1.0000   1.0000   1.0000   1.0000   1.0000   1.0000
     1.0000   1.0000   1.0000   1.0000   1.0000   1.0000   1.0000   1.0000
     1.0000   1.0000   1.0000   1.0000

          k = 0.1250 0.2730 0.0000 (  7117 PWs)   bands (ev):

   -22.2218 -22.2202 -22.2125 -22.2098 -22.1973 -22.1843 -22.1798 -22.1737
   -22.1688 -22.1608 -13.9357 -13.2114  -7.8052  -7.0536  -4.4519  -4.1400
    -3.1576  -2.7980  -1.7125  -1.6248

     occupation numbers 
     1.0000   1.0000   1.0000   1.0000   1.0000   1.0000   1.0000   1.0000
     1.0000   1.0000   1.0000   1.0000   1.0000   1.0000   1.0000   1.0000
     1.0000   1.0000   1.0000   1.0000

          k = 0.1250 0.4095 0.0000 (  7143 PWs)   bands (ev):

   -22.2237 -22.2236 -22.2084 -22.2059 -22.1939 -22.1870 -22.1798 -22.1765
   -22.1656 -22.1612 -13.6594 -13.2394  -8.0000  -7.5735  -4.2006  -3.8032
    -3.1181  -2.8247  -1.9460  -1.6035

     occupation numbers 
     1.0000   1.0000   1.0000   1.0000   1.0000   1.0000   1.0000   1.0000
     1.0000   1.0000   1.0000   1.0000   1.0000   1.0000   1.0000   1.0000
     1.0000   1.0000   1.0000   1.0000

          k = 0.1250-0.5460 0.0000 (  7144 PWs)   bands (ev):

   -22.2250 -22.2250 -22.2053 -22.2053 -22.1903 -22.1903 -22.1786 -22.1786
   -22.1627 -22.1627 -13.3960 -13.3960  -7.9404  -7.9404  -3.7191  -3.7191
    -3.1580  -3.1580  -1.8039  -1.8039

     occupation numbers 
     1.0000   1.0000   1.0000   1.0000   1.0000   1.0000   1.0000   1.0000
     1.0000   1.0000   1.0000   1.0000   1.0000   1.0000   1.0000   1.0000
     1.0000   1.0000   1.0000   1.0000

          k = 0.2500 0.0000 0.0000 (  7099 PWs)   bands (ev):

   -22.2250 -22.2170 -22.2157 -22.2119 -22.1969 -22.1826 -22.1774 -22.1715
   -22.1706 -22.1628 -14.0482 -13.2968  -7.9067  -7.1216  -4.1800  -3.3482
    -3.2924  -2.4272  -1.8298  -1.6917

     occupation numbers 
     1.0000   1.0000   1.0000   1.0000   1.0000   1.0000   1.0000   1.0000
     1.0000   1.0000   1.0000   1.0000   1.0000   1.0000   1.0000   1.0000
     1.0000   1.0000   1.0000   1.0000

          k = 0.2500 0.1365 0.0000 (  7108 PWs)   bands (ev):

   -22.2234 -22.2180 -22.2144 -22.2133 -22.1959 -22.1830 -22.1782 -22.1718
   -22.1704 -22.1623 -13.9807 -13.2711  -7.8737  -7.1383  -4.2456  -4.1163
    -3.0365  -2.6737  -1.6100  -1.4966

     occupation numbers 
     1.0000   1.0000   1.0000   1.0000   1.0000   1.0000   1.0000   1.0000
     1.0000   1.0000   1.0000   1.0000   1.0000   1.0000   1.0000   1.0000
     1.0000   1.0000   1.0000   1.0000

          k = 0.2500 0.2730 0.0000 (  7130 PWs)   bands (ev):

   -22.2232 -22.2222 -22.2125 -22.2097 -22.1936 -22.1844 -22.1793 -22.1743
   -22.1678 -22.1617 -13.7959 -13.2208  -7.8222  -7.2459  -4.8955  -4.0052
    -3.5627  -2.6211  -2.1308  -1.3625

     occupation numbers 
     1.0000   1.0000   1.0000   1.0000   1.0000   1.0000   1.0000   1.0000
     1.0000   1.0000   1.0000   1.0000   1.0000   1.0000   1.0000   1.0000
     1.0000   1.0000   1.0000   1.0000

          k = 0.2500 0.4095 0.0000 (  7137 PWs)   bands (ev):

   -22.2265 -22.2264 -22.2078 -22.2056 -22.1913 -22.1867 -22.1793 -22.1765
   -22.1648 -22.1615 -13.5489 -13.2171  -7.8096  -7.4917  -4.9679  -3.9161
    -3.7931  -2.9375  -2.6918  -1.8112

     occupation numbers 
     1.0000   1.0000   1.0000   1.0000   1.0000   1.0000   1.0000   1.0000
     1.0000   1.0000   1.0000   1.0000   1.0000   1.0000   1.0000   1.0000
     1.0000   1.0000   1.0000   1.0000

          k = 0.2500-0.5460 0.0000 (  7148 PWs)   bands (ev):

   -22.2281 -22.2281 -22.2049 -22.2049 -22.1890 -22.1890 -22.1782 -22.1782
   -22.1625 -22.1625 -13.3286 -13.3286  -7.7275  -7.7275  -4.5018  -4.5018
    -3.4555  -3.4555  -2.4047  -2.4047

     occupation numbers 
     1.0000   1.0000   1.0000   1.0000   1.0000   1.0000   1.0000   1.0000
     1.0000   1.0000   1.0000   1.0000   1.0000   1.0000   1.0000   1.0000
     1.0000   1.0000   1.0000   1.0000

          k = 0.3750 0.0000 0.0000 (  7097 PWs)   bands (ev):

   -22.2226 -22.2181 -22.2162 -22.2142 -22.1915 -22.1839 -22.1757 -22.1720
   -22.1699 -22.1651 -13.8195 -13.3941  -8.1530  -7.7157  -3.8065  -3.0088
    -2.9719  -2.4005  -1.7878  -0.9199

     occupation numbers 
     1.0000   1.0000   1.0000   1.0000   1.0000   1.0000   1.0000   1.0000
     1.0000   1.0000   1.0000   1.0000   1.0000   1.0000   1.0000   1.0000
     1.0000   1.0000   1.0000   1.0000

          k = 0.3750 0.1365 0.0000 (  7094 PWs)   bands (ev):

   -22.2218 -22.2194 -22.2149 -22.2148 -22.1908 -22.1841 -22.1767 -22.1732
   -22.1687 -22.1644 -13.7604 -13.3592  -8.0661  -7.6572  -3.9248  -3.7605
    -3.0566  -2.8053  -1.4689  -1.3392

     occupation numbers 
     1.0000   1.0000   1.0000   1.0000   1.0000   1.0000   1.0000   1.0000
     1.0000   1.0000   1.0000   1.0000   1.0000   1.0000   1.0000   1.0000
     1.0000   1.0000   1.0000   1.0000

          k = 0.3750 0.2730 0.0000 (  7110 PWs)   bands (ev):

   -22.2246 -22.2242 -22.2118 -22.2100 -22.1897 -22.1851 -22.1781 -22.1752
   -22.1663 -22.1630 -13.6030 -13.2793  -7.8380  -7.5242  -4.8755  -3.9865
    -3.6892  -2.9040  -2.4895  -1.7133

     occupation numbers 
     1.0000   1.0000   1.0000   1.0000   1.0000   1.0000   1.0000   1.0000
     1.0000   1.0000   1.0000   1.0000   1.0000   1.0000   1.0000   1.0000
     1.0000   1.0000   1.0000   1.0000

          k = 0.3750 0.4095 0.0000 (  7117 PWs)   bands (ev):

   -22.2292 -22.2291 -22.2070 -22.2057 -22.1887 -22.1866 -22.1783 -22.1766
   -22.1638 -22.1620 -13.4068 -13.2210  -7.5882  -7.4330  -5.3310  -4.5457
    -4.0556  -3.3795  -2.8060  -2.2809

     occupation numbers 
     1.0000   1.0000   1.0000   1.0000   1.0000   1.0000   1.0000   1.0000
     1.0000   1.0000   1.0000   1.0000   1.0000   1.0000   1.0000   1.0000
     1.0000   1.0000   1.0000   1.0000

          k = 0.3750-0.5460 0.0000 (  7100 PWs)   bands (ev):

   -22.2312 -22.2312 -22.2045 -22.2045 -22.1878 -22.1878 -22.1776 -22.1776
   -22.1622 -22.1622 -13.2584 -13.2584  -7.4561  -7.4561  -5.1120  -5.1120
    -3.9813  -3.9813  -2.5894  -2.5894

     occupation numbers 
     1.0000   1.0000   1.0000   1.0000   1.0000   1.0000   1.0000   1.0000
     1.0000   1.0000   1.0000   1.0000   1.0000   1.0000   1.0000   1.0000
     1.0000   1.0000   1.0000   1.0000

          k =-0.5000 0.0000 0.0000 (  7068 PWs)   bands (ev):

   -22.2201 -22.2201 -22.2158 -22.2158 -22.1868 -22.1868 -22.1738 -22.1738
   -22.1677 -22.1677 -13.5795 -13.5795  -8.0909  -8.0909  -3.3485  -3.3485
    -2.5985  -2.5985  -1.1552  -1.1552

     occupation numbers 
     1.0000   1.0000   1.0000   1.0000   1.0000   1.0000   1.0000   1.0000
     1.0000   1.0000   1.0000   1.0000   1.0000   1.0000   1.0000   1.0000
     1.0000   1.0000   1.0000   1.0000

          k =-0.5000 0.1365 0.0000 (  7070 PWs)   bands (ev):

   -22.2205 -22.2205 -22.2153 -22.2153 -22.1867 -22.1867 -22.1749 -22.1749
   -22.1666 -22.1666 -13.5323 -13.5323  -7.9998  -7.9998  -3.5148  -3.5148
    -3.1889  -3.1889  -1.3496  -1.3496

     occupation numbers 
     1.0000   1.0000   1.0000   1.0000   1.0000   1.0000   1.0000   1.0000
     1.0000   1.0000   1.0000   1.0000   1.0000   1.0000   1.0000   1.0000
     1.0000   1.0000   1.0000   1.0000

          k =-0.5000 0.2730 0.0000 (  7094 PWs)   bands (ev):

   -22.2252 -22.2252 -22.2108 -22.2108 -22.1867 -22.1867 -22.1766 -22.1766
   -22.1646 -22.1646 -13.4128 -13.4128  -7.7526  -7.7526  -4.4822  -4.4822
    -3.3332  -3.3332  -2.2525  -2.2525

     occupation numbers 
     1.0000   1.0000   1.0000   1.0000   1.0000   1.0000   1.0000   1.0000
     1.0000   1.0000   1.0000   1.0000   1.0000   1.0000   1.0000   1.0000
     1.0000   1.0000   1.0000   1.0000

          k =-0.5000 0.4095 0.0000 (  7106 PWs)   bands (ev):

   -22.2303 -22.2303 -22.2062 -22.2062 -22.1872 -22.1872 -22.1772 -22.1772
   -22.1629 -22.1629 -13.2845 -13.2845  -7.4545  -7.4545  -5.1551  -5.1551
    -3.8650  -3.8650  -2.5960  -2.5960

     occupation numbers 
     1.0000   1.0000   1.0000   1.0000   1.0000   1.0000   1.0000   1.0000
     1.0000   1.0000   1.0000   1.0000   1.0000   1.0000   1.0000   1.0000
     1.0000   1.0000   1.0000   1.0000

          k =-0.5000-0.5460 0.0000 (  7068 PWs)   bands (ev):

   -22.2324 -22.2324 -22.2044 -22.2044 -22.1874 -22.1874 -22.1772 -22.1772
   -22.1621 -22.1621 -13.2284 -13.2284  -7.3136  -7.3136  -5.3456  -5.3456
    -4.2409  -4.2409  -2.6027  -2.6027

     occupation numbers 
     1.0000   1.0000   1.0000   1.0000   1.0000   1.0000   1.0000   1.0000
     1.0000   1.0000   1.0000   1.0000   1.0000   1.0000   1.0000   1.0000
     1.0000   1.0000   1.0000   1.0000

     highest occupied level (ev):    -0.9199

!    total energy              =    -413.79709188 Ry
     estimated scf accuracy    <          7.6E-09 Ry

     The total energy is the sum of the following terms:
     one-electron contribution =   -1177.49013340 Ry
     hartree contribution      =     600.88183454 Ry
     xc contribution           =    -154.41508479 Ry
     ewald contribution        =     317.22629178 Ry

     convergence has been achieved in  12 iterations

     negative rho (up, down):  1.561E-03 0.000E+00

     Forces acting on atoms (cartesian axes, Ry/au):

     atom    1 type  1   force =     0.00004124    0.00000000    0.00014043
     atom    2 type  2   force =    -0.00004124    0.00000000    0.00048063
     atom    3 type  2   force =    -0.00004124    0.00000000   -0.00048063
     atom    4 type  1   force =     0.00004124    0.00000000   -0.00014043
     The non-local contrib.  to forces
     atom    1 type  1   force =     0.24651741    0.00000000    0.44501157
     atom    2 type  2   force =    -0.07978943    0.00000000    0.19454772
     atom    3 type  2   force =    -0.07978943    0.00000000   -0.19454772
     atom    4 type  1   force =     0.24651741    0.00000000   -0.44501157
     The ionic contribution  to forces
     atom    1 type  1   force =    -1.27654529   -0.00000000  -37.32936663
     atom    2 type  2   force =     1.27654529   -0.00000000  -16.68508416
     atom    3 type  2   force =     1.27654529    0.00000000   16.68508416
     atom    4 type  1   force =    -1.27654529   -0.00000000   37.32936663
     The local contribution  to forces
     atom    1 type  1   force =     1.03374593   -0.00000000   36.89208329
     atom    2 type  2   force =    -1.20560793    0.00000000   16.51327645
     atom    3 type  2   force =    -1.20560793   -0.00000000  -16.51327646
     atom    4 type  1   force =     1.03374593    0.00000000  -36.89208329
     The core correction contribution to forces
     atom    1 type  1   force =    -0.00371087    0.00000000   -0.00770179
     atom    2 type  2   force =     0.00880473    0.00000000   -0.02224913
     atom    3 type  2   force =     0.00880473    0.00000000    0.02224913
     atom    4 type  1   force =    -0.00371087   -0.00000000    0.00770179
     The Hubbard contrib.    to forces
     atom    1 type  1   force =     0.00000000    0.00000000    0.00000000
     atom    2 type  2   force =     0.00000000    0.00000000    0.00000000
     atom    3 type  2   force =     0.00000000    0.00000000    0.00000000
     atom    4 type  1   force =     0.00000000    0.00000000    0.00000000
     The SCF correction term to forces
     atom    1 type  1   force =     0.00003541    0.00000000    0.00011400
     atom    2 type  2   force =     0.00000744   -0.00000000   -0.00001025
     atom    3 type  2   force =     0.00000744    0.00000000    0.00001025
     atom    4 type  1   force =     0.00003541    0.00000000   -0.00011400

     Total force =     0.000713     Total SCF correction =     0.000170
     SCF correction compared to forces is large: reduce conv_thr to get better values

     Writing all to output data dir ./tmp/SnSe_monolayer.save/ :
     XML data file, charge density, pseudopotentials, collected wavefunctions
 
     init_run     :      0.59s CPU      0.70s WALL (       1 calls)
     electrons    :      9.82s CPU     10.87s WALL (       1 calls)
     forces       :      0.30s CPU      0.35s WALL (       1 calls)

     Called by init_run:
     wfcinit      :      0.19s CPU      0.20s WALL (       1 calls)
     wfcinit:atom :      0.00s CPU      0.00s WALL (       7 calls)
     wfcinit:wfcr :      0.15s CPU      0.16s WALL (       7 calls)
     potinit      :      0.09s CPU      0.11s WALL (       1 calls)
     hinit0       :      0.11s CPU      0.12s WALL (       1 calls)

     Called by electrons:
     c_bands      :      5.15s CPU      5.30s WALL (      12 calls)
     sum_band     :      2.27s CPU      2.84s WALL (      12 calls)
     v_of_rho     :      0.92s CPU      0.95s WALL (      13 calls)
     v_h          :      0.07s CPU      0.07s WALL (      13 calls)
     v_xc         :      0.90s CPU      0.94s WALL (      14 calls)
     newd         :      1.44s CPU      1.75s WALL (      13 calls)
     mix_rho      :      0.10s CPU      0.11s WALL (      12 calls)

     Called by c_bands:
     init_us_2    :      0.22s CPU      0.24s WALL (     182 calls)
     cegterg      :      4.24s CPU      4.34s WALL (      84 calls)

     Called by sum_band:
     sum_band:wei :      0.00s CPU      0.00s WALL (      12 calls)
     sum_band:loo :      0.86s CPU      0.87s WALL (      12 calls)
     sum_band:buf :      0.01s CPU      0.01s WALL (      84 calls)
     sum_band:ini :      0.10s CPU      0.10s WALL (      84 calls)
     sum_band:cal :      0.07s CPU      0.07s WALL (      84 calls)
     sum_band:bec :      0.00s CPU      0.00s WALL (      84 calls)
     addusdens    :      1.11s CPU      1.63s WALL (      12 calls)
                                        0.00s GPU  (      12 calls)
     addusd:skk   :      0.00s CPU      0.00s WALL (      24 calls)
                                        0.00s GPU  (      24 calls)

     Called by *egterg:
     cdiaghg      :      0.16s CPU      0.17s WALL (     346 calls)
     cegterg:over :      0.18s CPU      0.18s WALL (     262 calls)
     cegterg:upda :      0.08s CPU      0.08s WALL (     262 calls)
     cegterg:last :      0.17s CPU      0.18s WALL (     200 calls)
     h_psi        :      3.43s CPU      3.51s WALL (     353 calls)
     s_psi        :      0.22s CPU      0.22s WALL (     353 calls)
     g_psi        :      0.01s CPU      0.01s WALL (     262 calls)

     Called by h_psi:
     h_psi:calbec :      0.24s CPU      0.24s WALL (     353 calls)
     vloc_psi     :      2.91s CPU      2.98s WALL (     353 calls)
     add_vuspsi   :      0.25s CPU      0.25s WALL (     353 calls)

     General routines
     calbec       :      0.38s CPU      0.38s WALL (     465 calls)
     fft          :      0.47s CPU      0.50s WALL (     178 calls)
     ffts         :      0.01s CPU      0.01s WALL (      25 calls)
     fftw         :      2.22s CPU      2.27s WALL (   11454 calls)
     interpolate  :      0.05s CPU      0.05s WALL (      13 calls)
 
     Parallel routines
 
     PWSCF        :     10.91s CPU     12.44s WALL

 
   This run was terminated on:  21: 2:45  24May2026            

=------------------------------------------------------------------------------=
   JOB DONE.
=------------------------------------------------------------------------------=
