
     Program PWSCF v.7.3.1 starts on 24May2026 at 21: 2: 1 

     This program is part of the open-source Quantum ESPRESSO suite
     for quantum simulation of materials; please cite
         "P. Giannozzi et al., J. Phys.:Condens. Matter 21 395502 (2009);
         "P. Giannozzi et al., J. Phys.:Condens. Matter 29 465901 (2017);
         "P. Giannozzi et al., J. Chem. Phys. 152 154105 (2020);
          URL http://www.quantum-espresso.org", 
     in publications or presentations arising from this work. More details at
     http://www.quantum-espresso.org/quote

     Parallel version (MPI & OpenMP), running on      16 processor cores
     Number of MPI processes:                16
     Threads/MPI process:                     1

     MPI processes distributed on     1 nodes
     56959 MiB available memory on the printing compute node when the environment starts
 
     Waiting for input...
     Reading input from standard input

     Current dimensions of program PWSCF are:
     Max number of different atomic species (ntypx) = 10
     Max number of k-points (npk) =  40000
     Max angular momentum in pseudopotentials (lmaxx) =  4
     Message from routine setup:
     using ibrav=0 with symmetry is DISCOURAGED, use correct ibrav instead
 
     K-points division:     npool     =       4
     R & G space division:  proc/nbgrp/npool/nimage =       4
     Subspace diagonalization in iterative solution of the eigenvalue problem:
     a serial algorithm will be used

 
     Parallelization info
     --------------------
     sticks:   dense  smooth     PW     G-vecs:    dense   smooth      PW
     Min         407     160     49                42217    10653    1768
     Max         408     161     51                42222    10662    1771
     Sum        1629     641    199               168877    42639    7077
 
     Using Slab Decomposition
 


     bravais-lattice index     =            0
     lattice parameter (alat)  =       8.6086  a.u.
     unit-cell volume          =    1923.5600 (a.u.)^3
     number of atoms/cell      =            4
     number of atomic types    =            2
     number of electrons       =        40.00
     number of Kohn-Sham states=           20
     kinetic-energy cutoff     =      30.0000  Ry
     charge density cutoff     =     300.0000  Ry
     scf convergence threshold =      1.0E-08
     mixing beta               =       0.7000
     number of iterations used =            8  plain     mixing
     Exchange-correlation= SLA  PW   PBE  PBE
                           (   1   4   3   4   0   0   0)

     celldm(1)=   8.608647  celldm(2)=   0.000000  celldm(3)=   0.000000
     celldm(4)=   0.000000  celldm(5)=   0.000000  celldm(6)=   0.000000

     crystal axes: (cart. coord. in units of alat)
               a(1) = (   1.000000   0.000000   0.000000 )  
               a(2) = (   0.000000   0.915684   0.000000 )  
               a(3) = (   0.000000   0.000000   3.292723 )  

     reciprocal axes: (cart. coord. in units 2 pi/alat)
               b(1) = (  1.000000  0.000000  0.000000 )  
               b(2) = (  0.000000  1.092079  0.000000 )  
               b(3) = (  0.000000  0.000000  0.303700 )  


     PseudoPot. # 1 for Sn read from file:
     ../pseudo/Sn_pbe_v1.uspp.F.UPF
     MD5 check sum: 4cf58ce39ec5d5d420df3dd08604eb00
     Pseudo is Ultrasoft + core correction, Zval = 14.0
     Generated by new atomic code, or converted to UPF format
     Using radial grid of  891 points,  6 beta functions with: 
                l(1) =   0
                l(2) =   0
                l(3) =   1
                l(4) =   1
                l(5) =   2
                l(6) =   2
     Q(r) pseudized with  6 coefficients,  rinner =    1.200   1.200   1.200
                                                       1.200   1.200

     PseudoPot. # 2 for Se read from file:
     ../pseudo/Se_pbe_v1.uspp.F.UPF
     MD5 check sum: 1b3568f3a8ae88f9a2a0ad0698632c85
     Pseudo is Ultrasoft + core correction, Zval =  6.0
     Generated by new atomic code, or converted to UPF format
     Using radial grid of  877 points,  6 beta functions with: 
                l(1) =   0
                l(2) =   0
                l(3) =   1
                l(4) =   1
                l(5) =   2
                l(6) =   2
     Q(r) pseudized with  8 coefficients,  rinner =    1.300   1.300   1.300
                                                       1.300   1.300

     atomic species   valence    mass     pseudopotential
     Sn               14.00   118.71000     Sn( 1.00)
     Se                6.00    78.97100     Se( 1.00)

      4 Sym. Ops. (no inversion) found ( 3 have fractional translation)


                                    s                        frac. trans.

      isym =  1     identity                                     

 cryst.   s( 1) = (     1          0          0      )
                  (     0          1          0      )
                  (     0          0          1      )

 cart.    s( 1) = (  1.0000000  0.0000000  0.0000000 )
                  (  0.0000000  1.0000000  0.0000000 )
                  (  0.0000000  0.0000000  1.0000000 )


      isym =  2     180 deg rotation - cart. axis [1,0,0]        

 cryst.   s( 2) = (     1          0          0      )    f =( -0.5000000 )
                  (     0         -1          0      )       (  0.0000000 )
                  (     0          0         -1      )       (  0.0000000 )

 cart.    s( 2) = (  1.0000000  0.0000000  0.0000000 )    f =( -0.5000000 )
                  (  0.0000000 -1.0000000  0.0000000 )       (  0.0000000 )
                  (  0.0000000  0.0000000 -1.0000000 )       (  0.0000000 )


      isym =  3     inv. 180 deg rotation - cart. axis [0,0,1]   

 cryst.   s( 3) = (     1          0          0      )    f =( -0.5000000 )
                  (     0          1          0      )       (  0.5000000 )
                  (     0          0         -1      )       (  0.0000000 )

 cart.    s( 3) = (  1.0000000  0.0000000  0.0000000 )    f =( -0.5000000 )
                  (  0.0000000  1.0000000  0.0000000 )       (  0.4578422 )
                  (  0.0000000  0.0000000 -1.0000000 )       (  0.0000000 )


      isym =  4     inv. 180 deg rotation - cart. axis [0,1,0]   

 cryst.   s( 4) = (     1          0          0      )    f =(  0.0000000 )
                  (     0         -1          0      )       (  0.5000000 )
                  (     0          0          1      )       (  0.0000000 )

 cart.    s( 4) = (  1.0000000  0.0000000  0.0000000 )    f =(  0.0000000 )
                  (  0.0000000 -1.0000000  0.0000000 )       (  0.4578422 )
                  (  0.0000000  0.0000000  1.0000000 )       (  0.0000000 )


   Cartesian axes

     site n.     atom                  positions (alat units)
         1        Sn     tau(   1) = (   0.0995059   0.6867633   1.3411356  )
         2        Se     tau(   2) = (   0.5295331   0.2289211   1.3553377  )
         3        Se     tau(   3) = (   0.0295331   0.6867633   1.9373854  )
         4        Sn     tau(   4) = (   0.5995059   0.2289211   1.9515874  )

   Crystallographic axes

     site n.     atom                  positions (cryst. coord.)
         1        Sn     tau(   1) = (  0.0995059  0.7500000  0.4073029  )
         2        Se     tau(   2) = (  0.5295331  0.2500000  0.4116161  )
         3        Se     tau(   3) = (  0.0295331  0.7500000  0.5883839  )
         4        Sn     tau(   4) = (  0.5995059  0.2500000  0.5926971  )

     number of k points=    25
                       cart. coord. in units 2pi/alat
        k(    1) = (   0.0000000   0.0000000   0.0000000), wk =   0.0312500
        k(    2) = (   0.0000000   0.1365099   0.0000000), wk =   0.0625000
        k(    3) = (   0.0000000   0.2730198   0.0000000), wk =   0.0625000
        k(    4) = (   0.0000000   0.4095298   0.0000000), wk =   0.0625000
        k(    5) = (   0.0000000  -0.5460397   0.0000000), wk =   0.0312500
        k(    6) = (   0.1250000   0.0000000   0.0000000), wk =   0.0625000
        k(    7) = (   0.1250000   0.1365099   0.0000000), wk =   0.1250000
        k(    8) = (   0.1250000   0.2730198   0.0000000), wk =   0.1250000
        k(    9) = (   0.1250000   0.4095298   0.0000000), wk =   0.1250000
        k(   10) = (   0.1250000  -0.5460397   0.0000000), wk =   0.0625000
        k(   11) = (   0.2500000   0.0000000   0.0000000), wk =   0.0625000
        k(   12) = (   0.2500000   0.1365099   0.0000000), wk =   0.1250000
        k(   13) = (   0.2500000   0.2730198   0.0000000), wk =   0.1250000
        k(   14) = (   0.2500000   0.4095298   0.0000000), wk =   0.1250000
        k(   15) = (   0.2500000  -0.5460397   0.0000000), wk =   0.0625000
        k(   16) = (   0.3750000   0.0000000   0.0000000), wk =   0.0625000
        k(   17) = (   0.3750000   0.1365099   0.0000000), wk =   0.1250000
        k(   18) = (   0.3750000   0.2730198   0.0000000), wk =   0.1250000
        k(   19) = (   0.3750000   0.4095298   0.0000000), wk =   0.1250000
        k(   20) = (   0.3750000  -0.5460397   0.0000000), wk =   0.0625000
        k(   21) = (  -0.5000000   0.0000000   0.0000000), wk =   0.0312500
        k(   22) = (  -0.5000000   0.1365099   0.0000000), wk =   0.0625000
        k(   23) = (  -0.5000000   0.2730198   0.0000000), wk =   0.0625000
        k(   24) = (  -0.5000000   0.4095298   0.0000000), wk =   0.0625000
        k(   25) = (  -0.5000000  -0.5460397   0.0000000), wk =   0.0312500

                       cryst. coord.
        k(    1) = (   0.0000000   0.0000000   0.0000000), wk =   0.0312500
        k(    2) = (   0.0000000   0.1250000   0.0000000), wk =   0.0625000
        k(    3) = (   0.0000000   0.2500000   0.0000000), wk =   0.0625000
        k(    4) = (   0.0000000   0.3750000   0.0000000), wk =   0.0625000
        k(    5) = (   0.0000000  -0.5000000   0.0000000), wk =   0.0312500
        k(    6) = (   0.1250000   0.0000000   0.0000000), wk =   0.0625000
        k(    7) = (   0.1250000   0.1250000   0.0000000), wk =   0.1250000
        k(    8) = (   0.1250000   0.2500000   0.0000000), wk =   0.1250000
        k(    9) = (   0.1250000   0.3750000   0.0000000), wk =   0.1250000
        k(   10) = (   0.1250000  -0.5000000   0.0000000), wk =   0.0625000
        k(   11) = (   0.2500000   0.0000000   0.0000000), wk =   0.0625000
        k(   12) = (   0.2500000   0.1250000   0.0000000), wk =   0.1250000
        k(   13) = (   0.2500000   0.2500000   0.0000000), wk =   0.1250000
        k(   14) = (   0.2500000   0.3750000   0.0000000), wk =   0.1250000
        k(   15) = (   0.2500000  -0.5000000   0.0000000), wk =   0.0625000
        k(   16) = (   0.3750000   0.0000000   0.0000000), wk =   0.0625000
        k(   17) = (   0.3750000   0.1250000   0.0000000), wk =   0.1250000
        k(   18) = (   0.3750000   0.2500000   0.0000000), wk =   0.1250000
        k(   19) = (   0.3750000   0.3750000   0.0000000), wk =   0.1250000
        k(   20) = (   0.3750000  -0.5000000   0.0000000), wk =   0.0625000
        k(   21) = (  -0.5000000   0.0000000   0.0000000), wk =   0.0312500
        k(   22) = (  -0.5000000   0.1250000   0.0000000), wk =   0.0625000
        k(   23) = (  -0.5000000   0.2500000   0.0000000), wk =   0.0625000
        k(   24) = (  -0.5000000   0.3750000   0.0000000), wk =   0.0625000
        k(   25) = (  -0.5000000  -0.5000000   0.0000000), wk =   0.0312500

     Dense  grid:   168877 G-vectors     FFT dimensions: (  48,  48, 160)

     Smooth grid:    42639 G-vectors     FFT dimensions: (  32,  30, 100)

     Dynamical RAM for                 wfc:       0.41 MB

     Dynamical RAM for     wfc (w. buffer):       3.26 MB

     Dynamical RAM for           str. fact:       1.29 MB

     Dynamical RAM for           local pot:       0.00 MB

     Dynamical RAM for          nlocal pot:       1.47 MB

     Dynamical RAM for                qrad:       2.78 MB

     Dynamical RAM for          rho,v,vnew:       4.04 MB

     Dynamical RAM for               rhoin:       1.35 MB

     Dynamical RAM for            rho*nmix:      10.31 MB

     Dynamical RAM for           G-vectors:       2.50 MB

     Dynamical RAM for          h,s,v(r/c):       0.07 MB

     Dynamical RAM for          <psi|beta>:       0.02 MB

     Dynamical RAM for                 psi:       0.81 MB

     Dynamical RAM for                hpsi:       0.81 MB

     Dynamical RAM for                spsi:       0.81 MB

     Dynamical RAM for      wfcinit/wfcrot:       1.07 MB

     Dynamical RAM for           addusdens:      30.76 MB

     Dynamical RAM for          addusforce:      30.93 MB

     Estimated static dynamical RAM per process >      22.13 MB

     Estimated max dynamical RAM per process >      63.36 MB

     Estimated total dynamical RAM >     890.10 MB

     Initial potential from superposition of free atoms

     starting charge      37.9998, renormalised to      40.0000

     negative rho (up, down):  1.189E-03 0.000E+00
     Starting wfcs are   26 randomized atomic wfcs

     total cpu time spent up to now is        1.0 secs

     Self-consistent Calculation

     iteration #  1     ecut=    30.00 Ry     beta= 0.70
     Davidson diagonalization with overlap

---- Real-time Memory Report at c_bands before calling an iterative solver
           171 MiB given to the printing process from OS
             0 MiB allocation reported by mallinfo(arena+hblkhd)
         55718 MiB available memory on the node where the printing process lives
------------------
     ethr =  1.00E-02,  avg # of iterations =  2.0

     negative rho (up, down):  8.009E-04 0.000E+00

     total cpu time spent up to now is        2.0 secs

     total energy              =    -413.21400865 Ry
     estimated scf accuracy    <       1.37140721 Ry

     iteration #  2     ecut=    30.00 Ry     beta= 0.70
     Davidson diagonalization with overlap

---- Real-time Memory Report at c_bands before calling an iterative solver
           191 MiB given to the printing process from OS
             0 MiB allocation reported by mallinfo(arena+hblkhd)
         55527 MiB available memory on the node where the printing process lives
------------------
     ethr =  3.43E-03,  avg # of iterations =  3.0

     negative rho (up, down):  8.411E-04 0.000E+00

     total cpu time spent up to now is        2.8 secs

     total energy              =    -413.67422279 Ry
     estimated scf accuracy    <       0.58517507 Ry

     iteration #  3     ecut=    30.00 Ry     beta= 0.70
     Davidson diagonalization with overlap

---- Real-time Memory Report at c_bands before calling an iterative solver
           198 MiB given to the printing process from OS
             0 MiB allocation reported by mallinfo(arena+hblkhd)
         55521 MiB available memory on the node where the printing process lives
------------------
     ethr =  1.46E-03,  avg # of iterations =  2.0

     negative rho (up, down):  8.389E-04 0.000E+00

     total cpu time spent up to now is        3.5 secs

     total energy              =    -413.79044222 Ry
     estimated scf accuracy    <       0.00962851 Ry

     iteration #  4     ecut=    30.00 Ry     beta= 0.70
     Davidson diagonalization with overlap

---- Real-time Memory Report at c_bands before calling an iterative solver
           202 MiB given to the printing process from OS
             0 MiB allocation reported by mallinfo(arena+hblkhd)
         55468 MiB available memory on the node where the printing process lives
------------------
     ethr =  2.41E-05,  avg # of iterations =  5.0

     negative rho (up, down):  8.437E-04 0.000E+00

     total cpu time spent up to now is        4.2 secs

     total energy              =    -413.79596681 Ry
     estimated scf accuracy    <       0.00887279 Ry

     iteration #  5     ecut=    30.00 Ry     beta= 0.70
     Davidson diagonalization with overlap

---- Real-time Memory Report at c_bands before calling an iterative solver
           204 MiB given to the printing process from OS
             0 MiB allocation reported by mallinfo(arena+hblkhd)
         55453 MiB available memory on the node where the printing process lives
------------------
     ethr =  2.22E-05,  avg # of iterations =  2.0

     negative rho (up, down):  8.557E-04 0.000E+00

     total cpu time spent up to now is        4.7 secs

     total energy              =    -413.79655281 Ry
     estimated scf accuracy    <       0.00096995 Ry

     iteration #  6     ecut=    30.00 Ry     beta= 0.70
     Davidson diagonalization with overlap

---- Real-time Memory Report at c_bands before calling an iterative solver
           207 MiB given to the printing process from OS
             0 MiB allocation reported by mallinfo(arena+hblkhd)
         55454 MiB available memory on the node where the printing process lives
------------------
     ethr =  2.42E-06,  avg # of iterations =  4.5

     negative rho (up, down):  8.539E-04 0.000E+00

     total cpu time spent up to now is        5.3 secs

     total energy              =    -413.79693256 Ry
     estimated scf accuracy    <       0.00115748 Ry

     iteration #  7     ecut=    30.00 Ry     beta= 0.70
     Davidson diagonalization with overlap

---- Real-time Memory Report at c_bands before calling an iterative solver
           210 MiB given to the printing process from OS
             0 MiB allocation reported by mallinfo(arena+hblkhd)
         55450 MiB available memory on the node where the printing process lives
------------------
     ethr =  2.42E-06,  avg # of iterations =  2.0

     negative rho (up, down):  8.504E-04 0.000E+00

     total cpu time spent up to now is        5.9 secs

     total energy              =    -413.79706409 Ry
     estimated scf accuracy    <       0.00004992 Ry

     iteration #  8     ecut=    30.00 Ry     beta= 0.70
     Davidson diagonalization with overlap

---- Real-time Memory Report at c_bands before calling an iterative solver
           214 MiB given to the printing process from OS
             0 MiB allocation reported by mallinfo(arena+hblkhd)
         55452 MiB available memory on the node where the printing process lives
------------------
     ethr =  1.25E-07,  avg # of iterations =  4.6

     negative rho (up, down):  8.506E-04 0.000E+00

     total cpu time spent up to now is        6.6 secs

     total energy              =    -413.79709606 Ry
     estimated scf accuracy    <       0.00002308 Ry

     iteration #  9     ecut=    30.00 Ry     beta= 0.70
     Davidson diagonalization with overlap

---- Real-time Memory Report at c_bands before calling an iterative solver
           216 MiB given to the printing process from OS
             0 MiB allocation reported by mallinfo(arena+hblkhd)
         55446 MiB available memory on the node where the printing process lives
------------------
     ethr =  5.77E-08,  avg # of iterations =  2.0

     negative rho (up, down):  8.502E-04 0.000E+00

     total cpu time spent up to now is        7.1 secs

     total energy              =    -413.79709831 Ry
     estimated scf accuracy    <       0.00000202 Ry

     iteration # 10     ecut=    30.00 Ry     beta= 0.70
     Davidson diagonalization with overlap

---- Real-time Memory Report at c_bands before calling an iterative solver
           218 MiB given to the printing process from OS
             0 MiB allocation reported by mallinfo(arena+hblkhd)
         55449 MiB available memory on the node where the printing process lives
------------------
     ethr =  5.05E-09,  avg # of iterations =  4.0

     negative rho (up, down):  8.501E-04 0.000E+00

     total cpu time spent up to now is        7.8 secs

     total energy              =    -413.79709911 Ry
     estimated scf accuracy    <       0.00000010 Ry

     iteration # 11     ecut=    30.00 Ry     beta= 0.70
     Davidson diagonalization with overlap

---- Real-time Memory Report at c_bands before calling an iterative solver
           220 MiB given to the printing process from OS
             0 MiB allocation reported by mallinfo(arena+hblkhd)
         55467 MiB available memory on the node where the printing process lives
------------------
     ethr =  2.53E-10,  avg # of iterations =  4.3

     negative rho (up, down):  8.501E-04 0.000E+00

     total cpu time spent up to now is        8.4 secs

     total energy              =    -413.79709916 Ry
     estimated scf accuracy    <       0.00000005 Ry

     iteration # 12     ecut=    30.00 Ry     beta= 0.70
     Davidson diagonalization with overlap

---- Real-time Memory Report at c_bands before calling an iterative solver
           222 MiB given to the printing process from OS
             0 MiB allocation reported by mallinfo(arena+hblkhd)
         55442 MiB available memory on the node where the printing process lives
------------------
     ethr =  1.35E-10,  avg # of iterations =  2.0

     negative rho (up, down):  8.501E-04 0.000E+00

     total cpu time spent up to now is        8.9 secs

     End of self-consistent calculation

          k = 0.0000 0.0000 0.0000 (  5331 PWs)   bands (ev):

   -21.0751 -21.0644 -21.0624 -21.0571 -21.0511 -21.0302 -21.0268 -21.0206
   -21.0172 -21.0082 -13.1123 -12.1110  -6.1349  -5.0433  -3.3035  -3.0101
    -2.5489  -1.7240  -1.4304  -0.3666

     occupation numbers 
     1.0000   1.0000   1.0000   1.0000   1.0000   1.0000   1.0000   1.0000
     1.0000   1.0000   1.0000   1.0000   1.0000   1.0000   1.0000   1.0000
     1.0000   1.0000   1.0000   1.0000

          k = 0.0000 0.1365 0.0000 (  5331 PWs)   bands (ev):

   -21.0728 -21.0639 -21.0623 -21.0586 -21.0497 -21.0307 -21.0272 -21.0196
   -21.0184 -21.0081 -13.0389 -12.0912  -6.2961  -5.2730  -3.2555  -2.9228
    -2.4923  -1.7095  -1.2074  -0.4109

     occupation numbers 
     1.0000   1.0000   1.0000   1.0000   1.0000   1.0000   1.0000   1.0000
     1.0000   1.0000   1.0000   1.0000   1.0000   1.0000   1.0000   1.0000
     1.0000   1.0000   1.0000   1.0000

          k = 0.0000 0.2730 0.0000 (  5350 PWs)   bands (ev):

   -21.0691 -21.0672 -21.0601 -21.0578 -21.0467 -21.0322 -21.0277 -21.0212
   -21.0170 -21.0082 -12.8341 -12.0615  -6.6530  -5.8409  -3.0398  -2.6730
    -2.2579  -1.5978  -0.7324  -0.5821

     occupation numbers 
     1.0000   1.0000   1.0000   1.0000   1.0000   1.0000   1.0000   1.0000
     1.0000   1.0000   1.0000   1.0000   1.0000   1.0000   1.0000   1.0000
     1.0000   1.0000   1.0000   1.0000

          k = 0.0000 0.4095 0.0000 (  5340 PWs)   bands (ev):

   -21.0704 -21.0701 -21.0565 -21.0539 -21.0428 -21.0350 -21.0276 -21.0242
   -21.0137 -21.0089 -12.5484 -12.0996  -6.9195  -6.4577  -2.6521  -2.3059
    -1.9449  -1.5372  -0.7502  -0.2351

     occupation numbers 
     1.0000   1.0000   1.0000   1.0000   1.0000   1.0000   1.0000   1.0000
     1.0000   1.0000   1.0000   1.0000   1.0000   1.0000   1.0000   1.0000
     1.0000   1.0000   1.0000   1.0000

          k = 0.0000-0.5460 0.0000 (  5354 PWs)   bands (ev):

   -21.0715 -21.0715 -21.0534 -21.0534 -21.0387 -21.0387 -21.0265 -21.0265
   -21.0106 -21.0106 -12.2709 -12.2709  -6.8655  -6.8655  -2.2394  -2.2394
    -1.7345  -1.7345  -0.4332  -0.4332

     occupation numbers 
     1.0000   1.0000   1.0000   1.0000   1.0000   1.0000   1.0000   1.0000
     1.0000   1.0000   1.0000   1.0000   1.0000   1.0000   1.0000   1.0000
     1.0000   1.0000   1.0000   1.0000

          k = 0.1250 0.0000 0.0000 (  5329 PWs)   bands (ev):

   -21.0745 -21.0644 -21.0628 -21.0578 -21.0493 -21.0302 -21.0264 -21.0203
   -21.0176 -21.0088 -13.0555 -12.1148  -6.3538  -5.3443  -3.2472  -2.7247
    -2.4570  -1.3808  -1.3442  -0.4543

     occupation numbers 
     1.0000   1.0000   1.0000   1.0000   1.0000   1.0000   1.0000   1.0000
     1.0000   1.0000   1.0000   1.0000   1.0000   1.0000   1.0000   1.0000
     1.0000   1.0000   1.0000   1.0000

          k = 0.1250 0.1365 0.0000 (  5340 PWs)   bands (ev):

   -21.0724 -21.0645 -21.0622 -21.0594 -21.0480 -21.0307 -21.0269 -21.0192
   -21.0187 -21.0087 -12.9835 -12.0936  -6.4337  -5.4871  -3.1851  -3.1247
    -2.0151  -1.8635  -0.7886  -0.4569

     occupation numbers 
     1.0000   1.0000   1.0000   1.0000   1.0000   1.0000   1.0000   1.0000
     1.0000   1.0000   1.0000   1.0000   1.0000   1.0000   1.0000   1.0000
     1.0000   1.0000   1.0000   1.0000

          k = 0.1250 0.2730 0.0000 (  5333 PWs)   bands (ev):

   -21.0696 -21.0680 -21.0603 -21.0576 -21.0451 -21.0322 -21.0276 -21.0214
   -21.0167 -21.0086 -12.7835 -12.0593  -6.6530  -5.9014  -3.2997  -2.9878
    -2.0054  -1.6458  -0.5603  -0.4726

     occupation numbers 
     1.0000   1.0000   1.0000   1.0000   1.0000   1.0000   1.0000   1.0000
     1.0000   1.0000   1.0000   1.0000   1.0000   1.0000   1.0000   1.0000
     1.0000   1.0000   1.0000   1.0000

          k = 0.1250 0.4095 0.0000 (  5365 PWs)   bands (ev):

   -21.0715 -21.0714 -21.0563 -21.0537 -21.0417 -21.0348 -21.0276 -21.0243
   -21.0134 -21.0090 -12.5072 -12.0872  -6.8478  -6.4213  -3.0484  -2.6510
    -1.9659  -1.6725  -0.7938  -0.4513

     occupation numbers 
     1.0000   1.0000   1.0000   1.0000   1.0000   1.0000   1.0000   1.0000
     1.0000   1.0000   1.0000   1.0000   1.0000   1.0000   1.0000   1.0000
     1.0000   1.0000   1.0000   1.0000

          k = 0.1250-0.5460 0.0000 (  5372 PWs)   bands (ev):

   -21.0728 -21.0728 -21.0532 -21.0532 -21.0382 -21.0382 -21.0264 -21.0264
   -21.0106 -21.0106 -12.2438 -12.2438  -6.7883  -6.7883  -2.5670  -2.5670
    -2.0058  -2.0058  -0.6517  -0.6517

     occupation numbers 
     1.0000   1.0000   1.0000   1.0000   1.0000   1.0000   1.0000   1.0000
     1.0000   1.0000   1.0000   1.0000   1.0000   1.0000   1.0000   1.0000
     1.0000   1.0000   1.0000   1.0000

          k = 0.2500 0.0000 0.0000 (  5323 PWs)   bands (ev):

   -21.0728 -21.0648 -21.0635 -21.0597 -21.0448 -21.0305 -21.0252 -21.0194
   -21.0184 -21.0106 -12.8960 -12.1446  -6.7545  -5.9694  -3.0278  -2.1961
    -2.1402  -1.2750  -0.6776  -0.5396

     occupation numbers 
     1.0000   1.0000   1.0000   1.0000   1.0000   1.0000   1.0000   1.0000
     1.0000   1.0000   1.0000   1.0000   1.0000   1.0000   1.0000   1.0000
     1.0000   1.0000   1.0000   1.0000

          k = 0.2500 0.1365 0.0000 (  5328 PWs)   bands (ev):

   -21.0712 -21.0658 -21.0622 -21.0611 -21.0437 -21.0309 -21.0260 -21.0196
   -21.0182 -21.0101 -12.8285 -12.1189  -6.7215  -5.9861  -3.0934  -2.9641
    -1.8843  -1.5215  -0.4578  -0.3444

     occupation numbers 
     1.0000   1.0000   1.0000   1.0000   1.0000   1.0000   1.0000   1.0000
     1.0000   1.0000   1.0000   1.0000   1.0000   1.0000   1.0000   1.0000
     1.0000   1.0000   1.0000   1.0000

          k = 0.2500 0.2730 0.0000 (  5340 PWs)   bands (ev):

   -21.0710 -21.0700 -21.0603 -21.0575 -21.0414 -21.0322 -21.0271 -21.0221
   -21.0156 -21.0095 -12.6437 -12.0686  -6.6700  -6.0937  -3.7433  -2.8530
    -2.4105  -1.4689  -0.9786  -0.2103

     occupation numbers 
     1.0000   1.0000   1.0000   1.0000   1.0000   1.0000   1.0000   1.0000
     1.0000   1.0000   1.0000   1.0000   1.0000   1.0000   1.0000   1.0000
     1.0000   1.0000   1.0000   1.0000

          k = 0.2500 0.4095 0.0000 (  5351 PWs)   bands (ev):

   -21.0743 -21.0742 -21.0556 -21.0534 -21.0391 -21.0345 -21.0271 -21.0243
   -21.0126 -21.0093 -12.3967 -12.0649  -6.6575  -6.3395  -3.8157  -2.7639
    -2.6409  -1.7853  -1.5396  -0.6590

     occupation numbers 
     1.0000   1.0000   1.0000   1.0000   1.0000   1.0000   1.0000   1.0000
     1.0000   1.0000   1.0000   1.0000   1.0000   1.0000   1.0000   1.0000
     1.0000   1.0000   1.0000   1.0000

          k = 0.2500-0.5460 0.0000 (  5364 PWs)   bands (ev):

   -21.0759 -21.0759 -21.0527 -21.0527 -21.0368 -21.0368 -21.0260 -21.0260
   -21.0103 -21.0103 -12.1764 -12.1764  -6.5753  -6.5753  -3.3496  -3.3496
    -2.3033  -2.3033  -1.2525  -1.2525

     occupation numbers 
     1.0000   1.0000   1.0000   1.0000   1.0000   1.0000   1.0000   1.0000
     1.0000   1.0000   1.0000   1.0000   1.0000   1.0000   1.0000   1.0000
     1.0000   1.0000   1.0000   1.0000

          k = 0.3750 0.0000 0.0000 (  5339 PWs)   bands (ev):

   -21.0704 -21.0659 -21.0641 -21.0620 -21.0393 -21.0317 -21.0235 -21.0198
   -21.0177 -21.0130 -12.6674 -12.2419  -7.0008  -6.5635  -2.6543  -1.8566
    -1.8197  -1.2483  -0.6356   0.2323

     occupation numbers 
     1.0000   1.0000   1.0000   1.0000   1.0000   1.0000   1.0000   1.0000
     1.0000   1.0000   1.0000   1.0000   1.0000   1.0000   1.0000   1.0000
     1.0000   1.0000   1.0000   1.0000

          k = 0.3750 0.1365 0.0000 (  5324 PWs)   bands (ev):

   -21.0697 -21.0672 -21.0627 -21.0626 -21.0387 -21.0320 -21.0245 -21.0210
   -21.0165 -21.0122 -12.6082 -12.2071  -6.9139  -6.5051  -2.7727  -2.6083
    -1.9044  -1.6531  -0.3167  -0.1870

     occupation numbers 
     1.0000   1.0000   1.0000   1.0000   1.0000   1.0000   1.0000   1.0000
     1.0000   1.0000   1.0000   1.0000   1.0000   1.0000   1.0000   1.0000
     1.0000   1.0000   1.0000   1.0000

          k = 0.3750 0.2730 0.0000 (  5338 PWs)   bands (ev):

   -21.0725 -21.0720 -21.0597 -21.0578 -21.0375 -21.0329 -21.0259 -21.0230
   -21.0141 -21.0108 -12.4508 -12.1271  -6.6858  -6.3720  -3.7233  -2.8343
    -2.5370  -1.7518  -1.3374  -0.5611

     occupation numbers 
     1.0000   1.0000   1.0000   1.0000   1.0000   1.0000   1.0000   1.0000
     1.0000   1.0000   1.0000   1.0000   1.0000   1.0000   1.0000   1.0000
     1.0000   1.0000   1.0000   1.0000

          k = 0.3750 0.4095 0.0000 (  5339 PWs)   bands (ev):

   -21.0770 -21.0769 -21.0548 -21.0535 -21.0365 -21.0344 -21.0261 -21.0244
   -21.0116 -21.0099 -12.2546 -12.0688  -6.4361  -6.2808  -4.1788  -3.3935
    -2.9034  -2.2274  -1.6538  -1.1287

     occupation numbers 
     1.0000   1.0000   1.0000   1.0000   1.0000   1.0000   1.0000   1.0000
     1.0000   1.0000   1.0000   1.0000   1.0000   1.0000   1.0000   1.0000
     1.0000   1.0000   1.0000   1.0000

          k = 0.3750-0.5460 0.0000 (  5320 PWs)   bands (ev):

   -21.0790 -21.0790 -21.0523 -21.0523 -21.0356 -21.0356 -21.0254 -21.0254
   -21.0100 -21.0100 -12.1062 -12.1062  -6.3039  -6.3039  -3.9598  -3.9598
    -2.8291  -2.8291  -1.4372  -1.4372

     occupation numbers 
     1.0000   1.0000   1.0000   1.0000   1.0000   1.0000   1.0000   1.0000
     1.0000   1.0000   1.0000   1.0000   1.0000   1.0000   1.0000   1.0000
     1.0000   1.0000   1.0000   1.0000

          k =-0.5000 0.0000 0.0000 (  5324 PWs)   bands (ev):

   -21.0679 -21.0679 -21.0636 -21.0636 -21.0346 -21.0346 -21.0216 -21.0216
   -21.0155 -21.0155 -12.4273 -12.4273  -6.9387  -6.9387  -2.1963  -2.1963
    -1.4463  -1.4463  -0.0030  -0.0030

     occupation numbers 
     1.0000   1.0000   1.0000   1.0000   1.0000   1.0000   1.0000   1.0000
     1.0000   1.0000   1.0000   1.0000   1.0000   1.0000   1.0000   1.0000
     1.0000   1.0000   1.0000   1.0000

          k =-0.5000 0.1365 0.0000 (  5306 PWs)   bands (ev):

   -21.0684 -21.0684 -21.0632 -21.0632 -21.0345 -21.0345 -21.0227 -21.0227
   -21.0144 -21.0144 -12.3801 -12.3801  -6.8476  -6.8476  -2.3626  -2.3626
    -2.0367  -2.0367  -0.1974  -0.1974

     occupation numbers 
     1.0000   1.0000   1.0000   1.0000   1.0000   1.0000   1.0000   1.0000
     1.0000   1.0000   1.0000   1.0000   1.0000   1.0000   1.0000   1.0000
     1.0000   1.0000   1.0000   1.0000

          k =-0.5000 0.2730 0.0000 (  5322 PWs)   bands (ev):

   -21.0730 -21.0730 -21.0587 -21.0587 -21.0345 -21.0345 -21.0244 -21.0244
   -21.0124 -21.0124 -12.2606 -12.2606  -6.6004  -6.6004  -3.3300  -3.3300
    -2.1810  -2.1810  -1.1003  -1.1003

     occupation numbers 
     1.0000   1.0000   1.0000   1.0000   1.0000   1.0000   1.0000   1.0000
     1.0000   1.0000   1.0000   1.0000   1.0000   1.0000   1.0000   1.0000
     1.0000   1.0000   1.0000   1.0000

          k =-0.5000 0.4095 0.0000 (  5326 PWs)   bands (ev):

   -21.0781 -21.0781 -21.0540 -21.0540 -21.0350 -21.0350 -21.0250 -21.0250
   -21.0107 -21.0107 -12.1323 -12.1323  -6.3023  -6.3023  -4.0029  -4.0029
    -2.7128  -2.7128  -1.4438  -1.4438

     occupation numbers 
     1.0000   1.0000   1.0000   1.0000   1.0000   1.0000   1.0000   1.0000
     1.0000   1.0000   1.0000   1.0000   1.0000   1.0000   1.0000   1.0000
     1.0000   1.0000   1.0000   1.0000

          k =-0.5000-0.5460 0.0000 (  5292 PWs)   bands (ev):

   -21.0802 -21.0802 -21.0523 -21.0523 -21.0352 -21.0352 -21.0250 -21.0250
   -21.0099 -21.0099 -12.0762 -12.0762  -6.1614  -6.1614  -4.1934  -4.1934
    -3.0887  -3.0887  -1.4505  -1.4505

     occupation numbers 
     1.0000   1.0000   1.0000   1.0000   1.0000   1.0000   1.0000   1.0000
     1.0000   1.0000   1.0000   1.0000   1.0000   1.0000   1.0000   1.0000
     1.0000   1.0000   1.0000   1.0000

     highest occupied level (ev):     0.2323

!    total energy              =    -413.79709916 Ry
     estimated scf accuracy    <          7.4E-09 Ry

     The total energy is the sum of the following terms:
     one-electron contribution =    -749.39081557 Ry
     hartree contribution      =     388.52587686 Ry
     xc contribution           =    -154.41507598 Ry
     ewald contribution        =     101.48291553 Ry

     convergence has been achieved in  12 iterations

     negative rho (up, down):  8.501E-04 0.000E+00

     Forces acting on atoms (cartesian axes, Ry/au):

     atom    1 type  1   force =     0.00004752   -0.00000000    0.00014740
     atom    2 type  2   force =    -0.00004752   -0.00000000    0.00047507
     atom    3 type  2   force =    -0.00004752    0.00000000   -0.00047507
     atom    4 type  1   force =     0.00004752    0.00000000   -0.00014740
     The non-local contrib.  to forces
     atom    1 type  1   force =     0.24652778    0.00000000    0.44500306
     atom    2 type  2   force =    -0.07979141    0.00000000    0.19454525
     atom    3 type  2   force =    -0.07979141    0.00000000   -0.19454525
     atom    4 type  1   force =     0.24652778    0.00000000   -0.44500306
     The ionic contribution  to forces
     atom    1 type  1   force =    -1.27654474    0.00000000  -32.52298551
     atom    2 type  2   force =     1.27654474   -0.00000000  -14.72105014
     atom    3 type  2   force =     1.27654474    0.00000000   14.72105014
     atom    4 type  1   force =    -1.27654474   -0.00000000   32.52298551
     The local contribution  to forces
     atom    1 type  1   force =     1.03374696   -0.00000000   32.08571545
     atom    2 type  2   force =    -1.20560580   -0.00000000   14.54924277
     atom    3 type  2   force =    -1.20560580   -0.00000000  -14.54924278
     atom    4 type  1   force =     1.03374696   -0.00000000  -32.08571545
     The core correction contribution to forces
     atom    1 type  1   force =    -0.00371103    0.00000000   -0.00770108
     atom    2 type  2   force =     0.00880504   -0.00000000   -0.02225303
     atom    3 type  2   force =     0.00880504   -0.00000000    0.02225303
     atom    4 type  1   force =    -0.00371103    0.00000000    0.00770108
     The Hubbard contrib.    to forces
     atom    1 type  1   force =     0.00000000    0.00000000    0.00000000
     atom    2 type  2   force =     0.00000000    0.00000000    0.00000000
     atom    3 type  2   force =     0.00000000    0.00000000    0.00000000
     atom    4 type  1   force =     0.00000000    0.00000000    0.00000000
     The SCF correction term to forces
     atom    1 type  1   force =     0.00003593    0.00000000    0.00011547
     atom    2 type  2   force =     0.00000728   -0.00000000   -0.00000978
     atom    3 type  2   force =     0.00000728   -0.00000000    0.00000978
     atom    4 type  1   force =     0.00003593    0.00000000   -0.00011547

     Total force =     0.000710     Total SCF correction =     0.000172
     SCF correction compared to forces is large: reduce conv_thr to get better values

     Writing all to output data dir ./tmp/SnSe_monolayer.save/ :
     XML data file, charge density, pseudopotentials, collected wavefunctions
 
     init_run     :      0.58s CPU      0.74s WALL (       1 calls)
     electrons    :      7.17s CPU      7.95s WALL (       1 calls)
     forces       :      0.18s CPU      0.22s WALL (       1 calls)

     Called by init_run:
     wfcinit      :      0.17s CPU      0.19s WALL (       1 calls)
     wfcinit:atom :      0.00s CPU      0.00s WALL (       7 calls)
     wfcinit:wfcr :      0.14s CPU      0.16s WALL (       7 calls)
     potinit      :      0.09s CPU      0.12s WALL (       1 calls)
     hinit0       :      0.18s CPU      0.20s WALL (       1 calls)

     Called by electrons:
     c_bands      :      3.76s CPU      3.94s WALL (      12 calls)
     sum_band     :      1.72s CPU      1.98s WALL (      12 calls)
     v_of_rho     :      0.67s CPU      0.72s WALL (      13 calls)
     v_h          :      0.06s CPU      0.06s WALL (      13 calls)
     v_xc         :      0.65s CPU      0.71s WALL (      14 calls)
     newd         :      1.02s CPU      1.32s WALL (      13 calls)
     mix_rho      :      0.07s CPU      0.09s WALL (      12 calls)

     Called by c_bands:
     init_us_2    :      0.15s CPU      0.16s WALL (     182 calls)
     cegterg      :      3.16s CPU      3.31s WALL (      84 calls)

     Called by sum_band:
     sum_band:wei :      0.00s CPU      0.00s WALL (      12 calls)
     sum_band:loo :      0.59s CPU      0.61s WALL (      12 calls)
     sum_band:buf :      0.01s CPU      0.01s WALL (      84 calls)
     sum_band:ini :      0.07s CPU      0.07s WALL (      84 calls)
     sum_band:cal :      0.06s CPU      0.06s WALL (      84 calls)
     sum_band:bec :      0.00s CPU      0.00s WALL (      84 calls)
     addusdens    :      0.92s CPU      1.11s WALL (      12 calls)
                                        0.00s GPU  (      12 calls)
     addusd:skk   :      0.00s CPU      0.00s WALL (      24 calls)
                                        0.00s GPU  (      24 calls)

     Called by *egterg:
     cdiaghg      :      0.16s CPU      0.18s WALL (     345 calls)
     cegterg:over :      0.15s CPU      0.15s WALL (     261 calls)
     cegterg:upda :      0.06s CPU      0.06s WALL (     261 calls)
     cegterg:last :      0.13s CPU      0.14s WALL (     200 calls)
     h_psi        :      2.52s CPU      2.63s WALL (     352 calls)
     s_psi        :      0.15s CPU      0.16s WALL (     352 calls)
     g_psi        :      0.01s CPU      0.01s WALL (     261 calls)

     Called by h_psi:
     h_psi:calbec :      0.19s CPU      0.20s WALL (     352 calls)
     vloc_psi     :      2.12s CPU      2.22s WALL (     352 calls)
     add_vuspsi   :      0.18s CPU      0.18s WALL (     352 calls)

     General routines
     calbec       :      0.27s CPU      0.28s WALL (     464 calls)
     fft          :      0.33s CPU      0.34s WALL (     178 calls)
     ffts         :      0.01s CPU      0.01s WALL (      25 calls)
     fftw         :      1.68s CPU      1.75s WALL (   11464 calls)
     interpolate  :      0.04s CPU      0.04s WALL (      13 calls)
 
     Parallel routines
 
     PWSCF        :      8.16s CPU      9.42s WALL

 
   This run was terminated on:  21: 2:11  24May2026            

=------------------------------------------------------------------------------=
   JOB DONE.
=------------------------------------------------------------------------------=
