
     Program PWSCF v.7.3.1 starts on 24May2026 at 21: 2:51 

     This program is part of the open-source Quantum ESPRESSO suite
     for quantum simulation of materials; please cite
         "P. Giannozzi et al., J. Phys.:Condens. Matter 21 395502 (2009);
         "P. Giannozzi et al., J. Phys.:Condens. Matter 29 465901 (2017);
         "P. Giannozzi et al., J. Chem. Phys. 152 154105 (2020);
          URL http://www.quantum-espresso.org", 
     in publications or presentations arising from this work. More details at
     http://www.quantum-espresso.org/quote

     Parallel version (MPI & OpenMP), running on      16 processor cores
     Number of MPI processes:                16
     Threads/MPI process:                     1

     MPI processes distributed on     1 nodes
     56800 MiB available memory on the printing compute node when the environment starts
 
     Waiting for input...
     Reading input from standard input

     Current dimensions of program PWSCF are:
     Max number of different atomic species (ntypx) = 10
     Max number of k-points (npk) =  40000
     Max angular momentum in pseudopotentials (lmaxx) =  4
     Message from routine setup:
     using ibrav=0 with symmetry is DISCOURAGED, use correct ibrav instead
 
     K-points division:     npool     =       4
     R & G space division:  proc/nbgrp/npool/nimage =       4
     Subspace diagonalization in iterative solution of the eigenvalue problem:
     a serial algorithm will be used

 
     Parallelization info
     --------------------
     sticks:   dense  smooth     PW     G-vecs:    dense   smooth      PW
     Min         407     160     49                61899    15633    2598
     Max         408     161     51                61906    15644    2603
     Sum        1629     641    199               247605    62561   10401
 
     Using Slab Decomposition
 


     bravais-lattice index     =            0
     lattice parameter (alat)  =       8.6086  a.u.
     unit-cell volume          =    2821.2214 (a.u.)^3
     number of atoms/cell      =            4
     number of atomic types    =            2
     number of electrons       =        40.00
     number of Kohn-Sham states=           20
     kinetic-energy cutoff     =      30.0000  Ry
     charge density cutoff     =     300.0000  Ry
     scf convergence threshold =      1.0E-08
     mixing beta               =       0.7000
     number of iterations used =            8  plain     mixing
     Exchange-correlation= SLA  PW   PBE  PBE
                           (   1   4   3   4   0   0   0)

     celldm(1)=   8.608647  celldm(2)=   0.000000  celldm(3)=   0.000000
     celldm(4)=   0.000000  celldm(5)=   0.000000  celldm(6)=   0.000000

     crystal axes: (cart. coord. in units of alat)
               a(1) = (   1.000000   0.000000   0.000000 )  
               a(2) = (   0.000000   0.915684   0.000000 )  
               a(3) = (   0.000000   0.000000   4.829327 )  

     reciprocal axes: (cart. coord. in units 2 pi/alat)
               b(1) = (  1.000000  0.000000  0.000000 )  
               b(2) = (  0.000000  1.092079  0.000000 )  
               b(3) = (  0.000000  0.000000  0.207068 )  


     PseudoPot. # 1 for Sn read from file:
     ../pseudo/Sn_pbe_v1.uspp.F.UPF
     MD5 check sum: 4cf58ce39ec5d5d420df3dd08604eb00
     Pseudo is Ultrasoft + core correction, Zval = 14.0
     Generated by new atomic code, or converted to UPF format
     Using radial grid of  891 points,  6 beta functions with: 
                l(1) =   0
                l(2) =   0
                l(3) =   1
                l(4) =   1
                l(5) =   2
                l(6) =   2
     Q(r) pseudized with  6 coefficients,  rinner =    1.200   1.200   1.200
                                                       1.200   1.200

     PseudoPot. # 2 for Se read from file:
     ../pseudo/Se_pbe_v1.uspp.F.UPF
     MD5 check sum: 1b3568f3a8ae88f9a2a0ad0698632c85
     Pseudo is Ultrasoft + core correction, Zval =  6.0
     Generated by new atomic code, or converted to UPF format
     Using radial grid of  877 points,  6 beta functions with: 
                l(1) =   0
                l(2) =   0
                l(3) =   1
                l(4) =   1
                l(5) =   2
                l(6) =   2
     Q(r) pseudized with  8 coefficients,  rinner =    1.300   1.300   1.300
                                                       1.300   1.300

     atomic species   valence    mass     pseudopotential
     Sn               14.00   118.71000     Sn( 1.00)
     Se                6.00    78.97100     Se( 1.00)

      4 Sym. Ops. (no inversion) found ( 3 have fractional translation)


                                    s                        frac. trans.

      isym =  1     identity                                     

 cryst.   s( 1) = (     1          0          0      )
                  (     0          1          0      )
                  (     0          0          1      )

 cart.    s( 1) = (  1.0000000  0.0000000  0.0000000 )
                  (  0.0000000  1.0000000  0.0000000 )
                  (  0.0000000  0.0000000  1.0000000 )


      isym =  2     180 deg rotation - cart. axis [1,0,0]        

 cryst.   s( 2) = (     1          0          0      )    f =( -0.5000000 )
                  (     0         -1          0      )       (  0.0000000 )
                  (     0          0         -1      )       ( -0.0000000 )

 cart.    s( 2) = (  1.0000000  0.0000000  0.0000000 )    f =( -0.5000000 )
                  (  0.0000000 -1.0000000  0.0000000 )       (  0.0000000 )
                  (  0.0000000  0.0000000 -1.0000000 )       ( -0.0000000 )


      isym =  3     inv. 180 deg rotation - cart. axis [0,0,1]   

 cryst.   s( 3) = (     1          0          0      )    f =( -0.5000000 )
                  (     0          1          0      )       (  0.5000000 )
                  (     0          0         -1      )       ( -0.0000000 )

 cart.    s( 3) = (  1.0000000  0.0000000  0.0000000 )    f =( -0.5000000 )
                  (  0.0000000  1.0000000  0.0000000 )       (  0.4578422 )
                  (  0.0000000  0.0000000 -1.0000000 )       ( -0.0000000 )


      isym =  4     inv. 180 deg rotation - cart. axis [0,1,0]   

 cryst.   s( 4) = (     1          0          0      )    f =(  0.0000000 )
                  (     0         -1          0      )       (  0.5000000 )
                  (     0          0          1      )       (  0.0000000 )

 cart.    s( 4) = (  1.0000000  0.0000000  0.0000000 )    f =(  0.0000000 )
                  (  0.0000000 -1.0000000  0.0000000 )       (  0.4578422 )
                  (  0.0000000  0.0000000  1.0000000 )       (  0.0000000 )


   Cartesian axes

     site n.     atom                  positions (alat units)
         1        Sn     tau(   1) = (   0.0995059   0.6867633   2.1094377  )
         2        Se     tau(   2) = (   0.5295331   0.2289211   2.1236398  )
         3        Se     tau(   3) = (   0.0295331   0.6867633   2.7056874  )
         4        Sn     tau(   4) = (   0.5995059   0.2289211   2.7198895  )

   Crystallographic axes

     site n.     atom                  positions (cryst. coord.)
         1        Sn     tau(   1) = (  0.0995059  0.7500000  0.4367974  )
         2        Se     tau(   2) = (  0.5295331  0.2500000  0.4397382  )
         3        Se     tau(   3) = (  0.0295331  0.7500000  0.5602618  )
         4        Sn     tau(   4) = (  0.5995059  0.2500000  0.5632026  )

     number of k points=    25
                       cart. coord. in units 2pi/alat
        k(    1) = (   0.0000000   0.0000000   0.0000000), wk =   0.0312500
        k(    2) = (   0.0000000   0.1365099   0.0000000), wk =   0.0625000
        k(    3) = (   0.0000000   0.2730198   0.0000000), wk =   0.0625000
        k(    4) = (   0.0000000   0.4095298   0.0000000), wk =   0.0625000
        k(    5) = (   0.0000000  -0.5460397   0.0000000), wk =   0.0312500
        k(    6) = (   0.1250000   0.0000000   0.0000000), wk =   0.0625000
        k(    7) = (   0.1250000   0.1365099   0.0000000), wk =   0.1250000
        k(    8) = (   0.1250000   0.2730198   0.0000000), wk =   0.1250000
        k(    9) = (   0.1250000   0.4095298   0.0000000), wk =   0.1250000
        k(   10) = (   0.1250000  -0.5460397   0.0000000), wk =   0.0625000
        k(   11) = (   0.2500000   0.0000000   0.0000000), wk =   0.0625000
        k(   12) = (   0.2500000   0.1365099   0.0000000), wk =   0.1250000
        k(   13) = (   0.2500000   0.2730198   0.0000000), wk =   0.1250000
        k(   14) = (   0.2500000   0.4095298   0.0000000), wk =   0.1250000
        k(   15) = (   0.2500000  -0.5460397   0.0000000), wk =   0.0625000
        k(   16) = (   0.3750000   0.0000000   0.0000000), wk =   0.0625000
        k(   17) = (   0.3750000   0.1365099   0.0000000), wk =   0.1250000
        k(   18) = (   0.3750000   0.2730198   0.0000000), wk =   0.1250000
        k(   19) = (   0.3750000   0.4095298   0.0000000), wk =   0.1250000
        k(   20) = (   0.3750000  -0.5460397   0.0000000), wk =   0.0625000
        k(   21) = (  -0.5000000   0.0000000   0.0000000), wk =   0.0312500
        k(   22) = (  -0.5000000   0.1365099   0.0000000), wk =   0.0625000
        k(   23) = (  -0.5000000   0.2730198   0.0000000), wk =   0.0625000
        k(   24) = (  -0.5000000   0.4095298   0.0000000), wk =   0.0625000
        k(   25) = (  -0.5000000  -0.5460397   0.0000000), wk =   0.0312500

                       cryst. coord.
        k(    1) = (   0.0000000   0.0000000   0.0000000), wk =   0.0312500
        k(    2) = (   0.0000000   0.1250000   0.0000000), wk =   0.0625000
        k(    3) = (   0.0000000   0.2500000   0.0000000), wk =   0.0625000
        k(    4) = (   0.0000000   0.3750000   0.0000000), wk =   0.0625000
        k(    5) = (   0.0000000  -0.5000000   0.0000000), wk =   0.0312500
        k(    6) = (   0.1250000   0.0000000   0.0000000), wk =   0.0625000
        k(    7) = (   0.1250000   0.1250000   0.0000000), wk =   0.1250000
        k(    8) = (   0.1250000   0.2500000   0.0000000), wk =   0.1250000
        k(    9) = (   0.1250000   0.3750000   0.0000000), wk =   0.1250000
        k(   10) = (   0.1250000  -0.5000000   0.0000000), wk =   0.0625000
        k(   11) = (   0.2500000   0.0000000   0.0000000), wk =   0.0625000
        k(   12) = (   0.2500000   0.1250000   0.0000000), wk =   0.1250000
        k(   13) = (   0.2500000   0.2500000   0.0000000), wk =   0.1250000
        k(   14) = (   0.2500000   0.3750000   0.0000000), wk =   0.1250000
        k(   15) = (   0.2500000  -0.5000000   0.0000000), wk =   0.0625000
        k(   16) = (   0.3750000   0.0000000   0.0000000), wk =   0.0625000
        k(   17) = (   0.3750000   0.1250000   0.0000000), wk =   0.1250000
        k(   18) = (   0.3750000   0.2500000   0.0000000), wk =   0.1250000
        k(   19) = (   0.3750000   0.3750000   0.0000000), wk =   0.1250000
        k(   20) = (   0.3750000  -0.5000000   0.0000000), wk =   0.0625000
        k(   21) = (  -0.5000000   0.0000000   0.0000000), wk =   0.0312500
        k(   22) = (  -0.5000000   0.1250000   0.0000000), wk =   0.0625000
        k(   23) = (  -0.5000000   0.2500000   0.0000000), wk =   0.0625000
        k(   24) = (  -0.5000000   0.3750000   0.0000000), wk =   0.0625000
        k(   25) = (  -0.5000000  -0.5000000   0.0000000), wk =   0.0312500

     Dense  grid:   247605 G-vectors     FFT dimensions: (  48,  48, 240)

     Smooth grid:    62561 G-vectors     FFT dimensions: (  32,  30, 150)

     Dynamical RAM for                 wfc:       0.60 MB

     Dynamical RAM for     wfc (w. buffer):       4.78 MB

     Dynamical RAM for           str. fact:       1.89 MB

     Dynamical RAM for           local pot:       0.00 MB

     Dynamical RAM for          nlocal pot:       2.15 MB

     Dynamical RAM for                qrad:       2.78 MB

     Dynamical RAM for          rho,v,vnew:       6.00 MB

     Dynamical RAM for               rhoin:       2.00 MB

     Dynamical RAM for            rho*nmix:      15.11 MB

     Dynamical RAM for           G-vectors:       3.66 MB

     Dynamical RAM for          h,s,v(r/c):       0.07 MB

     Dynamical RAM for          <psi|beta>:       0.02 MB

     Dynamical RAM for                 psi:       1.19 MB

     Dynamical RAM for                hpsi:       1.19 MB

     Dynamical RAM for                spsi:       1.19 MB

     Dynamical RAM for      wfcinit/wfcrot:       1.57 MB

     Dynamical RAM for           addusdens:      45.10 MB

     Dynamical RAM for          addusforce:      45.35 MB

     Estimated static dynamical RAM per process >      31.36 MB

     Estimated max dynamical RAM per process >      91.83 MB

     Estimated total dynamical RAM >       1.26 GB

     Initial potential from superposition of free atoms

     starting charge      37.9998, renormalised to      40.0000

     negative rho (up, down):  2.279E-03 0.000E+00
     Starting wfcs are   26 randomized atomic wfcs

     total cpu time spent up to now is        1.1 secs

     Self-consistent Calculation

     iteration #  1     ecut=    30.00 Ry     beta= 0.70
     Davidson diagonalization with overlap

---- Real-time Memory Report at c_bands before calling an iterative solver
           187 MiB given to the printing process from OS
             0 MiB allocation reported by mallinfo(arena+hblkhd)
         55859 MiB available memory on the node where the printing process lives
------------------
     ethr =  1.00E-02,  avg # of iterations =  2.0

     negative rho (up, down):  1.674E-03 0.000E+00

     total cpu time spent up to now is        2.3 secs

     total energy              =    -413.21428670 Ry
     estimated scf accuracy    <       1.37081853 Ry

     iteration #  2     ecut=    30.00 Ry     beta= 0.70
     Davidson diagonalization with overlap

---- Real-time Memory Report at c_bands before calling an iterative solver
           224 MiB given to the printing process from OS
             0 MiB allocation reported by mallinfo(arena+hblkhd)
         54863 MiB available memory on the node where the printing process lives
------------------
     ethr =  3.43E-03,  avg # of iterations =  3.0

     negative rho (up, down):  1.749E-03 0.000E+00

     total cpu time spent up to now is        3.4 secs

     total energy              =    -413.67483358 Ry
     estimated scf accuracy    <       0.58356851 Ry

     iteration #  3     ecut=    30.00 Ry     beta= 0.70
     Davidson diagonalization with overlap

---- Real-time Memory Report at c_bands before calling an iterative solver
           229 MiB given to the printing process from OS
             0 MiB allocation reported by mallinfo(arena+hblkhd)
         54838 MiB available memory on the node where the printing process lives
------------------
     ethr =  1.46E-03,  avg # of iterations =  2.0

     negative rho (up, down):  1.748E-03 0.000E+00

     total cpu time spent up to now is        4.3 secs

     total energy              =    -413.79038917 Ry
     estimated scf accuracy    <       0.00962178 Ry

     iteration #  4     ecut=    30.00 Ry     beta= 0.70
     Davidson diagonalization with overlap

---- Real-time Memory Report at c_bands before calling an iterative solver
           234 MiB given to the printing process from OS
             0 MiB allocation reported by mallinfo(arena+hblkhd)
         54826 MiB available memory on the node where the printing process lives
------------------
     ethr =  2.41E-05,  avg # of iterations =  5.0

     negative rho (up, down):  1.752E-03 0.000E+00

     total cpu time spent up to now is        5.5 secs

     total energy              =    -413.79593665 Ry
     estimated scf accuracy    <       0.00904101 Ry

     iteration #  5     ecut=    30.00 Ry     beta= 0.70
     Davidson diagonalization with overlap

---- Real-time Memory Report at c_bands before calling an iterative solver
           239 MiB given to the printing process from OS
             0 MiB allocation reported by mallinfo(arena+hblkhd)
         54808 MiB available memory on the node where the printing process lives
------------------
     ethr =  2.26E-05,  avg # of iterations =  2.0

     negative rho (up, down):  1.779E-03 0.000E+00

     total cpu time spent up to now is        6.5 secs

     total energy              =    -413.79653532 Ry
     estimated scf accuracy    <       0.00098385 Ry

     iteration #  6     ecut=    30.00 Ry     beta= 0.70
     Davidson diagonalization with overlap

---- Real-time Memory Report at c_bands before calling an iterative solver
           241 MiB given to the printing process from OS
             0 MiB allocation reported by mallinfo(arena+hblkhd)
         54807 MiB available memory on the node where the printing process lives
------------------
     ethr =  2.46E-06,  avg # of iterations =  4.5

     negative rho (up, down):  1.778E-03 0.000E+00

     total cpu time spent up to now is        7.6 secs

     total energy              =    -413.79692245 Ry
     estimated scf accuracy    <       0.00118175 Ry

     iteration #  7     ecut=    30.00 Ry     beta= 0.70
     Davidson diagonalization with overlap

---- Real-time Memory Report at c_bands before calling an iterative solver
           243 MiB given to the printing process from OS
             0 MiB allocation reported by mallinfo(arena+hblkhd)
         54804 MiB available memory on the node where the printing process lives
------------------
     ethr =  2.46E-06,  avg # of iterations =  2.0

     negative rho (up, down):  1.775E-03 0.000E+00

     total cpu time spent up to now is        8.6 secs

     total energy              =    -413.79705561 Ry
     estimated scf accuracy    <       0.00005159 Ry

     iteration #  8     ecut=    30.00 Ry     beta= 0.70
     Davidson diagonalization with overlap

---- Real-time Memory Report at c_bands before calling an iterative solver
           245 MiB given to the printing process from OS
             0 MiB allocation reported by mallinfo(arena+hblkhd)
         54803 MiB available memory on the node where the printing process lives
------------------
     ethr =  1.29E-07,  avg # of iterations =  4.6

     negative rho (up, down):  1.775E-03 0.000E+00

     total cpu time spent up to now is        9.6 secs

     total energy              =    -413.79708850 Ry
     estimated scf accuracy    <       0.00002442 Ry

     iteration #  9     ecut=    30.00 Ry     beta= 0.70
     Davidson diagonalization with overlap

---- Real-time Memory Report at c_bands before calling an iterative solver
           247 MiB given to the printing process from OS
             0 MiB allocation reported by mallinfo(arena+hblkhd)
         54802 MiB available memory on the node where the printing process lives
------------------
     ethr =  6.10E-08,  avg # of iterations =  2.0

     negative rho (up, down):  1.775E-03 0.000E+00

     total cpu time spent up to now is       10.6 secs

     total energy              =    -413.79709089 Ry
     estimated scf accuracy    <       0.00000211 Ry

     iteration # 10     ecut=    30.00 Ry     beta= 0.70
     Davidson diagonalization with overlap

---- Real-time Memory Report at c_bands before calling an iterative solver
           248 MiB given to the printing process from OS
             0 MiB allocation reported by mallinfo(arena+hblkhd)
         54803 MiB available memory on the node where the printing process lives
------------------
     ethr =  5.28E-09,  avg # of iterations =  4.0

     negative rho (up, down):  1.775E-03 0.000E+00

     total cpu time spent up to now is       11.6 secs

     total energy              =    -413.79709171 Ry
     estimated scf accuracy    <       0.00000011 Ry

     iteration # 11     ecut=    30.00 Ry     beta= 0.70
     Davidson diagonalization with overlap

---- Real-time Memory Report at c_bands before calling an iterative solver
           250 MiB given to the printing process from OS
             0 MiB allocation reported by mallinfo(arena+hblkhd)
         54802 MiB available memory on the node where the printing process lives
------------------
     ethr =  2.69E-10,  avg # of iterations =  4.2

     negative rho (up, down):  1.775E-03 0.000E+00

     total cpu time spent up to now is       12.7 secs

     total energy              =    -413.79709177 Ry
     estimated scf accuracy    <       0.00000005 Ry

     iteration # 12     ecut=    30.00 Ry     beta= 0.70
     Davidson diagonalization with overlap

---- Real-time Memory Report at c_bands before calling an iterative solver
           251 MiB given to the printing process from OS
             0 MiB allocation reported by mallinfo(arena+hblkhd)
         54802 MiB available memory on the node where the printing process lives
------------------
     ethr =  1.30E-10,  avg # of iterations =  2.0

     negative rho (up, down):  1.775E-03 0.000E+00

     total cpu time spent up to now is       13.6 secs

     End of self-consistent calculation

          k = 0.0000 0.0000 0.0000 (  7835 PWs)   bands (ev):

   -22.5415 -22.5308 -22.5288 -22.5235 -22.5174 -22.4966 -22.4932 -22.4870
   -22.4836 -22.4746 -14.5787 -13.5774  -7.6013  -6.5097  -4.7699  -4.4765
    -4.0153  -3.1904  -2.8968  -1.8330

     occupation numbers 
     1.0000   1.0000   1.0000   1.0000   1.0000   1.0000   1.0000   1.0000
     1.0000   1.0000   1.0000   1.0000   1.0000   1.0000   1.0000   1.0000
     1.0000   1.0000   1.0000   1.0000

          k = 0.0000 0.1365 0.0000 (  7817 PWs)   bands (ev):

   -22.5392 -22.5303 -22.5287 -22.5250 -22.5161 -22.4970 -22.4936 -22.4860
   -22.4848 -22.4746 -14.5053 -13.5576  -7.7625  -6.7394  -4.7219  -4.3892
    -3.9587  -3.1759  -2.6738  -1.8773

     occupation numbers 
     1.0000   1.0000   1.0000   1.0000   1.0000   1.0000   1.0000   1.0000
     1.0000   1.0000   1.0000   1.0000   1.0000   1.0000   1.0000   1.0000
     1.0000   1.0000   1.0000   1.0000

          k = 0.0000 0.2730 0.0000 (  7842 PWs)   bands (ev):

   -22.5355 -22.5336 -22.5265 -22.5242 -22.5131 -22.4986 -22.4941 -22.4876
   -22.4834 -22.4746 -14.3005 -13.5279  -8.1194  -7.3073  -4.5062  -4.1394
    -3.7243  -3.0642  -2.1988  -2.0485

     occupation numbers 
     1.0000   1.0000   1.0000   1.0000   1.0000   1.0000   1.0000   1.0000
     1.0000   1.0000   1.0000   1.0000   1.0000   1.0000   1.0000   1.0000
     1.0000   1.0000   1.0000   1.0000

          k = 0.0000 0.4095 0.0000 (  7852 PWs)   bands (ev):

   -22.5368 -22.5365 -22.5229 -22.5203 -22.5092 -22.5014 -22.4941 -22.4906
   -22.4801 -22.4753 -14.0148 -13.5660  -8.3859  -7.9241  -4.1185  -3.7723
    -3.4113  -3.0036  -2.2166  -1.7015

     occupation numbers 
     1.0000   1.0000   1.0000   1.0000   1.0000   1.0000   1.0000   1.0000
     1.0000   1.0000   1.0000   1.0000   1.0000   1.0000   1.0000   1.0000
     1.0000   1.0000   1.0000   1.0000

          k = 0.0000-0.5460 0.0000 (  7850 PWs)   bands (ev):

   -22.5379 -22.5379 -22.5198 -22.5198 -22.5051 -22.5051 -22.4929 -22.4929
   -22.4770 -22.4770 -13.7373 -13.7373  -8.3319  -8.3319  -3.7059  -3.7059
    -3.2009  -3.2009  -1.8996  -1.8996

     occupation numbers 
     1.0000   1.0000   1.0000   1.0000   1.0000   1.0000   1.0000   1.0000
     1.0000   1.0000   1.0000   1.0000   1.0000   1.0000   1.0000   1.0000
     1.0000   1.0000   1.0000   1.0000

          k = 0.1250 0.0000 0.0000 (  7811 PWs)   bands (ev):

   -22.5409 -22.5308 -22.5291 -22.5242 -22.5157 -22.4966 -22.4928 -22.4867
   -22.4839 -22.4752 -14.5219 -13.5812  -7.8202  -6.8107  -4.7136  -4.1911
    -3.9234  -2.8472  -2.8106  -1.9207

     occupation numbers 
     1.0000   1.0000   1.0000   1.0000   1.0000   1.0000   1.0000   1.0000
     1.0000   1.0000   1.0000   1.0000   1.0000   1.0000   1.0000   1.0000
     1.0000   1.0000   1.0000   1.0000

          k = 0.1250 0.1365 0.0000 (  7808 PWs)   bands (ev):

   -22.5388 -22.5309 -22.5286 -22.5258 -22.5144 -22.4970 -22.4932 -22.4856
   -22.4851 -22.4751 -14.4499 -13.5600  -7.9001  -6.9535  -4.6515  -4.5911
    -3.4815  -3.3299  -2.2549  -1.9233

     occupation numbers 
     1.0000   1.0000   1.0000   1.0000   1.0000   1.0000   1.0000   1.0000
     1.0000   1.0000   1.0000   1.0000   1.0000   1.0000   1.0000   1.0000
     1.0000   1.0000   1.0000   1.0000

          k = 0.1250 0.2730 0.0000 (  7831 PWs)   bands (ev):

   -22.5360 -22.5344 -22.5267 -22.5240 -22.5115 -22.4985 -22.4940 -22.4879
   -22.4831 -22.4750 -14.2499 -13.5257  -8.1194  -7.3679  -4.7661  -4.4542
    -3.4718  -3.1122  -2.0267  -1.9390

     occupation numbers 
     1.0000   1.0000   1.0000   1.0000   1.0000   1.0000   1.0000   1.0000
     1.0000   1.0000   1.0000   1.0000   1.0000   1.0000   1.0000   1.0000
     1.0000   1.0000   1.0000   1.0000

          k = 0.1250 0.4095 0.0000 (  7855 PWs)   bands (ev):

   -22.5379 -22.5378 -22.5226 -22.5201 -22.5081 -22.5012 -22.4940 -22.4907
   -22.4798 -22.4754 -13.9736 -13.5536  -8.3142  -7.8877  -4.5148  -4.1174
    -3.4323  -3.1389  -2.2602  -1.9177

     occupation numbers 
     1.0000   1.0000   1.0000   1.0000   1.0000   1.0000   1.0000   1.0000
     1.0000   1.0000   1.0000   1.0000   1.0000   1.0000   1.0000   1.0000
     1.0000   1.0000   1.0000   1.0000

          k = 0.1250-0.5460 0.0000 (  7868 PWs)   bands (ev):

   -22.5392 -22.5392 -22.5195 -22.5195 -22.5046 -22.5046 -22.4928 -22.4928
   -22.4769 -22.4769 -13.7102 -13.7102  -8.2547  -8.2547  -4.0334  -4.0334
    -3.4722  -3.4722  -2.1182  -2.1182

     occupation numbers 
     1.0000   1.0000   1.0000   1.0000   1.0000   1.0000   1.0000   1.0000
     1.0000   1.0000   1.0000   1.0000   1.0000   1.0000   1.0000   1.0000
     1.0000   1.0000   1.0000   1.0000

          k = 0.2500 0.0000 0.0000 (  7805 PWs)   bands (ev):

   -22.5392 -22.5312 -22.5299 -22.5261 -22.5112 -22.4969 -22.4916 -22.4858
   -22.4848 -22.4770 -14.3624 -13.6110  -8.2210  -7.4358  -4.4942  -3.6625
    -3.6066  -2.7414  -2.1440  -2.0059

     occupation numbers 
     1.0000   1.0000   1.0000   1.0000   1.0000   1.0000   1.0000   1.0000
     1.0000   1.0000   1.0000   1.0000   1.0000   1.0000   1.0000   1.0000
     1.0000   1.0000   1.0000   1.0000

          k = 0.2500 0.1365 0.0000 (  7816 PWs)   bands (ev):

   -22.5376 -22.5322 -22.5286 -22.5275 -22.5101 -22.4973 -22.4924 -22.4860
   -22.4846 -22.4765 -14.2949 -13.5853  -8.1879  -7.4525  -4.5598  -4.4305
    -3.3507  -2.9879  -1.9242  -1.8108

     occupation numbers 
     1.0000   1.0000   1.0000   1.0000   1.0000   1.0000   1.0000   1.0000
     1.0000   1.0000   1.0000   1.0000   1.0000   1.0000   1.0000   1.0000
     1.0000   1.0000   1.0000   1.0000

          k = 0.2500 0.2730 0.0000 (  7852 PWs)   bands (ev):

   -22.5374 -22.5364 -22.5267 -22.5239 -22.5078 -22.4986 -22.4935 -22.4885
   -22.4820 -22.4759 -14.1101 -13.5350  -8.1364  -7.5601  -5.2097  -4.3194
    -3.8769  -2.9353  -2.4450  -1.6767

     occupation numbers 
     1.0000   1.0000   1.0000   1.0000   1.0000   1.0000   1.0000   1.0000
     1.0000   1.0000   1.0000   1.0000   1.0000   1.0000   1.0000   1.0000
     1.0000   1.0000   1.0000   1.0000

          k = 0.2500 0.4095 0.0000 (  7843 PWs)   bands (ev):

   -22.5407 -22.5406 -22.5220 -22.5198 -22.5055 -22.5009 -22.4935 -22.4907
   -22.4790 -22.4757 -13.8631 -13.5313  -8.1239  -7.8059  -5.2821  -4.2303
    -4.1073  -3.2517  -3.0060  -2.1254

     occupation numbers 
     1.0000   1.0000   1.0000   1.0000   1.0000   1.0000   1.0000   1.0000
     1.0000   1.0000   1.0000   1.0000   1.0000   1.0000   1.0000   1.0000
     1.0000   1.0000   1.0000   1.0000

          k = 0.2500-0.5460 0.0000 (  7860 PWs)   bands (ev):

   -22.5423 -22.5423 -22.5191 -22.5191 -22.5032 -22.5032 -22.4924 -22.4924
   -22.4767 -22.4767 -13.6428 -13.6428  -8.0417  -8.0417  -4.8160  -4.8160
    -3.7697  -3.7697  -2.7189  -2.7189

     occupation numbers 
     1.0000   1.0000   1.0000   1.0000   1.0000   1.0000   1.0000   1.0000
     1.0000   1.0000   1.0000   1.0000   1.0000   1.0000   1.0000   1.0000
     1.0000   1.0000   1.0000   1.0000

          k = 0.3750 0.0000 0.0000 (  7803 PWs)   bands (ev):

   -22.5368 -22.5323 -22.5304 -22.5284 -22.5057 -22.4981 -22.4899 -22.4862
   -22.4841 -22.4794 -14.1337 -13.7083  -8.4672  -8.0299  -4.1207  -3.3230
    -3.2861  -2.7147  -2.1020  -1.2341

     occupation numbers 
     1.0000   1.0000   1.0000   1.0000   1.0000   1.0000   1.0000   1.0000
     1.0000   1.0000   1.0000   1.0000   1.0000   1.0000   1.0000   1.0000
     1.0000   1.0000   1.0000   1.0000

          k = 0.3750 0.1365 0.0000 (  7804 PWs)   bands (ev):

   -22.5361 -22.5336 -22.5291 -22.5290 -22.5050 -22.4983 -22.4909 -22.4874
   -22.4829 -22.4786 -14.0746 -13.6735  -8.3803  -7.9715  -4.2391  -4.0747
    -3.3708  -3.1195  -1.7831  -1.6534

     occupation numbers 
     1.0000   1.0000   1.0000   1.0000   1.0000   1.0000   1.0000   1.0000
     1.0000   1.0000   1.0000   1.0000   1.0000   1.0000   1.0000   1.0000
     1.0000   1.0000   1.0000   1.0000

          k = 0.3750 0.2730 0.0000 (  7816 PWs)   bands (ev):

   -22.5389 -22.5384 -22.5260 -22.5242 -22.5039 -22.4993 -22.4923 -22.4894
   -22.4805 -22.4772 -13.9172 -13.5935  -8.1522  -7.8384  -5.1897  -4.3007
    -4.0034  -3.2182  -2.8038  -2.0275

     occupation numbers 
     1.0000   1.0000   1.0000   1.0000   1.0000   1.0000   1.0000   1.0000
     1.0000   1.0000   1.0000   1.0000   1.0000   1.0000   1.0000   1.0000
     1.0000   1.0000   1.0000   1.0000

          k = 0.3750 0.4095 0.0000 (  7823 PWs)   bands (ev):

   -22.5434 -22.5433 -22.5212 -22.5199 -22.5029 -22.5008 -22.4925 -22.4908
   -22.4780 -22.4763 -13.7210 -13.5352  -7.9025  -7.7472  -5.6452  -4.8599
    -4.3698  -3.6938  -3.1202  -2.5951

     occupation numbers 
     1.0000   1.0000   1.0000   1.0000   1.0000   1.0000   1.0000   1.0000
     1.0000   1.0000   1.0000   1.0000   1.0000   1.0000   1.0000   1.0000
     1.0000   1.0000   1.0000   1.0000

          k = 0.3750-0.5460 0.0000 (  7836 PWs)   bands (ev):

   -22.5454 -22.5454 -22.5187 -22.5187 -22.5020 -22.5020 -22.4918 -22.4918
   -22.4764 -22.4764 -13.5726 -13.5726  -7.7703  -7.7703  -5.4262  -5.4262
    -4.2955  -4.2955  -2.9036  -2.9036

     occupation numbers 
     1.0000   1.0000   1.0000   1.0000   1.0000   1.0000   1.0000   1.0000
     1.0000   1.0000   1.0000   1.0000   1.0000   1.0000   1.0000   1.0000
     1.0000   1.0000   1.0000   1.0000

          k =-0.5000 0.0000 0.0000 (  7804 PWs)   bands (ev):

   -22.5343 -22.5343 -22.5300 -22.5300 -22.5010 -22.5010 -22.4880 -22.4880
   -22.4819 -22.4819 -13.8937 -13.8937  -8.4051  -8.4051  -3.6627  -3.6627
    -2.9127  -2.9127  -1.4694  -1.4694

     occupation numbers 
     1.0000   1.0000   1.0000   1.0000   1.0000   1.0000   1.0000   1.0000
     1.0000   1.0000   1.0000   1.0000   1.0000   1.0000   1.0000   1.0000
     1.0000   1.0000   1.0000   1.0000

          k =-0.5000 0.1365 0.0000 (  7798 PWs)   bands (ev):

   -22.5348 -22.5348 -22.5296 -22.5296 -22.5009 -22.5009 -22.4891 -22.4891
   -22.4808 -22.4808 -13.8465 -13.8465  -8.3140  -8.3140  -3.8290  -3.8290
    -3.5031  -3.5031  -1.6638  -1.6638

     occupation numbers 
     1.0000   1.0000   1.0000   1.0000   1.0000   1.0000   1.0000   1.0000
     1.0000   1.0000   1.0000   1.0000   1.0000   1.0000   1.0000   1.0000
     1.0000   1.0000   1.0000   1.0000

          k =-0.5000 0.2730 0.0000 (  7794 PWs)   bands (ev):

   -22.5394 -22.5394 -22.5250 -22.5250 -22.5009 -22.5009 -22.4908 -22.4908
   -22.4788 -22.4788 -13.7270 -13.7270  -8.0668  -8.0668  -4.7964  -4.7964
    -3.6474  -3.6474  -2.5667  -2.5667

     occupation numbers 
     1.0000   1.0000   1.0000   1.0000   1.0000   1.0000   1.0000   1.0000
     1.0000   1.0000   1.0000   1.0000   1.0000   1.0000   1.0000   1.0000
     1.0000   1.0000   1.0000   1.0000

          k =-0.5000 0.4095 0.0000 (  7806 PWs)   bands (ev):

   -22.5445 -22.5445 -22.5204 -22.5204 -22.5014 -22.5014 -22.4914 -22.4914
   -22.4770 -22.4770 -13.5987 -13.5987  -7.7688  -7.7688  -5.4693  -5.4693
    -4.1792  -4.1792  -2.9102  -2.9102

     occupation numbers 
     1.0000   1.0000   1.0000   1.0000   1.0000   1.0000   1.0000   1.0000
     1.0000   1.0000   1.0000   1.0000   1.0000   1.0000   1.0000   1.0000
     1.0000   1.0000   1.0000   1.0000

          k =-0.5000-0.5460 0.0000 (  7764 PWs)   bands (ev):

   -22.5466 -22.5466 -22.5186 -22.5186 -22.5016 -22.5016 -22.4914 -22.4914
   -22.4763 -22.4763 -13.5426 -13.5426  -7.6278  -7.6278  -5.6598  -5.6598
    -4.5551  -4.5551  -2.9169  -2.9169

     occupation numbers 
     1.0000   1.0000   1.0000   1.0000   1.0000   1.0000   1.0000   1.0000
     1.0000   1.0000   1.0000   1.0000   1.0000   1.0000   1.0000   1.0000
     1.0000   1.0000   1.0000   1.0000

     highest occupied level (ev):    -1.2341

!    total energy              =    -413.79709177 Ry
     estimated scf accuracy    <          7.7E-09 Ry

     The total energy is the sum of the following terms:
     one-electron contribution =   -1353.62825061 Ry
     hartree contribution      =     688.48901198 Ry
     xc contribution           =    -154.41509296 Ry
     ewald contribution        =     405.75723983 Ry

     convergence has been achieved in  12 iterations

     negative rho (up, down):  1.775E-03 0.000E+00

     Forces acting on atoms (cartesian axes, Ry/au):

     atom    1 type  1   force =     0.00003809    0.00000000    0.00013173
     atom    2 type  2   force =    -0.00003809    0.00000000    0.00047836
     atom    3 type  2   force =    -0.00003809    0.00000000   -0.00047836
     atom    4 type  1   force =     0.00003809   -0.00000000   -0.00013173
     The non-local contrib.  to forces
     atom    1 type  1   force =     0.24651335    0.00000000    0.44500191
     atom    2 type  2   force =    -0.07979044    0.00000000    0.19454384
     atom    3 type  2   force =    -0.07979044    0.00000000   -0.19454384
     atom    4 type  1   force =     0.24651335    0.00000000   -0.44500191
     The ionic contribution  to forces
     atom    1 type  1   force =    -1.27654529   -0.00000000  -38.64019858
     atom    2 type  2   force =     1.27654529   -0.00000000  -17.22072956
     atom    3 type  2   force =     1.27654529   -0.00000000   17.22072956
     atom    4 type  1   force =    -1.27654529   -0.00000000   38.64019857
     The local contribution  to forces
     atom    1 type  1   force =     1.03374276    0.00000000   38.20291093
     atom    2 type  2   force =    -1.20560696   -0.00000000   17.04892418
     atom    3 type  2   force =    -1.20560696    0.00000000  -17.04892418
     atom    4 type  1   force =     1.03374276    0.00000000  -38.20291093
     The core correction contribution to forces
     atom    1 type  1   force =    -0.00371143    0.00000000   -0.00770241
     atom    2 type  2   force =     0.00880514    0.00000000   -0.02225066
     atom    3 type  2   force =     0.00880514   -0.00000000    0.02225066
     atom    4 type  1   force =    -0.00371143   -0.00000000    0.00770241
     The Hubbard contrib.    to forces
     atom    1 type  1   force =     0.00000000    0.00000000    0.00000000
     atom    2 type  2   force =     0.00000000    0.00000000    0.00000000
     atom    3 type  2   force =     0.00000000    0.00000000    0.00000000
     atom    4 type  1   force =     0.00000000    0.00000000    0.00000000
     The SCF correction term to forces
     atom    1 type  1   force =     0.00003714    0.00000000    0.00011987
     atom    2 type  2   force =     0.00000731   -0.00000000   -0.00000945
     atom    3 type  2   force =     0.00000731   -0.00000000    0.00000945
     atom    4 type  1   force =     0.00003714   -0.00000000   -0.00011987

     Total force =     0.000706     Total SCF correction =     0.000178
     SCF correction compared to forces is large: reduce conv_thr to get better values

     Writing all to output data dir ./tmp/SnSe_monolayer.save/ :
     XML data file, charge density, pseudopotentials, collected wavefunctions
 
     init_run     :      0.76s CPU      0.89s WALL (       1 calls)
     electrons    :     11.00s CPU     12.54s WALL (       1 calls)
     forces       :      0.28s CPU      0.35s WALL (       1 calls)

     Called by init_run:
     wfcinit      :      0.21s CPU      0.23s WALL (       1 calls)
     wfcinit:atom :      0.00s CPU      0.00s WALL (       7 calls)
     wfcinit:wfcr :      0.17s CPU      0.18s WALL (       7 calls)
     potinit      :      0.11s CPU      0.13s WALL (       1 calls)
     hinit0       :      0.11s CPU      0.12s WALL (       1 calls)

     Called by electrons:
     c_bands      :      6.03s CPU      6.32s WALL (      12 calls)
     sum_band     :      2.40s CPU      3.18s WALL (      12 calls)
     v_of_rho     :      1.01s CPU      1.08s WALL (      13 calls)
     v_h          :      0.07s CPU      0.08s WALL (      13 calls)
     v_xc         :      1.00s CPU      1.08s WALL (      14 calls)
     newd         :      1.54s CPU      1.92s WALL (      13 calls)
     mix_rho      :      0.11s CPU      0.13s WALL (      12 calls)

     Called by c_bands:
     init_us_2    :      0.24s CPU      0.25s WALL (     182 calls)
     cegterg      :      4.80s CPU      5.02s WALL (      84 calls)

     Called by sum_band:
     sum_band:wei :      0.00s CPU      0.00s WALL (      12 calls)
     sum_band:loo :      1.02s CPU      1.03s WALL (      12 calls)
     sum_band:buf :      0.02s CPU      0.02s WALL (      84 calls)
     sum_band:ini :      0.11s CPU      0.11s WALL (      84 calls)
     sum_band:cal :      0.08s CPU      0.09s WALL (      84 calls)
     sum_band:bec :      0.00s CPU      0.00s WALL (      84 calls)
     addusdens    :      1.17s CPU      1.86s WALL (      12 calls)
                                        0.00s GPU  (      12 calls)
     addusd:skk   :      0.00s CPU      0.00s WALL (      24 calls)
                                        0.00s GPU  (      24 calls)

     Called by *egterg:
     cdiaghg      :      0.15s CPU      0.16s WALL (     345 calls)
     cegterg:over :      0.19s CPU      0.20s WALL (     261 calls)
     cegterg:upda :      0.08s CPU      0.09s WALL (     261 calls)
     cegterg:last :      0.19s CPU      0.19s WALL (     200 calls)
     h_psi        :      3.91s CPU      4.03s WALL (     352 calls)
     s_psi        :      0.24s CPU      0.25s WALL (     352 calls)
     g_psi        :      0.02s CPU      0.02s WALL (     261 calls)

     Called by h_psi:
     h_psi:calbec :      0.26s CPU      0.26s WALL (     352 calls)
     vloc_psi     :      3.32s CPU      3.43s WALL (     352 calls)
     add_vuspsi   :      0.28s CPU      0.28s WALL (     352 calls)

     General routines
     calbec       :      0.38s CPU      0.38s WALL (     464 calls)
     fft          :      0.55s CPU      0.61s WALL (     178 calls)
     ffts         :      0.01s CPU      0.01s WALL (      25 calls)
     fftw         :      2.47s CPU      2.55s WALL (   11458 calls)
     interpolate  :      0.05s CPU      0.05s WALL (      13 calls)
 
     Parallel routines
 
     PWSCF        :     12.30s CPU     14.33s WALL

 
   This run was terminated on:  21: 3: 5  24May2026            

=------------------------------------------------------------------------------=
   JOB DONE.
=------------------------------------------------------------------------------=
