
     Program PWSCF v.7.3.1 starts on 24May2026 at 21: 2:16 

     This program is part of the open-source Quantum ESPRESSO suite
     for quantum simulation of materials; please cite
         "P. Giannozzi et al., J. Phys.:Condens. Matter 21 395502 (2009);
         "P. Giannozzi et al., J. Phys.:Condens. Matter 29 465901 (2017);
         "P. Giannozzi et al., J. Chem. Phys. 152 154105 (2020);
          URL http://www.quantum-espresso.org", 
     in publications or presentations arising from this work. More details at
     http://www.quantum-espresso.org/quote

     Parallel version (MPI & OpenMP), running on      16 processor cores
     Number of MPI processes:                16
     Threads/MPI process:                     1

     MPI processes distributed on     1 nodes
     56845 MiB available memory on the printing compute node when the environment starts
 
     Waiting for input...
     Reading input from standard input

     Current dimensions of program PWSCF are:
     Max number of different atomic species (ntypx) = 10
     Max number of k-points (npk) =  40000
     Max angular momentum in pseudopotentials (lmaxx) =  4
     Message from routine setup:
     using ibrav=0 with symmetry is DISCOURAGED, use correct ibrav instead
 
     K-points division:     npool     =       4
     R & G space division:  proc/nbgrp/npool/nimage =       4
     Subspace diagonalization in iterative solution of the eigenvalue problem:
     a serial algorithm will be used

 
     Parallelization info
     --------------------
     sticks:   dense  smooth     PW     G-vecs:    dense   smooth      PW
     Min         407     160     49                50659    12785    2122
     Max         408     161     51                50666    12792    2125
     Sum        1629     641    199               202643    51159    8495
 
     Using Slab Decomposition
 


     bravais-lattice index     =            0
     lattice parameter (alat)  =       8.6086  a.u.
     unit-cell volume          =    2308.2721 (a.u.)^3
     number of atoms/cell      =            4
     number of atomic types    =            2
     number of electrons       =        40.00
     number of Kohn-Sham states=           20
     kinetic-energy cutoff     =      30.0000  Ry
     charge density cutoff     =     300.0000  Ry
     scf convergence threshold =      1.0E-08
     mixing beta               =       0.7000
     number of iterations used =            8  plain     mixing
     Exchange-correlation= SLA  PW   PBE  PBE
                           (   1   4   3   4   0   0   0)

     celldm(1)=   8.608647  celldm(2)=   0.000000  celldm(3)=   0.000000
     celldm(4)=   0.000000  celldm(5)=   0.000000  celldm(6)=   0.000000

     crystal axes: (cart. coord. in units of alat)
               a(1) = (   1.000000   0.000000   0.000000 )  
               a(2) = (   0.000000   0.915684   0.000000 )  
               a(3) = (   0.000000   0.000000   3.951268 )  

     reciprocal axes: (cart. coord. in units 2 pi/alat)
               b(1) = (  1.000000  0.000000  0.000000 )  
               b(2) = (  0.000000  1.092079  0.000000 )  
               b(3) = (  0.000000  0.000000  0.253083 )  


     PseudoPot. # 1 for Sn read from file:
     ../pseudo/Sn_pbe_v1.uspp.F.UPF
     MD5 check sum: 4cf58ce39ec5d5d420df3dd08604eb00
     Pseudo is Ultrasoft + core correction, Zval = 14.0
     Generated by new atomic code, or converted to UPF format
     Using radial grid of  891 points,  6 beta functions with: 
                l(1) =   0
                l(2) =   0
                l(3) =   1
                l(4) =   1
                l(5) =   2
                l(6) =   2
     Q(r) pseudized with  6 coefficients,  rinner =    1.200   1.200   1.200
                                                       1.200   1.200

     PseudoPot. # 2 for Se read from file:
     ../pseudo/Se_pbe_v1.uspp.F.UPF
     MD5 check sum: 1b3568f3a8ae88f9a2a0ad0698632c85
     Pseudo is Ultrasoft + core correction, Zval =  6.0
     Generated by new atomic code, or converted to UPF format
     Using radial grid of  877 points,  6 beta functions with: 
                l(1) =   0
                l(2) =   0
                l(3) =   1
                l(4) =   1
                l(5) =   2
                l(6) =   2
     Q(r) pseudized with  8 coefficients,  rinner =    1.300   1.300   1.300
                                                       1.300   1.300

     atomic species   valence    mass     pseudopotential
     Sn               14.00   118.71000     Sn( 1.00)
     Se                6.00    78.97100     Se( 1.00)

      4 Sym. Ops. (no inversion) found ( 3 have fractional translation)


                                    s                        frac. trans.

      isym =  1     identity                                     

 cryst.   s( 1) = (     1          0          0      )
                  (     0          1          0      )
                  (     0          0          1      )

 cart.    s( 1) = (  1.0000000  0.0000000  0.0000000 )
                  (  0.0000000  1.0000000  0.0000000 )
                  (  0.0000000  0.0000000  1.0000000 )


      isym =  2     180 deg rotation - cart. axis [1,0,0]        

 cryst.   s( 2) = (     1          0          0      )    f =(  0.5000000 )
                  (     0         -1          0      )       (  0.0000000 )
                  (     0          0         -1      )       (  0.0000000 )

 cart.    s( 2) = (  1.0000000  0.0000000  0.0000000 )    f =(  0.5000000 )
                  (  0.0000000 -1.0000000  0.0000000 )       (  0.0000000 )
                  (  0.0000000  0.0000000 -1.0000000 )       (  0.0000000 )


      isym =  3     inv. 180 deg rotation - cart. axis [0,0,1]   

 cryst.   s( 3) = (     1          0          0      )    f =(  0.5000000 )
                  (     0          1          0      )       (  0.5000000 )
                  (     0          0         -1      )       (  0.0000000 )

 cart.    s( 3) = (  1.0000000  0.0000000  0.0000000 )    f =(  0.5000000 )
                  (  0.0000000  1.0000000  0.0000000 )       (  0.4578422 )
                  (  0.0000000  0.0000000 -1.0000000 )       (  0.0000000 )


      isym =  4     inv. 180 deg rotation - cart. axis [0,1,0]   

 cryst.   s( 4) = (     1          0          0      )    f =(  0.0000000 )
                  (     0         -1          0      )       (  0.5000000 )
                  (     0          0          1      )       (  0.0000000 )

 cart.    s( 4) = (  1.0000000  0.0000000  0.0000000 )    f =(  0.0000000 )
                  (  0.0000000 -1.0000000  0.0000000 )       (  0.4578422 )
                  (  0.0000000  0.0000000  1.0000000 )       (  0.0000000 )


   Cartesian axes

     site n.     atom                  positions (alat units)
         1        Sn     tau(   1) = (   0.0995059   0.6867633   1.6704079  )
         2        Se     tau(   2) = (   0.5295331   0.2289211   1.6846100  )
         3        Se     tau(   3) = (   0.0295331   0.6867633   2.2666577  )
         4        Sn     tau(   4) = (   0.5995059   0.2289211   2.2808597  )

   Crystallographic axes

     site n.     atom                  positions (cryst. coord.)
         1        Sn     tau(   1) = (  0.0995059  0.7500000  0.4227524  )
         2        Se     tau(   2) = (  0.5295331  0.2500000  0.4263467  )
         3        Se     tau(   3) = (  0.0295331  0.7500000  0.5736533  )
         4        Sn     tau(   4) = (  0.5995059  0.2500000  0.5772476  )

     number of k points=    25
                       cart. coord. in units 2pi/alat
        k(    1) = (   0.0000000   0.0000000   0.0000000), wk =   0.0312500
        k(    2) = (   0.0000000   0.1365099   0.0000000), wk =   0.0625000
        k(    3) = (   0.0000000   0.2730198   0.0000000), wk =   0.0625000
        k(    4) = (   0.0000000   0.4095298   0.0000000), wk =   0.0625000
        k(    5) = (   0.0000000  -0.5460397   0.0000000), wk =   0.0312500
        k(    6) = (   0.1250000   0.0000000   0.0000000), wk =   0.0625000
        k(    7) = (   0.1250000   0.1365099   0.0000000), wk =   0.1250000
        k(    8) = (   0.1250000   0.2730198   0.0000000), wk =   0.1250000
        k(    9) = (   0.1250000   0.4095298   0.0000000), wk =   0.1250000
        k(   10) = (   0.1250000  -0.5460397   0.0000000), wk =   0.0625000
        k(   11) = (   0.2500000   0.0000000   0.0000000), wk =   0.0625000
        k(   12) = (   0.2500000   0.1365099   0.0000000), wk =   0.1250000
        k(   13) = (   0.2500000   0.2730198   0.0000000), wk =   0.1250000
        k(   14) = (   0.2500000   0.4095298   0.0000000), wk =   0.1250000
        k(   15) = (   0.2500000  -0.5460397   0.0000000), wk =   0.0625000
        k(   16) = (   0.3750000   0.0000000   0.0000000), wk =   0.0625000
        k(   17) = (   0.3750000   0.1365099   0.0000000), wk =   0.1250000
        k(   18) = (   0.3750000   0.2730198   0.0000000), wk =   0.1250000
        k(   19) = (   0.3750000   0.4095298   0.0000000), wk =   0.1250000
        k(   20) = (   0.3750000  -0.5460397   0.0000000), wk =   0.0625000
        k(   21) = (  -0.5000000   0.0000000   0.0000000), wk =   0.0312500
        k(   22) = (  -0.5000000   0.1365099   0.0000000), wk =   0.0625000
        k(   23) = (  -0.5000000   0.2730198   0.0000000), wk =   0.0625000
        k(   24) = (  -0.5000000   0.4095298   0.0000000), wk =   0.0625000
        k(   25) = (  -0.5000000  -0.5460397   0.0000000), wk =   0.0312500

                       cryst. coord.
        k(    1) = (   0.0000000   0.0000000   0.0000000), wk =   0.0312500
        k(    2) = (   0.0000000   0.1250000   0.0000000), wk =   0.0625000
        k(    3) = (   0.0000000   0.2500000   0.0000000), wk =   0.0625000
        k(    4) = (   0.0000000   0.3750000   0.0000000), wk =   0.0625000
        k(    5) = (   0.0000000  -0.5000000   0.0000000), wk =   0.0312500
        k(    6) = (   0.1250000   0.0000000   0.0000000), wk =   0.0625000
        k(    7) = (   0.1250000   0.1250000   0.0000000), wk =   0.1250000
        k(    8) = (   0.1250000   0.2500000   0.0000000), wk =   0.1250000
        k(    9) = (   0.1250000   0.3750000   0.0000000), wk =   0.1250000
        k(   10) = (   0.1250000  -0.5000000   0.0000000), wk =   0.0625000
        k(   11) = (   0.2500000   0.0000000   0.0000000), wk =   0.0625000
        k(   12) = (   0.2500000   0.1250000   0.0000000), wk =   0.1250000
        k(   13) = (   0.2500000   0.2500000   0.0000000), wk =   0.1250000
        k(   14) = (   0.2500000   0.3750000   0.0000000), wk =   0.1250000
        k(   15) = (   0.2500000  -0.5000000   0.0000000), wk =   0.0625000
        k(   16) = (   0.3750000   0.0000000   0.0000000), wk =   0.0625000
        k(   17) = (   0.3750000   0.1250000   0.0000000), wk =   0.1250000
        k(   18) = (   0.3750000   0.2500000   0.0000000), wk =   0.1250000
        k(   19) = (   0.3750000   0.3750000   0.0000000), wk =   0.1250000
        k(   20) = (   0.3750000  -0.5000000   0.0000000), wk =   0.0625000
        k(   21) = (  -0.5000000   0.0000000   0.0000000), wk =   0.0312500
        k(   22) = (  -0.5000000   0.1250000   0.0000000), wk =   0.0625000
        k(   23) = (  -0.5000000   0.2500000   0.0000000), wk =   0.0625000
        k(   24) = (  -0.5000000   0.3750000   0.0000000), wk =   0.0625000
        k(   25) = (  -0.5000000  -0.5000000   0.0000000), wk =   0.0312500

     Dense  grid:   202643 G-vectors     FFT dimensions: (  48,  48, 192)

     Smooth grid:    51159 G-vectors     FFT dimensions: (  32,  30, 120)

     Dynamical RAM for                 wfc:       0.49 MB

     Dynamical RAM for     wfc (w. buffer):       3.91 MB

     Dynamical RAM for           str. fact:       1.55 MB

     Dynamical RAM for           local pot:       0.00 MB

     Dynamical RAM for          nlocal pot:       1.76 MB

     Dynamical RAM for                qrad:       2.78 MB

     Dynamical RAM for          rho,v,vnew:       4.85 MB

     Dynamical RAM for               rhoin:       1.62 MB

     Dynamical RAM for            rho*nmix:      12.37 MB

     Dynamical RAM for           G-vectors:       3.00 MB

     Dynamical RAM for          h,s,v(r/c):       0.07 MB

     Dynamical RAM for          <psi|beta>:       0.02 MB

     Dynamical RAM for                 psi:       0.98 MB

     Dynamical RAM for                hpsi:       0.98 MB

     Dynamical RAM for                spsi:       0.98 MB

     Dynamical RAM for      wfcinit/wfcrot:       1.29 MB

     Dynamical RAM for           addusdens:      36.91 MB

     Dynamical RAM for          addusforce:      37.12 MB

     Estimated static dynamical RAM per process >      26.00 MB

     Estimated max dynamical RAM per process >      75.48 MB

     Estimated total dynamical RAM >       1.03 GB

     Initial potential from superposition of free atoms

     starting charge      37.9998, renormalised to      40.0000

     negative rho (up, down):  1.726E-03 0.000E+00
     Starting wfcs are   26 randomized atomic wfcs

     total cpu time spent up to now is        0.8 secs

     Self-consistent Calculation

     iteration #  1     ecut=    30.00 Ry     beta= 0.70
     Davidson diagonalization with overlap

---- Real-time Memory Report at c_bands before calling an iterative solver
           179 MiB given to the printing process from OS
             0 MiB allocation reported by mallinfo(arena+hblkhd)
         55887 MiB available memory on the node where the printing process lives
------------------
     ethr =  1.00E-02,  avg # of iterations =  2.0

     negative rho (up, down):  1.229E-03 0.000E+00

     total cpu time spent up to now is        1.7 secs

     total energy              =    -413.21376603 Ry
     estimated scf accuracy    <       1.37146664 Ry

     iteration #  2     ecut=    30.00 Ry     beta= 0.70
     Davidson diagonalization with overlap

---- Real-time Memory Report at c_bands before calling an iterative solver
           205 MiB given to the printing process from OS
             0 MiB allocation reported by mallinfo(arena+hblkhd)
         55196 MiB available memory on the node where the printing process lives
------------------
     ethr =  3.43E-03,  avg # of iterations =  3.0

     negative rho (up, down):  1.288E-03 0.000E+00

     total cpu time spent up to now is        2.7 secs

     total energy              =    -413.67464819 Ry
     estimated scf accuracy    <       0.58429220 Ry

     iteration #  3     ecut=    30.00 Ry     beta= 0.70
     Davidson diagonalization with overlap

---- Real-time Memory Report at c_bands before calling an iterative solver
           212 MiB given to the printing process from OS
             0 MiB allocation reported by mallinfo(arena+hblkhd)
         55154 MiB available memory on the node where the printing process lives
------------------
     ethr =  1.46E-03,  avg # of iterations =  2.0

     negative rho (up, down):  1.288E-03 0.000E+00

     total cpu time spent up to now is        3.5 secs

     total energy              =    -413.79040713 Ry
     estimated scf accuracy    <       0.00967421 Ry

     iteration #  4     ecut=    30.00 Ry     beta= 0.70
     Davidson diagonalization with overlap

---- Real-time Memory Report at c_bands before calling an iterative solver
           215 MiB given to the printing process from OS
             0 MiB allocation reported by mallinfo(arena+hblkhd)
         55148 MiB available memory on the node where the printing process lives
------------------
     ethr =  2.42E-05,  avg # of iterations =  5.0

     negative rho (up, down):  1.293E-03 0.000E+00

     total cpu time spent up to now is        4.4 secs

     total energy              =    -413.79594814 Ry
     estimated scf accuracy    <       0.00894777 Ry

     iteration #  5     ecut=    30.00 Ry     beta= 0.70
     Davidson diagonalization with overlap

---- Real-time Memory Report at c_bands before calling an iterative solver
           218 MiB given to the printing process from OS
             0 MiB allocation reported by mallinfo(arena+hblkhd)
         55133 MiB available memory on the node where the printing process lives
------------------
     ethr =  2.24E-05,  avg # of iterations =  2.0

     negative rho (up, down):  1.314E-03 0.000E+00

     total cpu time spent up to now is        5.1 secs

     total energy              =    -413.79654673 Ry
     estimated scf accuracy    <       0.00097046 Ry

     iteration #  6     ecut=    30.00 Ry     beta= 0.70
     Davidson diagonalization with overlap

---- Real-time Memory Report at c_bands before calling an iterative solver
           222 MiB given to the printing process from OS
             0 MiB allocation reported by mallinfo(arena+hblkhd)
         55129 MiB available memory on the node where the printing process lives
------------------
     ethr =  2.43E-06,  avg # of iterations =  4.5

     negative rho (up, down):  1.313E-03 0.000E+00

     total cpu time spent up to now is        5.9 secs

     total energy              =    -413.79692835 Ry
     estimated scf accuracy    <       0.00116291 Ry

     iteration #  7     ecut=    30.00 Ry     beta= 0.70
     Davidson diagonalization with overlap

---- Real-time Memory Report at c_bands before calling an iterative solver
           224 MiB given to the printing process from OS
             0 MiB allocation reported by mallinfo(arena+hblkhd)
         55126 MiB available memory on the node where the printing process lives
------------------
     ethr =  2.43E-06,  avg # of iterations =  2.0

     negative rho (up, down):  1.309E-03 0.000E+00

     total cpu time spent up to now is        6.6 secs

     total energy              =    -413.79705919 Ry
     estimated scf accuracy    <       0.00005098 Ry

     iteration #  8     ecut=    30.00 Ry     beta= 0.70
     Davidson diagonalization with overlap

---- Real-time Memory Report at c_bands before calling an iterative solver
           226 MiB given to the printing process from OS
             0 MiB allocation reported by mallinfo(arena+hblkhd)
         55126 MiB available memory on the node where the printing process lives
------------------
     ethr =  1.27E-07,  avg # of iterations =  4.6

     negative rho (up, down):  1.309E-03 0.000E+00

     total cpu time spent up to now is        7.4 secs

     total energy              =    -413.79709165 Ry
     estimated scf accuracy    <       0.00002410 Ry

     iteration #  9     ecut=    30.00 Ry     beta= 0.70
     Davidson diagonalization with overlap

---- Real-time Memory Report at c_bands before calling an iterative solver
           228 MiB given to the printing process from OS
             0 MiB allocation reported by mallinfo(arena+hblkhd)
         55123 MiB available memory on the node where the printing process lives
------------------
     ethr =  6.03E-08,  avg # of iterations =  2.0

     negative rho (up, down):  1.309E-03 0.000E+00

     total cpu time spent up to now is        8.1 secs

     total energy              =    -413.79709403 Ry
     estimated scf accuracy    <       0.00000210 Ry

     iteration # 10     ecut=    30.00 Ry     beta= 0.70
     Davidson diagonalization with overlap

---- Real-time Memory Report at c_bands before calling an iterative solver
           229 MiB given to the printing process from OS
             0 MiB allocation reported by mallinfo(arena+hblkhd)
         55122 MiB available memory on the node where the printing process lives
------------------
     ethr =  5.25E-09,  avg # of iterations =  4.0

     negative rho (up, down):  1.309E-03 0.000E+00

     total cpu time spent up to now is        8.9 secs

     total energy              =    -413.79709487 Ry
     estimated scf accuracy    <       0.00000011 Ry

     iteration # 11     ecut=    30.00 Ry     beta= 0.70
     Davidson diagonalization with overlap

---- Real-time Memory Report at c_bands before calling an iterative solver
           230 MiB given to the printing process from OS
             0 MiB allocation reported by mallinfo(arena+hblkhd)
         55121 MiB available memory on the node where the printing process lives
------------------
     ethr =  2.82E-10,  avg # of iterations =  4.1

     negative rho (up, down):  1.309E-03 0.000E+00

     total cpu time spent up to now is        9.7 secs

     total energy              =    -413.79709493 Ry
     estimated scf accuracy    <       0.00000005 Ry

     iteration # 12     ecut=    30.00 Ry     beta= 0.70
     Davidson diagonalization with overlap

---- Real-time Memory Report at c_bands before calling an iterative solver
           232 MiB given to the printing process from OS
             0 MiB allocation reported by mallinfo(arena+hblkhd)
         55121 MiB available memory on the node where the printing process lives
------------------
     ethr =  1.21E-10,  avg # of iterations =  2.0

     negative rho (up, down):  1.309E-03 0.000E+00

     total cpu time spent up to now is       10.3 secs

     End of self-consistent calculation

          k = 0.0000 0.0000 0.0000 (  6409 PWs)   bands (ev):

   -21.8432 -21.8324 -21.8304 -21.8251 -21.8191 -21.7983 -21.7948 -21.7886
   -21.7853 -21.7762 -13.8803 -12.8791  -6.9030  -5.8113  -4.0716  -3.7781
    -3.3170  -2.4921  -2.1985  -1.1346

     occupation numbers 
     1.0000   1.0000   1.0000   1.0000   1.0000   1.0000   1.0000   1.0000
     1.0000   1.0000   1.0000   1.0000   1.0000   1.0000   1.0000   1.0000
     1.0000   1.0000   1.0000   1.0000

          k = 0.0000 0.1365 0.0000 (  6391 PWs)   bands (ev):

   -21.8409 -21.8319 -21.8304 -21.8266 -21.8177 -21.7987 -21.7952 -21.7877
   -21.7865 -21.7762 -13.8069 -12.8592  -7.0642  -6.0411  -4.0235  -3.6909
    -3.2603  -2.4775  -1.9754  -1.1789

     occupation numbers 
     1.0000   1.0000   1.0000   1.0000   1.0000   1.0000   1.0000   1.0000
     1.0000   1.0000   1.0000   1.0000   1.0000   1.0000   1.0000   1.0000
     1.0000   1.0000   1.0000   1.0000

          k = 0.0000 0.2730 0.0000 (  6420 PWs)   bands (ev):

   -21.8372 -21.8352 -21.8281 -21.8259 -21.8147 -21.8002 -21.7958 -21.7893
   -21.7851 -21.7763 -13.6022 -12.8296  -7.4211  -6.6090  -3.8078  -3.4410
    -3.0259  -2.3659  -1.5004  -1.3501

     occupation numbers 
     1.0000   1.0000   1.0000   1.0000   1.0000   1.0000   1.0000   1.0000
     1.0000   1.0000   1.0000   1.0000   1.0000   1.0000   1.0000   1.0000
     1.0000   1.0000   1.0000   1.0000

          k = 0.0000 0.4095 0.0000 (  6424 PWs)   bands (ev):

   -21.8384 -21.8382 -21.8246 -21.8220 -21.8109 -21.8030 -21.7957 -21.7923
   -21.7817 -21.7769 -13.3165 -12.8676  -7.6876  -7.2258  -3.4201  -3.0740
    -2.7129  -2.3053  -1.5183  -1.0031

     occupation numbers 
     1.0000   1.0000   1.0000   1.0000   1.0000   1.0000   1.0000   1.0000
     1.0000   1.0000   1.0000   1.0000   1.0000   1.0000   1.0000   1.0000
     1.0000   1.0000   1.0000   1.0000

          k = 0.0000-0.5460 0.0000 (  6446 PWs)   bands (ev):

   -21.8396 -21.8396 -21.8214 -21.8214 -21.8068 -21.8068 -21.7945 -21.7945
   -21.7787 -21.7787 -13.0390 -13.0390  -7.6335  -7.6335  -3.0075  -3.0075
    -2.5026  -2.5026  -1.2013  -1.2013

     occupation numbers 
     1.0000   1.0000   1.0000   1.0000   1.0000   1.0000   1.0000   1.0000
     1.0000   1.0000   1.0000   1.0000   1.0000   1.0000   1.0000   1.0000
     1.0000   1.0000   1.0000   1.0000

          k = 0.1250 0.0000 0.0000 (  6407 PWs)   bands (ev):

   -21.8426 -21.8325 -21.8308 -21.8259 -21.8173 -21.7983 -21.7944 -21.7883
   -21.7856 -21.7769 -13.8236 -12.8828  -7.1219  -6.1123  -4.0152  -3.4928
    -3.2250  -2.1489  -2.1122  -1.2224

     occupation numbers 
     1.0000   1.0000   1.0000   1.0000   1.0000   1.0000   1.0000   1.0000
     1.0000   1.0000   1.0000   1.0000   1.0000   1.0000   1.0000   1.0000
     1.0000   1.0000   1.0000   1.0000

          k = 0.1250 0.1365 0.0000 (  6414 PWs)   bands (ev):

   -21.8405 -21.8325 -21.8302 -21.8274 -21.8160 -21.7987 -21.7949 -21.7873
   -21.7868 -21.7768 -13.7516 -12.8617  -7.2017  -6.2552  -3.9531  -3.8928
    -2.7832  -2.6316  -1.5566  -1.2249

     occupation numbers 
     1.0000   1.0000   1.0000   1.0000   1.0000   1.0000   1.0000   1.0000
     1.0000   1.0000   1.0000   1.0000   1.0000   1.0000   1.0000   1.0000
     1.0000   1.0000   1.0000   1.0000

          k = 0.1250 0.2730 0.0000 (  6411 PWs)   bands (ev):

   -21.8376 -21.8361 -21.8283 -21.8257 -21.8131 -21.8002 -21.7957 -21.7895
   -21.7847 -21.7766 -13.5516 -12.8273  -7.4211  -6.6695  -4.0678  -3.7559
    -2.7734  -2.4139  -1.3283  -1.2406

     occupation numbers 
     1.0000   1.0000   1.0000   1.0000   1.0000   1.0000   1.0000   1.0000
     1.0000   1.0000   1.0000   1.0000   1.0000   1.0000   1.0000   1.0000
     1.0000   1.0000   1.0000   1.0000

          k = 0.1250 0.4095 0.0000 (  6433 PWs)   bands (ev):

   -21.8396 -21.8394 -21.8243 -21.8218 -21.8097 -21.8029 -21.7956 -21.7923
   -21.7814 -21.7770 -13.2752 -12.8553  -7.6158  -7.1893  -3.8164  -3.4191
    -2.7339  -2.4406  -1.5618  -1.2194

     occupation numbers 
     1.0000   1.0000   1.0000   1.0000   1.0000   1.0000   1.0000   1.0000
     1.0000   1.0000   1.0000   1.0000   1.0000   1.0000   1.0000   1.0000
     1.0000   1.0000   1.0000   1.0000

          k = 0.1250-0.5460 0.0000 (  6436 PWs)   bands (ev):

   -21.8409 -21.8409 -21.8212 -21.8212 -21.8062 -21.8062 -21.7944 -21.7944
   -21.7786 -21.7786 -13.0118 -13.0118  -7.5563  -7.5563  -3.3350  -3.3350
    -2.7739  -2.7739  -1.4198  -1.4198

     occupation numbers 
     1.0000   1.0000   1.0000   1.0000   1.0000   1.0000   1.0000   1.0000
     1.0000   1.0000   1.0000   1.0000   1.0000   1.0000   1.0000   1.0000
     1.0000   1.0000   1.0000   1.0000

          k = 0.2500 0.0000 0.0000 (  6387 PWs)   bands (ev):

   -21.8409 -21.8328 -21.8316 -21.8278 -21.8128 -21.7985 -21.7932 -21.7874
   -21.7865 -21.7786 -13.6640 -12.9127  -7.5226  -6.7374  -3.7959  -2.9641
    -2.9083  -2.0431  -1.4456  -1.3076

     occupation numbers 
     1.0000   1.0000   1.0000   1.0000   1.0000   1.0000   1.0000   1.0000
     1.0000   1.0000   1.0000   1.0000   1.0000   1.0000   1.0000   1.0000
     1.0000   1.0000   1.0000   1.0000

          k = 0.2500 0.1365 0.0000 (  6396 PWs)   bands (ev):

   -21.8393 -21.8339 -21.8302 -21.8291 -21.8117 -21.7989 -21.7940 -21.7877
   -21.7862 -21.7782 -13.5965 -12.8869  -7.4895  -6.7541  -3.8615  -3.7322
    -2.6524  -2.2895  -1.2259  -1.1125

     occupation numbers 
     1.0000   1.0000   1.0000   1.0000   1.0000   1.0000   1.0000   1.0000
     1.0000   1.0000   1.0000   1.0000   1.0000   1.0000   1.0000   1.0000
     1.0000   1.0000   1.0000   1.0000

          k = 0.2500 0.2730 0.0000 (  6412 PWs)   bands (ev):

   -21.8390 -21.8380 -21.8283 -21.8255 -21.8095 -21.8003 -21.7951 -21.7901
   -21.7836 -21.7775 -13.4117 -12.8366  -7.4381  -6.8617  -4.5113  -3.6211
    -3.1785  -2.2369  -1.7467  -0.9783

     occupation numbers 
     1.0000   1.0000   1.0000   1.0000   1.0000   1.0000   1.0000   1.0000
     1.0000   1.0000   1.0000   1.0000   1.0000   1.0000   1.0000   1.0000
     1.0000   1.0000   1.0000   1.0000

          k = 0.2500 0.4095 0.0000 (  6423 PWs)   bands (ev):

   -21.8424 -21.8422 -21.8236 -21.8215 -21.8071 -21.8025 -21.7952 -21.7924
   -21.7807 -21.7774 -13.1647 -12.8329  -7.4255  -7.1076  -4.5837  -3.5319
    -3.4090  -2.5534  -2.3077  -1.4271

     occupation numbers 
     1.0000   1.0000   1.0000   1.0000   1.0000   1.0000   1.0000   1.0000
     1.0000   1.0000   1.0000   1.0000   1.0000   1.0000   1.0000   1.0000
     1.0000   1.0000   1.0000   1.0000

          k = 0.2500-0.5460 0.0000 (  6440 PWs)   bands (ev):

   -21.8440 -21.8440 -21.8207 -21.8207 -21.8049 -21.8049 -21.7941 -21.7941
   -21.7783 -21.7783 -12.9444 -12.9444  -7.3434  -7.3434  -4.1176  -4.1176
    -3.0713  -3.0713  -2.0206  -2.0206

     occupation numbers 
     1.0000   1.0000   1.0000   1.0000   1.0000   1.0000   1.0000   1.0000
     1.0000   1.0000   1.0000   1.0000   1.0000   1.0000   1.0000   1.0000
     1.0000   1.0000   1.0000   1.0000

          k = 0.3750 0.0000 0.0000 (  6397 PWs)   bands (ev):

   -21.8385 -21.8340 -21.8321 -21.8300 -21.8073 -21.7998 -21.7915 -21.7879
   -21.7858 -21.7810 -13.4354 -13.0099  -7.7688  -7.3316  -3.4223  -2.6246
    -2.5878  -2.0163  -1.4037  -0.5357

     occupation numbers 
     1.0000   1.0000   1.0000   1.0000   1.0000   1.0000   1.0000   1.0000
     1.0000   1.0000   1.0000   1.0000   1.0000   1.0000   1.0000   1.0000
     1.0000   1.0000   1.0000   1.0000

          k = 0.3750 0.1365 0.0000 (  6386 PWs)   bands (ev):

   -21.8377 -21.8353 -21.8308 -21.8307 -21.8067 -21.8000 -21.7926 -21.7891
   -21.7845 -21.7802 -13.3763 -12.9751  -7.6819  -7.2731  -3.5407  -3.3763
    -2.6724  -2.4211  -1.0847  -0.9551

     occupation numbers 
     1.0000   1.0000   1.0000   1.0000   1.0000   1.0000   1.0000   1.0000
     1.0000   1.0000   1.0000   1.0000   1.0000   1.0000   1.0000   1.0000
     1.0000   1.0000   1.0000   1.0000

          k = 0.3750 0.2730 0.0000 (  6396 PWs)   bands (ev):

   -21.8405 -21.8401 -21.8277 -21.8259 -21.8055 -21.8010 -21.7940 -21.7911
   -21.7821 -21.7788 -13.2188 -12.8951  -7.4539  -7.1400  -4.4913  -3.6023
    -3.3051  -2.5198  -2.1054  -1.3291

     occupation numbers 
     1.0000   1.0000   1.0000   1.0000   1.0000   1.0000   1.0000   1.0000
     1.0000   1.0000   1.0000   1.0000   1.0000   1.0000   1.0000   1.0000
     1.0000   1.0000   1.0000   1.0000

          k = 0.3750 0.4095 0.0000 (  6391 PWs)   bands (ev):

   -21.8451 -21.8450 -21.8228 -21.8215 -21.8046 -21.8024 -21.7942 -21.7925
   -21.7797 -21.7779 -13.0227 -12.8369  -7.2041  -7.0489  -4.9468  -4.1616
    -3.6715  -2.9954  -2.4218  -1.8968

     occupation numbers 
     1.0000   1.0000   1.0000   1.0000   1.0000   1.0000   1.0000   1.0000
     1.0000   1.0000   1.0000   1.0000   1.0000   1.0000   1.0000   1.0000
     1.0000   1.0000   1.0000   1.0000

          k = 0.3750-0.5460 0.0000 (  6404 PWs)   bands (ev):

   -21.8470 -21.8470 -21.8204 -21.8204 -21.8037 -21.8037 -21.7934 -21.7934
   -21.7781 -21.7781 -12.8742 -12.8742  -7.0719  -7.0719  -4.7279  -4.7279
    -3.5971  -3.5971  -2.2053  -2.2053

     occupation numbers 
     1.0000   1.0000   1.0000   1.0000   1.0000   1.0000   1.0000   1.0000
     1.0000   1.0000   1.0000   1.0000   1.0000   1.0000   1.0000   1.0000
     1.0000   1.0000   1.0000   1.0000

          k =-0.5000 0.0000 0.0000 (  6388 PWs)   bands (ev):

   -21.8360 -21.8360 -21.8316 -21.8316 -21.8027 -21.8027 -21.7896 -21.7896
   -21.7835 -21.7835 -13.1954 -13.1954  -7.7068  -7.7068  -2.9644  -2.9644
    -2.2144  -2.2144  -0.7710  -0.7710

     occupation numbers 
     1.0000   1.0000   1.0000   1.0000   1.0000   1.0000   1.0000   1.0000
     1.0000   1.0000   1.0000   1.0000   1.0000   1.0000   1.0000   1.0000
     1.0000   1.0000   1.0000   1.0000

          k =-0.5000 0.1365 0.0000 (  6370 PWs)   bands (ev):

   -21.8364 -21.8364 -21.8312 -21.8312 -21.8025 -21.8025 -21.7908 -21.7908
   -21.7824 -21.7824 -13.1481 -13.1481  -7.6157  -7.6157  -3.1306  -3.1306
    -2.8048  -2.8048  -0.9655  -0.9655

     occupation numbers 
     1.0000   1.0000   1.0000   1.0000   1.0000   1.0000   1.0000   1.0000
     1.0000   1.0000   1.0000   1.0000   1.0000   1.0000   1.0000   1.0000
     1.0000   1.0000   1.0000   1.0000

          k =-0.5000 0.2730 0.0000 (  6398 PWs)   bands (ev):

   -21.8410 -21.8410 -21.8267 -21.8267 -21.8026 -21.8026 -21.7924 -21.7924
   -21.7804 -21.7804 -13.0286 -13.0286  -7.3685  -7.3685  -4.0981  -4.0981
    -2.9490  -2.9490  -1.8684  -1.8684

     occupation numbers 
     1.0000   1.0000   1.0000   1.0000   1.0000   1.0000   1.0000   1.0000
     1.0000   1.0000   1.0000   1.0000   1.0000   1.0000   1.0000   1.0000
     1.0000   1.0000   1.0000   1.0000

          k =-0.5000 0.4095 0.0000 (  6378 PWs)   bands (ev):

   -21.8461 -21.8461 -21.8221 -21.8221 -21.8030 -21.8030 -21.7931 -21.7931
   -21.7787 -21.7787 -12.9004 -12.9004  -7.0704  -7.0704  -4.7709  -4.7709
    -3.4808  -3.4808  -2.2119  -2.2119

     occupation numbers 
     1.0000   1.0000   1.0000   1.0000   1.0000   1.0000   1.0000   1.0000
     1.0000   1.0000   1.0000   1.0000   1.0000   1.0000   1.0000   1.0000
     1.0000   1.0000   1.0000   1.0000

          k =-0.5000-0.5460 0.0000 (  6348 PWs)   bands (ev):

   -21.8482 -21.8482 -21.8203 -21.8203 -21.8032 -21.8032 -21.7931 -21.7931
   -21.7780 -21.7780 -12.8443 -12.8443  -6.9295  -6.9295  -4.9614  -4.9614
    -3.8567  -3.8567  -2.2185  -2.2185

     occupation numbers 
     1.0000   1.0000   1.0000   1.0000   1.0000   1.0000   1.0000   1.0000
     1.0000   1.0000   1.0000   1.0000   1.0000   1.0000   1.0000   1.0000
     1.0000   1.0000   1.0000   1.0000

     highest occupied level (ev):    -0.5357

!    total energy              =    -413.79709493 Ry
     estimated scf accuracy    <          8.1E-09 Ry

     The total energy is the sum of the following terms:
     one-electron contribution =   -1003.68485662 Ry
     hartree contribution      =     514.54388707 Ry
     xc contribution           =    -154.41508739 Ry
     ewald contribution        =     229.75896202 Ry

     convergence has been achieved in  12 iterations

     negative rho (up, down):  1.309E-03 0.000E+00

     Forces acting on atoms (cartesian axes, Ry/au):

     atom    1 type  1   force =     0.00004436    0.00000000    0.00015249
     atom    2 type  2   force =    -0.00004436    0.00000000    0.00047500
     atom    3 type  2   force =    -0.00004436   -0.00000000   -0.00047500
     atom    4 type  1   force =     0.00004436    0.00000000   -0.00015249
     The non-local contrib.  to forces
     atom    1 type  1   force =     0.24652704    0.00000000    0.44501755
     atom    2 type  2   force =    -0.07978986    0.00000000    0.19453828
     atom    3 type  2   force =    -0.07978986    0.00000000   -0.19453828
     atom    4 type  1   force =     0.24652704    0.00000000   -0.44501755
     The ionic contribution  to forces
     atom    1 type  1   force =    -1.27654528    0.00000000  -35.72723873
     atom    2 type  2   force =     1.27654528    0.00000000  -16.03040643
     atom    3 type  2   force =     1.27654528    0.00000000   16.03040644
     atom    4 type  1   force =    -1.27654528    0.00000000   35.72723873
     The local contribution  to forces
     atom    1 type  1   force =     1.03374305    0.00000000   35.28995413
     atom    2 type  2   force =    -1.20560801   -0.00000000   15.85860336
     atom    3 type  2   force =    -1.20560801    0.00000000  -15.85860337
     atom    4 type  1   force =     1.03374305    0.00000000  -35.28995413
     The core correction contribution to forces
     atom    1 type  1   force =    -0.00371104    0.00000000   -0.00770100
     atom    2 type  2   force =     0.00880727   -0.00000000   -0.02225064
     atom    3 type  2   force =     0.00880727   -0.00000000    0.02225064
     atom    4 type  1   force =    -0.00371104    0.00000000    0.00770100
     The Hubbard contrib.    to forces
     atom    1 type  1   force =     0.00000000    0.00000000    0.00000000
     atom    2 type  2   force =     0.00000000    0.00000000    0.00000000
     atom    3 type  2   force =     0.00000000    0.00000000    0.00000000
     atom    4 type  1   force =     0.00000000    0.00000000    0.00000000
     The SCF correction term to forces
     atom    1 type  1   force =     0.00003717    0.00000000    0.00012054
     atom    2 type  2   force =     0.00000754   -0.00000000   -0.00000956
     atom    3 type  2   force =     0.00000754   -0.00000000    0.00000956
     atom    4 type  1   force =     0.00003717   -0.00000000   -0.00012054

     Total force =     0.000711     Total SCF correction =     0.000179
     SCF correction compared to forces is large: reduce conv_thr to get better values

     Writing all to output data dir ./tmp/SnSe_monolayer.save/ :
     XML data file, charge density, pseudopotentials, collected wavefunctions
 
     init_run     :      0.54s CPU      0.62s WALL (       1 calls)
     electrons    :      8.59s CPU      9.52s WALL (       1 calls)
     forces       :      0.21s CPU      0.27s WALL (       1 calls)

     Called by init_run:
     wfcinit      :      0.17s CPU      0.17s WALL (       1 calls)
     wfcinit:atom :      0.00s CPU      0.00s WALL (       7 calls)
     wfcinit:wfcr :      0.14s CPU      0.15s WALL (       7 calls)
     potinit      :      0.07s CPU      0.09s WALL (       1 calls)
     hinit0       :      0.13s CPU      0.13s WALL (       1 calls)

     Called by electrons:
     c_bands      :      4.52s CPU      4.66s WALL (      12 calls)
     sum_band     :      1.97s CPU      2.42s WALL (      12 calls)
     v_of_rho     :      0.76s CPU      0.81s WALL (      13 calls)
     v_h          :      0.06s CPU      0.07s WALL (      13 calls)
     v_xc         :      0.76s CPU      0.79s WALL (      14 calls)
     newd         :      1.30s CPU      1.60s WALL (      13 calls)
     mix_rho      :      0.09s CPU      0.10s WALL (      12 calls)

     Called by c_bands:
     init_us_2    :      0.19s CPU      0.21s WALL (     182 calls)
     cegterg      :      3.52s CPU      3.61s WALL (      84 calls)

     Called by sum_band:
     sum_band:wei :      0.00s CPU      0.00s WALL (      12 calls)
     sum_band:loo :      0.70s CPU      0.73s WALL (      12 calls)
     sum_band:buf :      0.01s CPU      0.01s WALL (      84 calls)
     sum_band:ini :      0.08s CPU      0.09s WALL (      84 calls)
     sum_band:cal :      0.07s CPU      0.07s WALL (      84 calls)
     sum_band:bec :      0.00s CPU      0.00s WALL (      84 calls)
     addusdens    :      1.04s CPU      1.41s WALL (      12 calls)
                                        0.00s GPU  (      12 calls)
     addusd:skk   :      0.00s CPU      0.00s WALL (      24 calls)
                                        0.00s GPU  (      24 calls)

     Called by *egterg:
     cdiaghg      :      0.15s CPU      0.15s WALL (     344 calls)
     cegterg:over :      0.16s CPU      0.16s WALL (     260 calls)
     cegterg:upda :      0.07s CPU      0.07s WALL (     260 calls)
     cegterg:last :      0.15s CPU      0.15s WALL (     200 calls)
     h_psi        :      2.82s CPU      2.89s WALL (     351 calls)
     s_psi        :      0.18s CPU      0.18s WALL (     351 calls)
     g_psi        :      0.01s CPU      0.01s WALL (     260 calls)

     Called by h_psi:
     h_psi:calbec :      0.21s CPU      0.21s WALL (     351 calls)
     vloc_psi     :      2.37s CPU      2.43s WALL (     351 calls)
     add_vuspsi   :      0.21s CPU      0.22s WALL (     351 calls)

     General routines
     calbec       :      0.29s CPU      0.31s WALL (     463 calls)
     fft          :      0.39s CPU      0.40s WALL (     178 calls)
     ffts         :      0.01s CPU      0.01s WALL (      25 calls)
     fftw         :      1.81s CPU      1.85s WALL (   11452 calls)
     interpolate  :      0.04s CPU      0.04s WALL (      13 calls)
 
     Parallel routines
 
     PWSCF        :      9.55s CPU     10.89s WALL

 
   This run was terminated on:  21: 2:27  24May2026            

=------------------------------------------------------------------------------=
   JOB DONE.
=------------------------------------------------------------------------------=
