
     Program PWSCF v.6.7MaX starts on 19May2026 at  8:49:25 

     This program is part of the open-source Quantum ESPRESSO suite
     for quantum simulation of materials; please cite
         "P. Giannozzi et al., J. Phys.:Condens. Matter 21 395502 (2009);
         "P. Giannozzi et al., J. Phys.:Condens. Matter 29 465901 (2017);
          URL http://www.quantum-espresso.org", 
     in publications or presentations arising from this work. More details at
     http://www.quantum-espresso.org/quote

     Parallel version (MPI), running on     6 processors

     MPI processes distributed on     1 nodes
     K-points division:     npool     =       3
     R & G space division:  proc/nbgrp/npool/nimage =       2
     Waiting for input...
     Reading input from standard input

     Current dimensions of program PWSCF are:
     Max number of different atomic species (ntypx) = 10
     Max number of k-points (npk) =  40000
     Max angular momentum in pseudopotentials (lmaxx) =  3

     --------------------------------------------
     Parameters for DFT-D3 Dispersion Correction:
     --------------------------------------------
       Reference C6 values for interpolation: 

         atom   Coordination number   C6
         Se         0.000           427.35
         Se         0.990           427.57
         Se         1.981           421.05
         Sn         0.000          1255.14
         Sn         0.951          1084.09
         Sn         1.950          1010.83
         Sn         2.926           818.29
         Sn         3.912           672.20

       Values used:

         atom   Coordination number  R0_AB[au]  C6      C8
         Se         3.637            3.332    421.05  29958.36
         Sn         4.405            3.957    672.26  84376.19
         Se         3.637            3.332    421.05  29958.36
         Sn         4.405            3.957    672.26  84376.19
         Se         3.637            3.332    421.05  29958.36
         Sn         4.405            3.957    672.26  84376.19
         Se         3.637            3.332    421.05  29958.36
         Sn         4.405            3.957    672.26  84376.19

         Molecular C6 ( Ry / a.u.^6 ) =     34497.83


     Subspace diagonalization in iterative solution of the eigenvalue problem:
     a serial algorithm will be used


     Parallelization info
     --------------------
     sticks:   dense  smooth     PW     G-vecs:    dense   smooth      PW
     Min        1689     678    204                47556    12061    2061
     Max        1690     679    205                47557    12062    2062
     Sum        3379    1357    409                95113    24123    4123



     bravais-lattice index     =            8
     lattice parameter (alat)  =      21.4862  a.u.
     unit-cell volume          =    1425.7436 (a.u.)^3
     number of atoms/cell      =            8
     number of atomic types    =            2
     number of electrons       =        80.00
     number of Kohn-Sham states=           50
     kinetic-energy cutoff     =      25.0000  Ry
     charge density cutoff     =     250.0000  Ry
     scf convergence threshold =      1.0E-08
     mixing beta               =       0.7000
     number of iterations used =            8  plain     mixing
     Exchange-correlation= SLA  PW   PBE  PBE
                           (   1   4   3   4   0   0   0)

     celldm(1)=  21.486186  celldm(2)=   0.368162  celldm(3)=   0.390413
     celldm(4)=   0.000000  celldm(5)=   0.000000  celldm(6)=   0.000000

     crystal axes: (cart. coord. in units of alat)
               a(1) = (   1.000000   0.000000   0.000000 )  
               a(2) = (   0.000000   0.368162   0.000000 )  
               a(3) = (   0.000000   0.000000   0.390413 )  

     reciprocal axes: (cart. coord. in units 2 pi/alat)
               b(1) = (  1.000000  0.000000  0.000000 )  
               b(2) = (  0.000000  2.716197  0.000000 )  
               b(3) = (  0.000000  0.000000  2.561388 )  


     PseudoPot. # 1 for Sn read from file:
     ../pseudo/Sn_pbe_v1.uspp.F.UPF
     MD5 check sum: 4cf58ce39ec5d5d420df3dd08604eb00
     Pseudo is Ultrasoft + core correction, Zval = 14.0
     Generated by new atomic code, or converted to UPF format
     Using radial grid of  891 points,  6 beta functions with: 
                l(1) =   0
                l(2) =   0
                l(3) =   1
                l(4) =   1
                l(5) =   2
                l(6) =   2
     Q(r) pseudized with  6 coefficients,  rinner =    1.200   1.200   1.200
                                                       1.200   1.200

     PseudoPot. # 2 for Se read from file:
     ../pseudo/Se_pbe_v1.uspp.F.UPF
     MD5 check sum: 1b3568f3a8ae88f9a2a0ad0698632c85
     Pseudo is Ultrasoft + core correction, Zval =  6.0
     Generated by new atomic code, or converted to UPF format
     Using radial grid of  877 points,  6 beta functions with: 
                l(1) =   0
                l(2) =   0
                l(3) =   1
                l(4) =   1
                l(5) =   2
                l(6) =   2
     Q(r) pseudized with  8 coefficients,  rinner =    1.300   1.300   1.300
                                                       1.300   1.300

     atomic species   valence    mass     pseudopotential
        Sn            14.00   118.71000     Sn( 1.00)
        Se             6.00    78.97100     Se( 1.00)

      8 Sym. Ops., with inversion, found ( 6 have fractional translation)


                                    s                        frac. trans.

      isym =  1     identity                                     

 cryst.   s( 1) = (     1          0          0      )
                  (     0          1          0      )
                  (     0          0          1      )

 cart.    s( 1) = (  1.0000000  0.0000000  0.0000000 )
                  (  0.0000000  1.0000000  0.0000000 )
                  (  0.0000000  0.0000000  1.0000000 )


      isym =  2     180 deg rotation - cart. axis [0,0,1]        

 cryst.   s( 2) = (    -1          0          0      )    f =(  0.5000000 )
                  (     0         -1          0      )       (  0.0000000 )
                  (     0          0          1      )       (  0.5000000 )

 cart.    s( 2) = ( -1.0000000  0.0000000  0.0000000 )    f =(  0.5000000 )
                  (  0.0000000 -1.0000000  0.0000000 )       (  0.0000000 )
                  (  0.0000000  0.0000000  1.0000000 )       (  0.1952067 )


      isym =  3     180 deg rotation - cart. axis [0,1,0]        

 cryst.   s( 3) = (    -1          0          0      )    f =( -0.0000000 )
                  (     0          1          0      )       ( -0.5000000 )
                  (     0          0         -1      )       (  0.0000000 )

 cart.    s( 3) = ( -1.0000000  0.0000000  0.0000000 )    f =( -0.0000000 )
                  (  0.0000000  1.0000000  0.0000000 )       ( -0.1840809 )
                  (  0.0000000  0.0000000 -1.0000000 )       (  0.0000000 )


      isym =  4     180 deg rotation - cart. axis [1,0,0]        

 cryst.   s( 4) = (     1          0          0      )    f =(  0.5000000 )
                  (     0         -1          0      )       (  0.5000000 )
                  (     0          0         -1      )       (  0.5000000 )

 cart.    s( 4) = (  1.0000000  0.0000000  0.0000000 )    f =(  0.5000000 )
                  (  0.0000000 -1.0000000  0.0000000 )       (  0.1840809 )
                  (  0.0000000  0.0000000 -1.0000000 )       (  0.1952067 )


      isym =  5     inversion                                    

 cryst.   s( 5) = (    -1          0          0      )
                  (     0         -1          0      )
                  (     0          0         -1      )

 cart.    s( 5) = ( -1.0000000  0.0000000  0.0000000 )
                  (  0.0000000 -1.0000000  0.0000000 )
                  (  0.0000000  0.0000000 -1.0000000 )


      isym =  6     inv. 180 deg rotation - cart. axis [0,0,1]   

 cryst.   s( 6) = (     1          0          0      )    f =(  0.5000000 )
                  (     0          1          0      )       (  0.0000000 )
                  (     0          0         -1      )       (  0.5000000 )

 cart.    s( 6) = (  1.0000000  0.0000000  0.0000000 )    f =(  0.5000000 )
                  (  0.0000000  1.0000000  0.0000000 )       (  0.0000000 )
                  (  0.0000000  0.0000000 -1.0000000 )       (  0.1952067 )


      isym =  7     inv. 180 deg rotation - cart. axis [0,1,0]   

 cryst.   s( 7) = (     1          0          0      )    f =(  0.0000000 )
                  (     0         -1          0      )       (  0.5000000 )
                  (     0          0          1      )       (  0.0000000 )

 cart.    s( 7) = (  1.0000000  0.0000000  0.0000000 )    f =(  0.0000000 )
                  (  0.0000000 -1.0000000  0.0000000 )       (  0.1840809 )
                  (  0.0000000  0.0000000  1.0000000 )       (  0.0000000 )


      isym =  8     inv. 180 deg rotation - cart. axis [1,0,0]   

 cryst.   s( 8) = (    -1          0          0      )    f =(  0.5000000 )
                  (     0          1          0      )       ( -0.5000000 )
                  (     0          0          1      )       (  0.5000000 )

 cart.    s( 8) = ( -1.0000000  0.0000000  0.0000000 )    f =(  0.5000000 )
                  (  0.0000000  1.0000000  0.0000000 )       ( -0.1840809 )
                  (  0.0000000  0.0000000  1.0000000 )       (  0.1952067 )


     point group D_2h (mmm) 
     there are  8 classes
     the character table:

       E     C2    C2'   C2''  i     s_v   s_v'  s_v''
A_g    1.00  1.00  1.00  1.00  1.00  1.00  1.00  1.00
B_1g   1.00  1.00 -1.00 -1.00  1.00  1.00 -1.00 -1.00
B_2g   1.00 -1.00  1.00 -1.00  1.00 -1.00  1.00 -1.00
B_3g   1.00 -1.00 -1.00  1.00  1.00 -1.00 -1.00  1.00
A_u    1.00  1.00  1.00  1.00 -1.00 -1.00 -1.00 -1.00
B_1u   1.00  1.00 -1.00 -1.00 -1.00 -1.00  1.00  1.00
B_2u   1.00 -1.00  1.00 -1.00 -1.00  1.00 -1.00  1.00
B_3u   1.00 -1.00 -1.00  1.00 -1.00  1.00  1.00 -1.00

     the symmetry operations in each class and the name of the first element:

     E        1
          identity                                               
     C2       2
          180 deg rotation - cart. axis [0,0,1]                  
     C2'      4
          180 deg rotation - cart. axis [1,0,0]                  
     C2''     3
          180 deg rotation - cart. axis [0,1,0]                  
     i        5
          inversion                                              
     s_v      6
          inv. 180 deg rotation - cart. axis [0,0,1]             
     s_v'     8
          inv. 180 deg rotation - cart. axis [1,0,0]             
     s_v''    7
          inv. 180 deg rotation - cart. axis [0,1,0]             

   Cartesian axes

     site n.     atom                  positions (alat units)
         1           Se  tau(   1) = (   0.8555000   0.0920405   0.1884916  )
         2           Sn  tau(   2) = (   0.1187000   0.0920405   0.0385728  )
         3           Se  tau(   3) = (   0.6445000   0.2761214   0.3836983  )
         4           Sn  tau(   4) = (   0.3813000   0.2761214   0.2337795  )
         5           Se  tau(   5) = (   0.3555000   0.0920405   0.0067151  )
         6           Sn  tau(   6) = (   0.6187000   0.0920405   0.1566338  )
         7           Se  tau(   7) = (   0.1445000   0.2761214   0.2019218  )
         8           Sn  tau(   8) = (   0.8813000   0.2761214   0.3518405  )

   Crystallographic axes

     site n.     atom                  positions (cryst. coord.)
         1           Se  tau(   1) = (  0.8555000  0.2500000  0.4828000  )
         2           Sn  tau(   2) = (  0.1187000  0.2500000  0.0988000  )
         3           Se  tau(   3) = (  0.6445000  0.7500000  0.9828000  )
         4           Sn  tau(   4) = (  0.3813000  0.7500000  0.5988000  )
         5           Se  tau(   5) = (  0.3555000  0.2500000  0.0172000  )
         6           Sn  tau(   6) = (  0.6187000  0.2500000  0.4012000  )
         7           Se  tau(   7) = (  0.1445000  0.7500000  0.5172000  )
         8           Sn  tau(   8) = (  0.8813000  0.7500000  0.9012000  )

     number of k points=    50
                       cart. coord. in units 2pi/alat
        k(    1) = (   0.0000000   0.0000000   0.0000000), wk =   0.0104167
        k(    2) = (   0.0000000   0.0000000   0.3201735), wk =   0.0208333
        k(    3) = (   0.0000000   0.0000000   0.6403469), wk =   0.0208333
        k(    4) = (   0.0000000   0.0000000   0.9605204), wk =   0.0208333
        k(    5) = (   0.0000000   0.0000000  -1.2806938), wk =   0.0104167
        k(    6) = (   0.0000000   0.3395246   0.0000000), wk =   0.0208333
        k(    7) = (   0.0000000   0.3395246   0.3201735), wk =   0.0416667
        k(    8) = (   0.0000000   0.3395246   0.6403469), wk =   0.0416667
        k(    9) = (   0.0000000   0.3395246   0.9605204), wk =   0.0416667
        k(   10) = (   0.0000000   0.3395246  -1.2806938), wk =   0.0208333
        k(   11) = (   0.0000000   0.6790492   0.0000000), wk =   0.0208333
        k(   12) = (   0.0000000   0.6790492   0.3201735), wk =   0.0416667
        k(   13) = (   0.0000000   0.6790492   0.6403469), wk =   0.0416667
        k(   14) = (   0.0000000   0.6790492   0.9605204), wk =   0.0416667
        k(   15) = (   0.0000000   0.6790492  -1.2806938), wk =   0.0208333
        k(   16) = (   0.0000000   1.0185738   0.0000000), wk =   0.0208333
        k(   17) = (   0.0000000   1.0185738   0.3201735), wk =   0.0416667
        k(   18) = (   0.0000000   1.0185738   0.6403469), wk =   0.0416667
        k(   19) = (   0.0000000   1.0185738   0.9605204), wk =   0.0416667
        k(   20) = (   0.0000000   1.0185738  -1.2806938), wk =   0.0208333
        k(   21) = (   0.0000000  -1.3580984   0.0000000), wk =   0.0104167
        k(   22) = (   0.0000000  -1.3580984   0.3201735), wk =   0.0208333
        k(   23) = (   0.0000000  -1.3580984   0.6403469), wk =   0.0208333
        k(   24) = (   0.0000000  -1.3580984   0.9605204), wk =   0.0208333
        k(   25) = (   0.0000000  -1.3580984  -1.2806938), wk =   0.0104167
        k(   26) = (   0.3333333   0.0000000   0.0000000), wk =   0.0208333
        k(   27) = (   0.3333333   0.0000000   0.3201735), wk =   0.0416667
        k(   28) = (   0.3333333   0.0000000   0.6403469), wk =   0.0416667
        k(   29) = (   0.3333333   0.0000000   0.9605204), wk =   0.0416667
        k(   30) = (   0.3333333   0.0000000  -1.2806938), wk =   0.0208333
        k(   31) = (   0.3333333   0.3395246   0.0000000), wk =   0.0416667
        k(   32) = (   0.3333333   0.3395246   0.3201735), wk =   0.0833333
        k(   33) = (   0.3333333   0.3395246   0.6403469), wk =   0.0833333
        k(   34) = (   0.3333333   0.3395246   0.9605204), wk =   0.0833333
        k(   35) = (   0.3333333   0.3395246  -1.2806938), wk =   0.0416667
        k(   36) = (   0.3333333   0.6790492   0.0000000), wk =   0.0416667
        k(   37) = (   0.3333333   0.6790492   0.3201735), wk =   0.0833333
        k(   38) = (   0.3333333   0.6790492   0.6403469), wk =   0.0833333
        k(   39) = (   0.3333333   0.6790492   0.9605204), wk =   0.0833333
        k(   40) = (   0.3333333   0.6790492  -1.2806938), wk =   0.0416667
        k(   41) = (   0.3333333   1.0185738   0.0000000), wk =   0.0416667
        k(   42) = (   0.3333333   1.0185738   0.3201735), wk =   0.0833333
        k(   43) = (   0.3333333   1.0185738   0.6403469), wk =   0.0833333
        k(   44) = (   0.3333333   1.0185738   0.9605204), wk =   0.0833333
        k(   45) = (   0.3333333   1.0185738  -1.2806938), wk =   0.0416667
        k(   46) = (   0.3333333  -1.3580984   0.0000000), wk =   0.0208333
        k(   47) = (   0.3333333  -1.3580984   0.3201735), wk =   0.0416667
        k(   48) = (   0.3333333  -1.3580984   0.6403469), wk =   0.0416667
        k(   49) = (   0.3333333  -1.3580984   0.9605204), wk =   0.0416667
        k(   50) = (   0.3333333  -1.3580984  -1.2806938), wk =   0.0208333

                       cryst. coord.
        k(    1) = (   0.0000000   0.0000000   0.0000000), wk =   0.0104167
        k(    2) = (   0.0000000   0.0000000   0.1250000), wk =   0.0208333
        k(    3) = (   0.0000000   0.0000000   0.2500000), wk =   0.0208333
        k(    4) = (   0.0000000   0.0000000   0.3750000), wk =   0.0208333
        k(    5) = (   0.0000000   0.0000000  -0.5000000), wk =   0.0104167
        k(    6) = (   0.0000000   0.1250000   0.0000000), wk =   0.0208333
        k(    7) = (   0.0000000   0.1250000   0.1250000), wk =   0.0416667
        k(    8) = (   0.0000000   0.1250000   0.2500000), wk =   0.0416667
        k(    9) = (   0.0000000   0.1250000   0.3750000), wk =   0.0416667
        k(   10) = (   0.0000000   0.1250000  -0.5000000), wk =   0.0208333
        k(   11) = (   0.0000000   0.2500000   0.0000000), wk =   0.0208333
        k(   12) = (   0.0000000   0.2500000   0.1250000), wk =   0.0416667
        k(   13) = (   0.0000000   0.2500000   0.2500000), wk =   0.0416667
        k(   14) = (   0.0000000   0.2500000   0.3750000), wk =   0.0416667
        k(   15) = (   0.0000000   0.2500000  -0.5000000), wk =   0.0208333
        k(   16) = (   0.0000000   0.3750000   0.0000000), wk =   0.0208333
        k(   17) = (   0.0000000   0.3750000   0.1250000), wk =   0.0416667
        k(   18) = (   0.0000000   0.3750000   0.2500000), wk =   0.0416667
        k(   19) = (   0.0000000   0.3750000   0.3750000), wk =   0.0416667
        k(   20) = (   0.0000000   0.3750000  -0.5000000), wk =   0.0208333
        k(   21) = (   0.0000000  -0.5000000   0.0000000), wk =   0.0104167
        k(   22) = (   0.0000000  -0.5000000   0.1250000), wk =   0.0208333
        k(   23) = (   0.0000000  -0.5000000   0.2500000), wk =   0.0208333
        k(   24) = (   0.0000000  -0.5000000   0.3750000), wk =   0.0208333
        k(   25) = (   0.0000000  -0.5000000  -0.5000000), wk =   0.0104167
        k(   26) = (   0.3333333   0.0000000   0.0000000), wk =   0.0208333
        k(   27) = (   0.3333333   0.0000000   0.1250000), wk =   0.0416667
        k(   28) = (   0.3333333   0.0000000   0.2500000), wk =   0.0416667
        k(   29) = (   0.3333333   0.0000000   0.3750000), wk =   0.0416667
        k(   30) = (   0.3333333   0.0000000  -0.5000000), wk =   0.0208333
        k(   31) = (   0.3333333   0.1250000   0.0000000), wk =   0.0416667
        k(   32) = (   0.3333333   0.1250000   0.1250000), wk =   0.0833333
        k(   33) = (   0.3333333   0.1250000   0.2500000), wk =   0.0833333
        k(   34) = (   0.3333333   0.1250000   0.3750000), wk =   0.0833333
        k(   35) = (   0.3333333   0.1250000  -0.5000000), wk =   0.0416667
        k(   36) = (   0.3333333   0.2500000   0.0000000), wk =   0.0416667
        k(   37) = (   0.3333333   0.2500000   0.1250000), wk =   0.0833333
        k(   38) = (   0.3333333   0.2500000   0.2500000), wk =   0.0833333
        k(   39) = (   0.3333333   0.2500000   0.3750000), wk =   0.0833333
        k(   40) = (   0.3333333   0.2500000  -0.5000000), wk =   0.0416667
        k(   41) = (   0.3333333   0.3750000   0.0000000), wk =   0.0416667
        k(   42) = (   0.3333333   0.3750000   0.1250000), wk =   0.0833333
        k(   43) = (   0.3333333   0.3750000   0.2500000), wk =   0.0833333
        k(   44) = (   0.3333333   0.3750000   0.3750000), wk =   0.0833333
        k(   45) = (   0.3333333   0.3750000  -0.5000000), wk =   0.0416667
        k(   46) = (   0.3333333  -0.5000000   0.0000000), wk =   0.0208333
        k(   47) = (   0.3333333  -0.5000000   0.1250000), wk =   0.0416667
        k(   48) = (   0.3333333  -0.5000000   0.2500000), wk =   0.0416667
        k(   49) = (   0.3333333  -0.5000000   0.3750000), wk =   0.0416667
        k(   50) = (   0.3333333  -0.5000000  -0.5000000), wk =   0.0208333

     Dense  grid:    95113 G-vectors     FFT dimensions: ( 120,  40,  48)

     Smooth grid:    24123 G-vectors     FFT dimensions: (  72,  30,  30)

     Dynamical RAM for                 wfc:       1.15 MB

     Dynamical RAM for     wfc (w. buffer):      20.67 MB

     Dynamical RAM for           str. fact:       1.45 MB

     Dynamical RAM for           local pot:       0.00 MB

     Dynamical RAM for          nlocal pot:       3.31 MB

     Dynamical RAM for                qrad:       2.54 MB

     Dynamical RAM for          rho,v,vnew:       4.81 MB

     Dynamical RAM for               rhoin:       1.60 MB

     Dynamical RAM for            rho*nmix:      11.61 MB

     Dynamical RAM for           G-vectors:       2.81 MB

     Dynamical RAM for          h,s,v(r/c):       0.46 MB

     Dynamical RAM for          <psi|beta>:       0.11 MB

     Dynamical RAM for                 psi:       2.30 MB

     Dynamical RAM for                hpsi:       2.30 MB

     Dynamical RAM for                spsi:       2.30 MB

     Dynamical RAM for      wfcinit/wfcrot:       2.45 MB

     Dynamical RAM for           addusdens:      46.44 MB

     Dynamical RAM for          addusforce:      47.79 MB

     Estimated static dynamical RAM per process >      55.38 MB

     Estimated max dynamical RAM per process >     103.17 MB

     Estimated total dynamical RAM >     619.00 MB

     Initial potential from superposition of free atoms

     starting charge   75.99954, renormalised to   80.00000
     Starting wfcs are   52 randomized atomic wfcs

     total cpu time spent up to now is        7.1 secs

     Self-consistent Calculation

     iteration #  1     ecut=    25.00 Ry     beta= 0.70
     Davidson diagonalization with overlap
     ethr =  1.00E-02,  avg # of iterations =  3.9

     total cpu time spent up to now is       33.7 secs

     total energy              =    -826.64803863 Ry
     estimated scf accuracy    <       2.64963953 Ry

     iteration #  2     ecut=    25.00 Ry     beta= 0.70
     Davidson diagonalization with overlap
     ethr =  3.31E-03,  avg # of iterations =  2.0

     total cpu time spent up to now is       52.1 secs

     total energy              =    -827.44091881 Ry
     estimated scf accuracy    <       1.10916814 Ry

     iteration #  3     ecut=    25.00 Ry     beta= 0.70
     Davidson diagonalization with overlap
     ethr =  1.39E-03,  avg # of iterations =  2.0

     total cpu time spent up to now is       67.2 secs

     total energy              =    -827.71922188 Ry
     estimated scf accuracy    <       0.06048972 Ry

     iteration #  4     ecut=    25.00 Ry     beta= 0.70
     Davidson diagonalization with overlap
     ethr =  7.56E-05,  avg # of iterations =  3.3

     total cpu time spent up to now is       90.3 secs

     total energy              =    -827.72984582 Ry
     estimated scf accuracy    <       0.00291316 Ry

     iteration #  5     ecut=    25.00 Ry     beta= 0.70
     Davidson diagonalization with overlap
     ethr =  3.64E-06,  avg # of iterations =  5.8

     total cpu time spent up to now is      118.4 secs

     total energy              =    -827.73049287 Ry
     estimated scf accuracy    <       0.00079927 Ry

     iteration #  6     ecut=    25.00 Ry     beta= 0.70
     Davidson diagonalization with overlap
     ethr =  9.99E-07,  avg # of iterations =  2.0

     total cpu time spent up to now is      135.7 secs

     total energy              =    -827.73066372 Ry
     estimated scf accuracy    <       0.00004742 Ry

     iteration #  7     ecut=    25.00 Ry     beta= 0.70
     Davidson diagonalization with overlap
     ethr =  5.93E-08,  avg # of iterations =  4.0

     total cpu time spent up to now is      160.3 secs

     total energy              =    -827.73067995 Ry
     estimated scf accuracy    <       0.00000303 Ry

     iteration #  8     ecut=    25.00 Ry     beta= 0.70
     Davidson diagonalization with overlap
     ethr =  3.78E-09,  avg # of iterations =  2.2

     total cpu time spent up to now is      178.2 secs

     total energy              =    -827.73068088 Ry
     estimated scf accuracy    <       0.00000053 Ry

     iteration #  9     ecut=    25.00 Ry     beta= 0.70
     Davidson diagonalization with overlap
     ethr =  6.60E-10,  avg # of iterations =  2.0

     total cpu time spent up to now is      192.8 secs

     End of self-consistent calculation

          k = 0.0000 0.0000 0.0000 (  3015 PWs)   bands (ev):

   -13.2704 -13.2591 -13.2558 -13.2532 -13.2529 -13.2494 -13.2463 -13.2418
   -13.2382 -13.2375 -13.2372 -13.2294 -13.2224 -13.2152 -13.2012 -13.1967
   -13.1916 -13.1875 -13.1798 -13.1712  -5.7474  -5.3973  -4.6607  -4.1607
     0.8107   1.9490   2.5392   3.0749   3.2296   4.6630   4.7027   4.7769
     5.1816   5.2381   5.8102   6.3115   6.5348   6.9885   7.3988   7.5682
     8.8508  10.9507  11.0994  11.1328  11.3577  11.4521  12.3342  12.6304
    12.7047  12.7432

     occupation numbers 
     1.0000   1.0000   1.0000   1.0000   1.0000   1.0000   1.0000   1.0000
     1.0000   1.0000   1.0000   1.0000   1.0000   1.0000   1.0000   1.0000
     1.0000   1.0000   1.0000   1.0000   1.0000   1.0000   1.0000   1.0000
     1.0000   1.0000   1.0000   1.0000   1.0000   1.0000   1.0000   1.0000
     1.0000   1.0000   1.0000   1.0000   1.0000   1.0000   1.0000   1.0000
     0.0000   0.0000   0.0000   0.0000   0.0000   0.0000   0.0000   0.0000
     0.0000   0.0000

          k = 0.0000 0.0000 0.3202 (  3021 PWs)   bands (ev):

   -13.2696 -13.2585 -13.2558 -13.2539 -13.2530 -13.2504 -13.2467 -13.2427
   -13.2380 -13.2367 -13.2347 -13.2298 -13.2217 -13.2158 -13.2017 -13.1966
   -13.1921 -13.1885 -13.1798 -13.1713  -5.6802  -5.3358  -4.6512  -4.1775
     0.5847   1.8065   2.1938   2.8126   3.2008   4.7341   4.7655   5.1519
     5.2743   5.6942   5.8785   6.3912   6.5695   7.2125   7.2702   7.5953
     8.9043  10.4017  10.9988  11.1386  11.1609  11.3515  12.1947  12.3138
    12.4642  12.6934

     occupation numbers 
     1.0000   1.0000   1.0000   1.0000   1.0000   1.0000   1.0000   1.0000
     1.0000   1.0000   1.0000   1.0000   1.0000   1.0000   1.0000   1.0000
     1.0000   1.0000   1.0000   1.0000   1.0000   1.0000   1.0000   1.0000
     1.0000   1.0000   1.0000   1.0000   1.0000   1.0000   1.0000   1.0000
     1.0000   1.0000   1.0000   1.0000   1.0000   1.0000   1.0000   1.0000
     0.0000   0.0000   0.0000   0.0000   0.0000   0.0000   0.0000   0.0000
     0.0000   0.0000

          k = 0.0000 0.0000 0.6403 (  3023 PWs)   bands (ev):

   -13.2672 -13.2568 -13.2562 -13.2561 -13.2534 -13.2519 -13.2477 -13.2448
   -13.2368 -13.2331 -13.2308 -13.2303 -13.2209 -13.2168 -13.2010 -13.1955
   -13.1937 -13.1899 -13.1784 -13.1723  -5.4905  -5.1615  -4.6512  -4.2443
     0.1700   1.3529   1.5096   2.3518   3.3701   5.0039   5.0592   5.5372
     5.7233   6.0388   6.1789   6.6244   6.8788   7.0116   7.5230   7.8396
     9.2179   9.4511  10.1742  10.2281  10.9517  11.2361  11.4566  11.5837
    12.6073  12.7507

     occupation numbers 
     1.0000   1.0000   1.0000   1.0000   1.0000   1.0000   1.0000   1.0000
     1.0000   1.0000   1.0000   1.0000   1.0000   1.0000   1.0000   1.0000
     1.0000   1.0000   1.0000   1.0000   1.0000   1.0000   1.0000   1.0000
     1.0000   1.0000   1.0000   1.0000   1.0000   1.0000   1.0000   1.0000
     1.0000   1.0000   1.0000   1.0000   1.0000   1.0000   1.0000   1.0000
     0.0000   0.0000   0.0000   0.0000   0.0000   0.0000   0.0000   0.0000
     0.0000   0.0000

          k = 0.0000 0.0000 0.9605 (  3016 PWs)   bands (ev):

   -13.2638 -13.2578 -13.2574 -13.2565 -13.2542 -13.2514 -13.2483 -13.2469
   -13.2349 -13.2320 -13.2275 -13.2257 -13.2210 -13.2191 -13.2001 -13.1960
   -13.1938 -13.1909 -13.1769 -13.1737  -5.2172  -4.9072  -4.7303  -4.3930
    -0.0657   0.5738   1.3331   1.8116   3.8107   4.9255   5.4914   5.9169
     6.1301   6.3139   6.4633   6.5658   6.9142   7.4274   7.8065   8.0317
     9.0001   9.3195   9.6084   9.7887  10.1815  10.2829  10.8453  11.1287
    11.6660  11.8383

     occupation numbers 
     1.0000   1.0000   1.0000   1.0000   1.0000   1.0000   1.0000   1.0000
     1.0000   1.0000   1.0000   1.0000   1.0000   1.0000   1.0000   1.0000
     1.0000   1.0000   1.0000   1.0000   1.0000   1.0000   1.0000   1.0000
     1.0000   1.0000   1.0000   1.0000   1.0000   1.0000   1.0000   1.0000
     1.0000   1.0000   1.0000   1.0000   1.0000   1.0000   1.0000   1.0000
     0.0000   0.0000   0.0000   0.0000   0.0000   0.0000   0.0000   0.0000
     0.0000   0.0000

          k = 0.0000 0.0000-1.2807 (  3030 PWs)   bands (ev):

   -13.2606 -13.2606 -13.2582 -13.2582 -13.2524 -13.2524 -13.2484 -13.2484
   -13.2333 -13.2333 -13.2228 -13.2228 -13.2221 -13.2221 -13.1985 -13.1985
   -13.1926 -13.1926 -13.1755 -13.1755  -4.9334  -4.9334  -4.6287  -4.6287
     0.0662   0.0662   1.4339   1.4339   4.3897   4.3897   5.9283   5.9283
     6.3055   6.3055   6.6783   6.6783   7.2605   7.2605   7.7972   7.7972
     9.3226   9.3226   9.6536   9.6536   9.7902   9.7902  10.7616  10.7616
    11.2275  11.2275

     occupation numbers 
     1.0000   1.0000   1.0000   1.0000   1.0000   1.0000   1.0000   1.0000
     1.0000   1.0000   1.0000   1.0000   1.0000   1.0000   1.0000   1.0000
     1.0000   1.0000   1.0000   1.0000   1.0000   1.0000   1.0000   1.0000
     1.0000   1.0000   1.0000   1.0000   1.0000   1.0000   1.0000   1.0000
     1.0000   1.0000   1.0000   1.0000   1.0000   1.0000   1.0000   1.0000
     0.0000   0.0000   0.0000   0.0000   0.0000   0.0000   0.0000   0.0000
     0.0000   0.0000

          k = 0.0000 0.3395 0.0000 (  3019 PWs)   bands (ev):

   -13.2673 -13.2578 -13.2544 -13.2530 -13.2521 -13.2519 -13.2490 -13.2440
   -13.2407 -13.2354 -13.2340 -13.2318 -13.2198 -13.2161 -13.1999 -13.1978
   -13.1905 -13.1902 -13.1798 -13.1723  -5.6633  -5.3257  -4.6239  -4.1649
     0.6921   1.7083   2.4623   2.6207   3.2113   4.5961   4.8819   4.9823
     5.1643   5.3302   6.0168   6.3596   6.5195   7.2448   7.4092   7.4925
     8.9819  10.3781  10.9752  11.3202  11.3411  11.3714  11.9445  12.1029
    12.5135  12.9377

     occupation numbers 
     1.0000   1.0000   1.0000   1.0000   1.0000   1.0000   1.0000   1.0000
     1.0000   1.0000   1.0000   1.0000   1.0000   1.0000   1.0000   1.0000
     1.0000   1.0000   1.0000   1.0000   1.0000   1.0000   1.0000   1.0000
     1.0000   1.0000   1.0000   1.0000   1.0000   1.0000   1.0000   1.0000
     1.0000   1.0000   1.0000   1.0000   1.0000   1.0000   1.0000   1.0000
     0.0000   0.0000   0.0000   0.0000   0.0000   0.0000   0.0000   0.0000
     0.0000   0.0000

          k = 0.0000 0.3395 0.3202 (  3016 PWs)   bands (ev):

   -13.2665 -13.2572 -13.2557 -13.2528 -13.2526 -13.2514 -13.2494 -13.2450
   -13.2403 -13.2335 -13.2326 -13.2318 -13.2199 -13.2160 -13.2001 -13.1974
   -13.1909 -13.1902 -13.1796 -13.1726  -5.5975  -5.2657  -4.6141  -4.1787
     0.5337   1.6549   2.1179   2.5393   3.2351   4.3289   4.5217   5.5011
     5.5055   5.7024   5.7431   6.3792   6.8162   7.2406   7.5449   7.5515
     9.0414   9.9500  10.5500  10.8375  11.1419  11.4824  11.8627  12.1099
    12.5286  12.9857

     occupation numbers 
     1.0000   1.0000   1.0000   1.0000   1.0000   1.0000   1.0000   1.0000
     1.0000   1.0000   1.0000   1.0000   1.0000   1.0000   1.0000   1.0000
     1.0000   1.0000   1.0000   1.0000   1.0000   1.0000   1.0000   1.0000
     1.0000   1.0000   1.0000   1.0000   1.0000   1.0000   1.0000   1.0000
     1.0000   1.0000   1.0000   1.0000   1.0000   1.0000   1.0000   1.0000
     0.0000   0.0000   0.0000   0.0000   0.0000   0.0000   0.0000   0.0000
     0.0000   0.0000

          k = 0.0000 0.3395 0.6403 (  3008 PWs)   bands (ev):

   -13.2650 -13.2576 -13.2565 -13.2531 -13.2526 -13.2510 -13.2495 -13.2479
   -13.2386 -13.2323 -13.2296 -13.2287 -13.2198 -13.2161 -13.1995 -13.1962
   -13.1924 -13.1913 -13.1786 -13.1734  -5.4121  -5.0966  -4.6121  -4.2362
     0.2169   1.3786   1.5048   2.2334   3.4627   4.2683   4.4509   5.5516
     5.7736   5.9492   6.2887   6.3507   7.0739   7.2771   7.5916   7.7020
     9.3063   9.6093   9.8719   9.8732  11.0557  11.0675  11.5298  12.0716
    12.6337  12.7999

     occupation numbers 
     1.0000   1.0000   1.0000   1.0000   1.0000   1.0000   1.0000   1.0000
     1.0000   1.0000   1.0000   1.0000   1.0000   1.0000   1.0000   1.0000
     1.0000   1.0000   1.0000   1.0000   1.0000   1.0000   1.0000   1.0000
     1.0000   1.0000   1.0000   1.0000   1.0000   1.0000   1.0000   1.0000
     1.0000   1.0000   1.0000   1.0000   1.0000   1.0000   1.0000   1.0000
     0.0000   0.0000   0.0000   0.0000   0.0000   0.0000   0.0000   0.0000
     0.0000   0.0000

          k = 0.0000 0.3395 0.9605 (  3000 PWs)   bands (ev):

   -13.2632 -13.2603 -13.2565 -13.2540 -13.2521 -13.2516 -13.2498 -13.2488
   -13.2366 -13.2333 -13.2252 -13.2240 -13.2203 -13.2175 -13.1987 -13.1946
   -13.1945 -13.1920 -13.1774 -13.1744  -5.1472  -4.8520  -4.6844  -4.3698
     0.0321   0.6570   1.3980   1.8171   3.8853   4.4977   4.6572   5.5458
     5.6632   5.7709   6.3471   6.6580   7.2834   7.2912   7.6427   7.6530
     9.2344   9.4900   9.5362   9.8957  10.6672  10.8065  11.1021  11.8007
    12.2186  12.5130

     occupation numbers 
     1.0000   1.0000   1.0000   1.0000   1.0000   1.0000   1.0000   1.0000
     1.0000   1.0000   1.0000   1.0000   1.0000   1.0000   1.0000   1.0000
     1.0000   1.0000   1.0000   1.0000   1.0000   1.0000   1.0000   1.0000
     1.0000   1.0000   1.0000   1.0000   1.0000   1.0000   1.0000   1.0000
     1.0000   1.0000   1.0000   1.0000   1.0000   1.0000   1.0000   1.0000
     0.0000   0.0000   0.0000   0.0000   0.0000   0.0000   0.0000   0.0000
     0.0000   0.0000

          k = 0.0000 0.3395-1.2807 (  3010 PWs)   bands (ev):

   -13.2622 -13.2622 -13.2556 -13.2556 -13.2523 -13.2523 -13.2493 -13.2493
   -13.2348 -13.2348 -13.2222 -13.2222 -13.2201 -13.2201 -13.1969 -13.1969
   -13.1934 -13.1934 -13.1759 -13.1759  -4.8756  -4.8756  -4.5882  -4.5882
     0.1721   0.1721   1.4967   1.4967   4.3663   4.3663   5.1521   5.1521
     5.5787   5.5787   6.5019   6.5019   7.4178   7.4178   7.6365   7.6365
     9.2072   9.2072   9.6736   9.6736  10.9070  10.9070  11.2627  11.2627
    11.9657  11.9657

     occupation numbers 
     1.0000   1.0000   1.0000   1.0000   1.0000   1.0000   1.0000   1.0000
     1.0000   1.0000   1.0000   1.0000   1.0000   1.0000   1.0000   1.0000
     1.0000   1.0000   1.0000   1.0000   1.0000   1.0000   1.0000   1.0000
     1.0000   1.0000   1.0000   1.0000   1.0000   1.0000   1.0000   1.0000
     1.0000   1.0000   1.0000   1.0000   1.0000   1.0000   1.0000   1.0000
     0.0000   0.0000   0.0000   0.0000   0.0000   0.0000   0.0000   0.0000
     0.0000   0.0000

          k = 0.0000 0.6790 0.0000 (  3007 PWs)   bands (ev):

   -13.2590 -13.2590 -13.2576 -13.2546 -13.2512 -13.2486 -13.2477 -13.2462
   -13.2414 -13.2355 -13.2327 -13.2286 -13.2180 -13.2160 -13.2005 -13.1957
   -13.1957 -13.1876 -13.1799 -13.1752  -5.4235  -5.1278  -4.5448  -4.2109
     0.4196   1.2441   1.7290   2.0626   3.4087   4.7918   5.1862   5.2486
     5.2651   5.5749   6.3294   6.4316   6.6193   7.2697   7.3929   7.8474
     9.0594   9.2957  10.3978  10.5673  10.5975  11.1932  11.2034  11.8966
    12.6267  12.7647

     occupation numbers 
     1.0000   1.0000   1.0000   1.0000   1.0000   1.0000   1.0000   1.0000
     1.0000   1.0000   1.0000   1.0000   1.0000   1.0000   1.0000   1.0000
     1.0000   1.0000   1.0000   1.0000   1.0000   1.0000   1.0000   1.0000
     1.0000   1.0000   1.0000   1.0000   1.0000   1.0000   1.0000   1.0000
     1.0000   1.0000   1.0000   1.0000   1.0000   1.0000   1.0000   1.0000
     0.0000   0.0000   0.0000   0.0000   0.0000   0.0000   0.0000   0.0000
     0.0000   0.0000

          k = 0.0000 0.6790 0.3202 (  3005 PWs)   bands (ev):

   -13.2617 -13.2585 -13.2573 -13.2556 -13.2509 -13.2484 -13.2479 -13.2459
   -13.2406 -13.2356 -13.2315 -13.2273 -13.2189 -13.2152 -13.2002 -13.1958
   -13.1953 -13.1880 -13.1796 -13.1753  -5.3623  -5.0731  -4.5332  -4.2148
     0.3943   1.2993   1.6977   1.9553   3.4914   4.1176   4.4363   5.2969
     5.7957   5.9273   5.9964   6.3349   6.9715   7.3043   7.4215   7.6289
     9.3064   9.4130   9.7921   9.9382  11.0870  11.1115  11.7160  12.0521
    12.6740  12.8197

     occupation numbers 
     1.0000   1.0000   1.0000   1.0000   1.0000   1.0000   1.0000   1.0000
     1.0000   1.0000   1.0000   1.0000   1.0000   1.0000   1.0000   1.0000
     1.0000   1.0000   1.0000   1.0000   1.0000   1.0000   1.0000   1.0000
     1.0000   1.0000   1.0000   1.0000   1.0000   1.0000   1.0000   1.0000
     1.0000   1.0000   1.0000   1.0000   1.0000   1.0000   1.0000   1.0000
     0.0000   0.0000   0.0000   0.0000   0.0000   0.0000   0.0000   0.0000
     0.0000   0.0000

          k = 0.0000 0.6790 0.6403 (  2993 PWs)   bands (ev):

   -13.2651 -13.2619 -13.2577 -13.2566 -13.2508 -13.2479 -13.2463 -13.2457
   -13.2391 -13.2354 -13.2279 -13.2240 -13.2193 -13.2146 -13.1995 -13.1956
   -13.1949 -13.1892 -13.1789 -13.1755  -5.1922  -4.9210  -4.5224  -4.2421
     0.3284   1.3834   1.4229   1.8485   3.6307   3.7309   3.9098   5.0012
     5.1910   6.0297   6.0387   6.5398   6.7374   7.1476   7.2614   7.4706
     9.0662   9.5846  10.2880  10.6324  10.8267  11.3090  11.5584  12.6052
    13.0047  13.0311

     occupation numbers 
     1.0000   1.0000   1.0000   1.0000   1.0000   1.0000   1.0000   1.0000
     1.0000   1.0000   1.0000   1.0000   1.0000   1.0000   1.0000   1.0000
     1.0000   1.0000   1.0000   1.0000   1.0000   1.0000   1.0000   1.0000
     1.0000   1.0000   1.0000   1.0000   1.0000   1.0000   1.0000   1.0000
     1.0000   1.0000   1.0000   1.0000   1.0000   1.0000   1.0000   1.0000
     0.0000   0.0000   0.0000   0.0000   0.0000   0.0000   0.0000   0.0000
     0.0000   0.0000

          k = 0.0000 0.6790 0.9605 (  2993 PWs)   bands (ev):

   -13.2673 -13.2655 -13.2592 -13.2586 -13.2498 -13.2466 -13.2464 -13.2453
   -13.2373 -13.2357 -13.2242 -13.2201 -13.2199 -13.2151 -13.1982 -13.1963
   -13.1939 -13.1906 -13.1779 -13.1760  -4.9555  -4.7082  -4.5711  -4.3278
     0.3069   0.8752   1.5297   1.7571   3.5969   3.8643   4.0366   4.6918
     4.8870   5.5837   5.5976   6.2639   6.4221   6.9386   7.0754   7.4824
     8.9956  10.2531  10.4583  11.3389  11.4155  11.5888  11.8742  12.8212
    12.8761  13.1565

     occupation numbers 
     1.0000   1.0000   1.0000   1.0000   1.0000   1.0000   1.0000   1.0000
     1.0000   1.0000   1.0000   1.0000   1.0000   1.0000   1.0000   1.0000
     1.0000   1.0000   1.0000   1.0000   1.0000   1.0000   1.0000   1.0000
     1.0000   1.0000   1.0000   1.0000   1.0000   1.0000   1.0000   1.0000
     1.0000   1.0000   1.0000   1.0000   1.0000   1.0000   1.0000   1.0000
     0.0000   0.0000   0.0000   0.0000   0.0000   0.0000   0.0000   0.0000
     0.0000   0.0000

          k = 0.0000 0.6790-1.2807 (  3006 PWs)   bands (ev):

   -13.2676 -13.2676 -13.2599 -13.2599 -13.2482 -13.2482 -13.2456 -13.2456
   -13.2363 -13.2363 -13.2214 -13.2214 -13.2171 -13.2171 -13.1974 -13.1974
   -13.1926 -13.1926 -13.1770 -13.1770  -4.7235  -4.7235  -4.4914  -4.4914
     0.4746   0.4746   1.6289   1.6289   3.9341   3.9341   4.1986   4.1986
     5.0415   5.0415   5.7305   5.7305   6.6125   6.6125   7.2071   7.2071
     9.6198   9.6198  11.0570  11.0570  12.0465  12.0465  12.5638  12.5638
    12.8556  12.8556

     occupation numbers 
     1.0000   1.0000   1.0000   1.0000   1.0000   1.0000   1.0000   1.0000
     1.0000   1.0000   1.0000   1.0000   1.0000   1.0000   1.0000   1.0000
     1.0000   1.0000   1.0000   1.0000   1.0000   1.0000   1.0000   1.0000
     1.0000   1.0000   1.0000   1.0000   1.0000   1.0000   1.0000   1.0000
     1.0000   1.0000   1.0000   1.0000   1.0000   1.0000   1.0000   1.0000
     0.0000   0.0000   0.0000   0.0000   0.0000   0.0000   0.0000   0.0000
     0.0000   0.0000

          k = 0.0000 1.0186 0.0000 (  3016 PWs)   bands (ev):

   -13.2630 -13.2603 -13.2599 -13.2572 -13.2468 -13.2467 -13.2457 -13.2416
   -13.2379 -13.2367 -13.2319 -13.2225 -13.2218 -13.2124 -13.2047 -13.2043
   -13.1899 -13.1843 -13.1799 -13.1790  -5.0700  -4.8596  -4.5127  -4.3737
     0.2263   0.8957   0.9607   1.4892   3.8806   4.9596   5.3832   5.5631
     5.7010   5.8444   6.2719   6.5719   6.9871   7.2220   7.2723   7.6291
     8.8527   9.5678   9.5837   9.6634   9.9270  10.3494  10.5316  11.2653
    11.5988  11.9959

     occupation numbers 
     1.0000   1.0000   1.0000   1.0000   1.0000   1.0000   1.0000   1.0000
     1.0000   1.0000   1.0000   1.0000   1.0000   1.0000   1.0000   1.0000
     1.0000   1.0000   1.0000   1.0000   1.0000   1.0000   1.0000   1.0000
     1.0000   1.0000   1.0000   1.0000   1.0000   1.0000   1.0000   1.0000
     1.0000   1.0000   1.0000   1.0000   1.0000   1.0000   1.0000   1.0000
     0.0000   0.0000   0.0000   0.0000   0.0000   0.0000   0.0000   0.0000
     0.0000   0.0000

          k = 0.0000 1.0186 0.3202 (  3008 PWs)   bands (ev):

   -13.2649 -13.2625 -13.2608 -13.2583 -13.2472 -13.2451 -13.2448 -13.2410
   -13.2371 -13.2363 -13.2309 -13.2225 -13.2210 -13.2124 -13.2041 -13.2035
   -13.1898 -13.1846 -13.1798 -13.1787  -5.0186  -4.8149  -4.4948  -4.3597
     0.2927   0.9654   1.0429   1.4816   3.9453   4.3150   4.6372   5.4188
     5.6581   5.6838   6.3318   6.4248   6.7065   7.1239   7.3373   7.4670
     9.1899   9.2017   9.4376   9.8026  10.8173  10.9218  11.1809  11.3986
    12.2001  12.6518

     occupation numbers 
     1.0000   1.0000   1.0000   1.0000   1.0000   1.0000   1.0000   1.0000
     1.0000   1.0000   1.0000   1.0000   1.0000   1.0000   1.0000   1.0000
     1.0000   1.0000   1.0000   1.0000   1.0000   1.0000   1.0000   1.0000
     1.0000   1.0000   1.0000   1.0000   1.0000   1.0000   1.0000   1.0000
     1.0000   1.0000   1.0000   1.0000   1.0000   1.0000   1.0000   1.0000
     0.0000   0.0000   0.0000   0.0000   0.0000   0.0000   0.0000   0.0000
     0.0000   0.0000

          k = 0.0000 1.0186 0.6403 (  3010 PWs)   bands (ev):

   -13.2692 -13.2672 -13.2632 -13.2617 -13.2468 -13.2441 -13.2423 -13.2403
   -13.2360 -13.2357 -13.2285 -13.2222 -13.2191 -13.2133 -13.2031 -13.2021
   -13.1897 -13.1859 -13.1794 -13.1782  -4.8798  -4.6949  -4.4608  -4.3342
     0.4689   1.1274   1.2667   1.4462   3.5180   3.9378   4.0929   4.6059
     4.9564   5.6192   5.6658   5.9862   6.3954   6.5240   7.0783   7.4377
     8.8919  10.2474  10.2823  10.9817  11.3412  11.6808  12.2711  12.4592
    12.6587  12.7666

     occupation numbers 
     1.0000   1.0000   1.0000   1.0000   1.0000   1.0000   1.0000   1.0000
     1.0000   1.0000   1.0000   1.0000   1.0000   1.0000   1.0000   1.0000
     1.0000   1.0000   1.0000   1.0000   1.0000   1.0000   1.0000   1.0000
     1.0000   1.0000   1.0000   1.0000   1.0000   1.0000   1.0000   1.0000
     1.0000   1.0000   1.0000   1.0000   1.0000   1.0000   1.0000   1.0000
     0.0000   0.0000   0.0000   0.0000   0.0000   0.0000   0.0000   0.0000
     0.0000   0.0000

          k = 0.0000 1.0186 0.9605 (  3001 PWs)   bands (ev):

   -13.2726 -13.2716 -13.2657 -13.2647 -13.2458 -13.2439 -13.2405 -13.2396
   -13.2349 -13.2347 -13.2254 -13.2218 -13.2166 -13.2139 -13.2018 -13.2008
   -13.1891 -13.1868 -13.1787 -13.1778  -4.6983  -4.5403  -4.4605  -4.3376
     0.6916   1.1184   1.5227   1.5344   3.1273   3.5843   3.8189   4.0860
     4.6708   5.0179   5.0686   5.6588   5.9387   6.1547   6.9233   6.9569
     9.5053  10.9632  11.2459  11.3548  12.3113  12.3742  12.6240  12.9613
    13.0961  13.2613

     occupation numbers 
     1.0000   1.0000   1.0000   1.0000   1.0000   1.0000   1.0000   1.0000
     1.0000   1.0000   1.0000   1.0000   1.0000   1.0000   1.0000   1.0000
     1.0000   1.0000   1.0000   1.0000   1.0000   1.0000   1.0000   1.0000
     1.0000   1.0000   1.0000   1.0000   1.0000   1.0000   1.0000   1.0000
     1.0000   1.0000   1.0000   1.0000   1.0000   1.0000   1.0000   1.0000
     0.0000   0.0000   0.0000   0.0000   0.0000   0.0000   0.0000   0.0000
     0.0000   0.0000

          k = 0.0000 1.0186-1.2807 (  2996 PWs)   bands (ev):

   -13.2735 -13.2735 -13.2664 -13.2664 -13.2447 -13.2447 -13.2394 -13.2394
   -13.2345 -13.2345 -13.2231 -13.2231 -13.2148 -13.2148 -13.2009 -13.2009
   -13.1880 -13.1880 -13.1779 -13.1779  -4.5404  -4.5404  -4.4067  -4.4067
     0.9130   0.9130   1.6412   1.6412   3.2562   3.2562   3.7445   3.7445
     4.5818   4.5818   5.3365   5.3365   5.8421   5.8421   6.8305   6.8305
    10.2682  10.2682  11.6661  11.6661  12.7742  12.7742  13.0113  13.0113
    13.2138  13.2138

     occupation numbers 
     1.0000   1.0000   1.0000   1.0000   1.0000   1.0000   1.0000   1.0000
     1.0000   1.0000   1.0000   1.0000   1.0000   1.0000   1.0000   1.0000
     1.0000   1.0000   1.0000   1.0000   1.0000   1.0000   1.0000   1.0000
     1.0000   1.0000   1.0000   1.0000   1.0000   1.0000   1.0000   1.0000
     1.0000   1.0000   1.0000   1.0000   1.0000   1.0000   1.0000   1.0000
     0.0000   0.0000   0.0000   0.0000   0.0000   0.0000   0.0000   0.0000
     0.0000   0.0000

          k = 0.0000-1.3581 0.0000 (  3024 PWs)   bands (ev):

   -13.2638 -13.2638 -13.2603 -13.2603 -13.2448 -13.2448 -13.2432 -13.2432
   -13.2334 -13.2334 -13.2299 -13.2299 -13.2132 -13.2132 -13.2085 -13.2085
   -13.1839 -13.1839 -13.1815 -13.1815  -4.6837  -4.6837  -4.6202  -4.6202
     0.3591   0.3591   1.0558   1.0558   4.4841   4.4841   5.8497   5.8497
     5.8648   5.8648   6.3764   6.3764   7.1079   7.1079   7.3072   7.3072
     9.1117   9.1117   9.5457   9.5457   9.8219   9.8219  10.6282  10.6282
    11.3379  11.3379

     occupation numbers 
     1.0000   1.0000   1.0000   1.0000   1.0000   1.0000   1.0000   1.0000
     1.0000   1.0000   1.0000   1.0000   1.0000   1.0000   1.0000   1.0000
     1.0000   1.0000   1.0000   1.0000   1.0000   1.0000   1.0000   1.0000
     1.0000   1.0000   1.0000   1.0000   1.0000   1.0000   1.0000   1.0000
     1.0000   1.0000   1.0000   1.0000   1.0000   1.0000   1.0000   1.0000
     0.0000   0.0000   0.0000   0.0000   0.0000   0.0000   0.0000   0.0000
     0.0000   0.0000

          k = 0.0000-1.3581 0.3202 (  3008 PWs)   bands (ev):

   -13.2656 -13.2656 -13.2611 -13.2611 -13.2446 -13.2446 -13.2419 -13.2419
   -13.2333 -13.2333 -13.2289 -13.2289 -13.2138 -13.2138 -13.2073 -13.2073
   -13.1843 -13.1843 -13.1808 -13.1808  -4.6488  -4.6488  -4.5896  -4.5896
     0.4517   0.4517   1.1134   1.1134   4.4276   4.4276   4.9880   4.9880
     5.5640   5.5640   6.4647   6.4647   6.7112   6.7112   7.4349   7.4349
     8.9537   8.9537   9.7747   9.7747  10.6437  10.6437  11.3879  11.3879
    11.8572  11.8572

     occupation numbers 
     1.0000   1.0000   1.0000   1.0000   1.0000   1.0000   1.0000   1.0000
     1.0000   1.0000   1.0000   1.0000   1.0000   1.0000   1.0000   1.0000
     1.0000   1.0000   1.0000   1.0000   1.0000   1.0000   1.0000   1.0000
     1.0000   1.0000   1.0000   1.0000   1.0000   1.0000   1.0000   1.0000
     1.0000   1.0000   1.0000   1.0000   1.0000   1.0000   1.0000   1.0000
     0.0000   0.0000   0.0000   0.0000   0.0000   0.0000   0.0000   0.0000
     0.0000   0.0000

          k = 0.0000-1.3581 0.6403 (  3008 PWs)   bands (ev):

   -13.2702 -13.2702 -13.2643 -13.2643 -13.2444 -13.2444 -13.2397 -13.2397
   -13.2326 -13.2326 -13.2272 -13.2272 -13.2146 -13.2146 -13.2050 -13.2050
   -13.1851 -13.1851 -13.1802 -13.1802  -4.5610  -4.5610  -4.5142  -4.5142
     0.7131   0.7131   1.2581   1.2581   3.9057   3.9057   4.2942   4.2942
     5.0688   5.0688   5.7331   5.7331   6.1393   6.1393   7.1999   7.1999
     9.4537   9.4537  11.0092  11.0092  11.9109  11.9109  12.2335  12.2335
    12.6172  12.6172

     occupation numbers 
     1.0000   1.0000   1.0000   1.0000   1.0000   1.0000   1.0000   1.0000
     1.0000   1.0000   1.0000   1.0000   1.0000   1.0000   1.0000   1.0000
     1.0000   1.0000   1.0000   1.0000   1.0000   1.0000   1.0000   1.0000
     1.0000   1.0000   1.0000   1.0000   1.0000   1.0000   1.0000   1.0000
     1.0000   1.0000   1.0000   1.0000   1.0000   1.0000   1.0000   1.0000
     0.0000   0.0000   0.0000   0.0000   0.0000   0.0000   0.0000   0.0000
     0.0000   0.0000

          k = 0.0000-1.3581 0.9605 (  3012 PWs)   bands (ev):

   -13.2746 -13.2746 -13.2675 -13.2675 -13.2441 -13.2441 -13.2381 -13.2381
   -13.2319 -13.2319 -13.2261 -13.2261 -13.2142 -13.2142 -13.2033 -13.2033
   -13.1855 -13.1855 -13.1794 -13.1794  -4.4655  -4.4655  -4.4382  -4.4382
     1.0701   1.0701   1.4022   1.4022   3.2708   3.2708   3.8277   3.8277
     4.5582   4.5582   5.3432   5.3432   5.7144   5.7144   6.8227   6.8227
    10.2935  10.2935  11.5293  11.5293  12.6435  12.6435  12.8374  12.8374
    13.1713  13.1713

     occupation numbers 
     1.0000   1.0000   1.0000   1.0000   1.0000   1.0000   1.0000   1.0000
     1.0000   1.0000   1.0000   1.0000   1.0000   1.0000   1.0000   1.0000
     1.0000   1.0000   1.0000   1.0000   1.0000   1.0000   1.0000   1.0000
     1.0000   1.0000   1.0000   1.0000   1.0000   1.0000   1.0000   1.0000
     1.0000   1.0000   1.0000   1.0000   1.0000   1.0000   1.0000   1.0000
     0.0000   0.0000   0.0000   0.0000   0.0000   0.0000   0.0000   0.0000
     0.0000   0.0000

          k = 0.0000-1.3581-1.2807 (  2988 PWs)   bands (ev):

   -13.2761 -13.2761 -13.2689 -13.2689 -13.2436 -13.2436 -13.2370 -13.2370
   -13.2316 -13.2316 -13.2254 -13.2254 -13.2134 -13.2134 -13.2023 -13.2023
   -13.1854 -13.1854 -13.1789 -13.1789  -4.4199  -4.4199  -4.4100  -4.4100
     1.2900   1.2900   1.4402   1.4402   3.0384   3.0384   3.5538   3.5538
     4.4688   4.4688   4.9500   4.9500   5.8011   5.8011   6.6423   6.6423
    10.8685  10.8685  11.1752  11.1752  12.8451  12.8451  12.9782  12.9782
    13.7143  13.7143

     occupation numbers 
     1.0000   1.0000   1.0000   1.0000   1.0000   1.0000   1.0000   1.0000
     1.0000   1.0000   1.0000   1.0000   1.0000   1.0000   1.0000   1.0000
     1.0000   1.0000   1.0000   1.0000   1.0000   1.0000   1.0000   1.0000
     1.0000   1.0000   1.0000   1.0000   1.0000   1.0000   1.0000   1.0000
     1.0000   1.0000   1.0000   1.0000   1.0000   1.0000   1.0000   1.0000
     0.0000   0.0000   0.0000   0.0000   0.0000   0.0000   0.0000   0.0000
     0.0000   0.0000

          k = 0.3333 0.0000 0.0000 (  3014 PWs)   bands (ev):

   -13.2679 -13.2617 -13.2564 -13.2545 -13.2529 -13.2511 -13.2443 -13.2425
   -13.2370 -13.2366 -13.2364 -13.2320 -13.2206 -13.2173 -13.2003 -13.1978
   -13.1907 -13.1888 -13.1773 -13.1731  -5.6827  -5.5172  -4.5036  -4.2632
     0.9612   1.4152   2.9568   3.0521   3.5857   4.3869   4.7508   4.9343
     4.9855   5.3942   6.0561   6.1299   6.1495   6.3938   7.4753   7.5640
    10.0742  10.7141  10.8043  11.2460  11.5935  11.7149  12.0130  12.3258
    12.9932  13.0564

     occupation numbers 
     1.0000   1.0000   1.0000   1.0000   1.0000   1.0000   1.0000   1.0000
     1.0000   1.0000   1.0000   1.0000   1.0000   1.0000   1.0000   1.0000
     1.0000   1.0000   1.0000   1.0000   1.0000   1.0000   1.0000   1.0000
     1.0000   1.0000   1.0000   1.0000   1.0000   1.0000   1.0000   1.0000
     1.0000   1.0000   1.0000   1.0000   1.0000   1.0000   1.0000   1.0000
     0.0000   0.0000   0.0000   0.0000   0.0000   0.0000   0.0000   0.0000
     0.0000   0.0000

          k = 0.3333 0.0000 0.3202 (  3001 PWs)   bands (ev):

   -13.2670 -13.2613 -13.2555 -13.2538 -13.2530 -13.2515 -13.2454 -13.2434
   -13.2361 -13.2356 -13.2346 -13.2317 -13.2202 -13.2173 -13.2000 -13.1977
   -13.1910 -13.1894 -13.1771 -13.1732  -5.6168  -5.4543  -4.5003  -4.2733
     0.7491   1.2343   2.5487   2.7670   3.6878   4.5710   4.8518   5.0820
     5.1486   5.5648   6.1152   6.2623   6.4366   6.6103   7.3680   7.5530
    10.0284  10.5424  10.9487  11.1505  11.1867  11.3828  11.5916  12.1854
    12.8272  12.9486

     occupation numbers 
     1.0000   1.0000   1.0000   1.0000   1.0000   1.0000   1.0000   1.0000
     1.0000   1.0000   1.0000   1.0000   1.0000   1.0000   1.0000   1.0000
     1.0000   1.0000   1.0000   1.0000   1.0000   1.0000   1.0000   1.0000
     1.0000   1.0000   1.0000   1.0000   1.0000   1.0000   1.0000   1.0000
     1.0000   1.0000   1.0000   1.0000   1.0000   1.0000   1.0000   1.0000
     0.0000   0.0000   0.0000   0.0000   0.0000   0.0000   0.0000   0.0000
     0.0000   0.0000

          k = 0.3333 0.0000 0.6403 (  3019 PWs)   bands (ev):

   -13.2651 -13.2605 -13.2553 -13.2545 -13.2538 -13.2528 -13.2473 -13.2457
   -13.2351 -13.2317 -13.2317 -13.2308 -13.2202 -13.2183 -13.2001 -13.1974
   -13.1923 -13.1903 -13.1770 -13.1737  -5.4313  -5.2781  -4.5151  -4.3230
     0.3448   0.8277   1.8543   2.1868   3.9255   4.9000   5.1400   5.3554
     5.5871   5.8980   6.2473   6.5164   6.7727   7.0579   7.3353   7.6208
     9.7228  10.1151  10.3348  10.5303  10.7748  10.8065  11.2588  12.0420
    12.1250  12.5351

     occupation numbers 
     1.0000   1.0000   1.0000   1.0000   1.0000   1.0000   1.0000   1.0000
     1.0000   1.0000   1.0000   1.0000   1.0000   1.0000   1.0000   1.0000
     1.0000   1.0000   1.0000   1.0000   1.0000   1.0000   1.0000   1.0000
     1.0000   1.0000   1.0000   1.0000   1.0000   1.0000   1.0000   1.0000
     1.0000   1.0000   1.0000   1.0000   1.0000   1.0000   1.0000   1.0000
     0.0000   0.0000   0.0000   0.0000   0.0000   0.0000   0.0000   0.0000
     0.0000   0.0000

          k = 0.3333 0.0000 0.9605 (  3022 PWs)   bands (ev):

   -13.2627 -13.2596 -13.2571 -13.2563 -13.2534 -13.2521 -13.2487 -13.2479
   -13.2339 -13.2323 -13.2267 -13.2258 -13.2208 -13.2197 -13.1992 -13.1973
   -13.1928 -13.1918 -13.1764 -13.1745  -5.1678  -5.0346  -4.5967  -4.4498
     0.0847   0.4164   1.3622   1.6220   4.3351   5.2109   5.5595   5.6133
     5.7420   6.2058   6.3054   6.4930   7.0326   7.1961   7.8031   7.9734
     9.1606   9.5177   9.7548  10.0307  10.0861  10.4864  10.8692  11.2997
    11.6486  11.7687

     occupation numbers 
     1.0000   1.0000   1.0000   1.0000   1.0000   1.0000   1.0000   1.0000
     1.0000   1.0000   1.0000   1.0000   1.0000   1.0000   1.0000   1.0000
     1.0000   1.0000   1.0000   1.0000   1.0000   1.0000   1.0000   1.0000
     1.0000   1.0000   1.0000   1.0000   1.0000   1.0000   1.0000   1.0000
     1.0000   1.0000   1.0000   1.0000   1.0000   1.0000   1.0000   1.0000
     0.0000   0.0000   0.0000   0.0000   0.0000   0.0000   0.0000   0.0000
     0.0000   0.0000

          k = 0.3333 0.0000-1.2807 (  3014 PWs)   bands (ev):

   -13.2603 -13.2603 -13.2575 -13.2575 -13.2524 -13.2524 -13.2489 -13.2489
   -13.2325 -13.2325 -13.2228 -13.2228 -13.2222 -13.2222 -13.1980 -13.1980
   -13.1925 -13.1925 -13.1752 -13.1752  -4.9311  -4.9311  -4.6320  -4.6320
     0.1243   0.1243   1.2939   1.2939   4.8632   4.8632   5.9225   5.9225
     5.9382   5.9382   6.2910   6.2910   7.4892   7.4892   7.8284   7.8284
     9.2584   9.2584   9.7003   9.7003   9.8314   9.8314  11.1477  11.1477
    11.2313  11.2313

     occupation numbers 
     1.0000   1.0000   1.0000   1.0000   1.0000   1.0000   1.0000   1.0000
     1.0000   1.0000   1.0000   1.0000   1.0000   1.0000   1.0000   1.0000
     1.0000   1.0000   1.0000   1.0000   1.0000   1.0000   1.0000   1.0000
     1.0000   1.0000   1.0000   1.0000   1.0000   1.0000   1.0000   1.0000
     1.0000   1.0000   1.0000   1.0000   1.0000   1.0000   1.0000   1.0000
     0.0000   0.0000   0.0000   0.0000   0.0000   0.0000   0.0000   0.0000
     0.0000   0.0000

          k = 0.3333 0.3395 0.0000 (  3015 PWs)   bands (ev):

   -13.2647 -13.2596 -13.2545 -13.2541 -13.2531 -13.2527 -13.2469 -13.2446
   -13.2388 -13.2352 -13.2336 -13.2335 -13.2191 -13.2172 -13.1989 -13.1979
   -13.1907 -13.1903 -13.1777 -13.1741  -5.6006  -5.4409  -4.4781  -4.2577
     0.8380   1.2680   2.6458   2.6589   3.6476   4.4784   4.7002   4.9835
     5.2119   5.5058   6.0529   6.1866   6.4034   6.4670   7.5238   7.5611
    10.1518  10.5915  10.9298  11.0255  11.2609  11.4547  11.5310  12.1911
    12.8267  13.1037

     occupation numbers 
     1.0000   1.0000   1.0000   1.0000   1.0000   1.0000   1.0000   1.0000
     1.0000   1.0000   1.0000   1.0000   1.0000   1.0000   1.0000   1.0000
     1.0000   1.0000   1.0000   1.0000   1.0000   1.0000   1.0000   1.0000
     1.0000   1.0000   1.0000   1.0000   1.0000   1.0000   1.0000   1.0000
     1.0000   1.0000   1.0000   1.0000   1.0000   1.0000   1.0000   1.0000
     0.0000   0.0000   0.0000   0.0000   0.0000   0.0000   0.0000   0.0000
     0.0000   0.0000

          k = 0.3333 0.3395 0.3202 (  3018 PWs)   bands (ev):

   -13.2644 -13.2594 -13.2550 -13.2538 -13.2534 -13.2525 -13.2474 -13.2454
   -13.2383 -13.2345 -13.2326 -13.2324 -13.2192 -13.2172 -13.1989 -13.1976
   -13.1913 -13.1909 -13.1776 -13.1742  -5.5361  -5.3795  -4.4741  -4.2656
     0.6945   1.1604   2.3592   2.5021   3.7366   4.3561   4.6049   4.9391
     5.4553   5.8148   5.8921   6.0542   6.7993   7.0212   7.4322   7.5798
     9.9553  10.1136  10.5221  10.9588  11.1373  11.3815  11.7768  12.1920
    12.4171  12.7061

     occupation numbers 
     1.0000   1.0000   1.0000   1.0000   1.0000   1.0000   1.0000   1.0000
     1.0000   1.0000   1.0000   1.0000   1.0000   1.0000   1.0000   1.0000
     1.0000   1.0000   1.0000   1.0000   1.0000   1.0000   1.0000   1.0000
     1.0000   1.0000   1.0000   1.0000   1.0000   1.0000   1.0000   1.0000
     1.0000   1.0000   1.0000   1.0000   1.0000   1.0000   1.0000   1.0000
     0.0000   0.0000   0.0000   0.0000   0.0000   0.0000   0.0000   0.0000
     0.0000   0.0000

          k = 0.3333 0.3395 0.6403 (  3014 PWs)   bands (ev):

   -13.2631 -13.2590 -13.2572 -13.2552 -13.2521 -13.2512 -13.2490 -13.2476
   -13.2369 -13.2340 -13.2293 -13.2288 -13.2193 -13.2175 -13.1985 -13.1967
   -13.1926 -13.1919 -13.1772 -13.1745  -5.3551  -5.2080  -4.4854  -4.3082
     0.3900   0.8647   1.8236   2.0995   3.9587   4.3304   4.5791   5.2608
     5.4048   5.7527   6.3114   6.4526   7.1567   7.2441   7.4171   7.5913
     9.5964   9.6839  10.1426  10.4816  10.7820  11.2062  11.6120  11.7247
    12.4032  12.5435

     occupation numbers 
     1.0000   1.0000   1.0000   1.0000   1.0000   1.0000   1.0000   1.0000
     1.0000   1.0000   1.0000   1.0000   1.0000   1.0000   1.0000   1.0000
     1.0000   1.0000   1.0000   1.0000   1.0000   1.0000   1.0000   1.0000
     1.0000   1.0000   1.0000   1.0000   1.0000   1.0000   1.0000   1.0000
     1.0000   1.0000   1.0000   1.0000   1.0000   1.0000   1.0000   1.0000
     0.0000   0.0000   0.0000   0.0000   0.0000   0.0000   0.0000   0.0000
     0.0000   0.0000

          k = 0.3333 0.3395 0.9605 (  3014 PWs)   bands (ev):

   -13.2620 -13.2599 -13.2584 -13.2569 -13.2513 -13.2505 -13.2499 -13.2490
   -13.2357 -13.2341 -13.2250 -13.2243 -13.2198 -13.2183 -13.1978 -13.1960
   -13.1942 -13.1931 -13.1763 -13.1751  -5.1000  -4.9729  -4.5592  -4.4224
     0.1795   0.5031   1.4205   1.6496   4.2966   4.5900   4.8812   5.2992
     5.5530   5.7452   6.1156   6.5550   7.1170   7.2874   7.4850   7.5914
     9.4319   9.7753   9.8929  10.1531  10.6058  10.9852  11.0931  11.3473
    12.3083  12.4353

     occupation numbers 
     1.0000   1.0000   1.0000   1.0000   1.0000   1.0000   1.0000   1.0000
     1.0000   1.0000   1.0000   1.0000   1.0000   1.0000   1.0000   1.0000
     1.0000   1.0000   1.0000   1.0000   1.0000   1.0000   1.0000   1.0000
     1.0000   1.0000   1.0000   1.0000   1.0000   1.0000   1.0000   1.0000
     1.0000   1.0000   1.0000   1.0000   1.0000   1.0000   1.0000   1.0000
     0.0000   0.0000   0.0000   0.0000   0.0000   0.0000   0.0000   0.0000
     0.0000   0.0000

          k = 0.3333 0.3395-1.2807 (  3022 PWs)   bands (ev):

   -13.2613 -13.2613 -13.2579 -13.2579 -13.2511 -13.2511 -13.2495 -13.2495
   -13.2347 -13.2347 -13.2222 -13.2222 -13.2203 -13.2203 -13.1966 -13.1966
   -13.1942 -13.1942 -13.1757 -13.1757  -4.8734  -4.8734  -4.5913  -4.5913
     0.2263   0.2263   1.3683   1.3683   4.7009   4.7009   5.1597   5.1597
     5.5492   5.5492   6.2272   6.2272   7.2139   7.2139   7.5436   7.5436
     9.5967   9.5967   9.9533   9.9533  10.6578  10.6578  11.2793  11.2793
    12.0585  12.0585

     occupation numbers 
     1.0000   1.0000   1.0000   1.0000   1.0000   1.0000   1.0000   1.0000
     1.0000   1.0000   1.0000   1.0000   1.0000   1.0000   1.0000   1.0000
     1.0000   1.0000   1.0000   1.0000   1.0000   1.0000   1.0000   1.0000
     1.0000   1.0000   1.0000   1.0000   1.0000   1.0000   1.0000   1.0000
     1.0000   1.0000   1.0000   1.0000   1.0000   1.0000   1.0000   1.0000
     0.0000   0.0000   0.0000   0.0000   0.0000   0.0000   0.0000   0.0000
     0.0000   0.0000

          k = 0.3333 0.6790 0.0000 (  3007 PWs)   bands (ev):

   -13.2597 -13.2595 -13.2557 -13.2543 -13.2503 -13.2494 -13.2481 -13.2480
   -13.2397 -13.2368 -13.2316 -13.2298 -13.2175 -13.2163 -13.1998 -13.1980
   -13.1921 -13.1889 -13.1787 -13.1764  -5.3677  -5.2273  -4.4348  -4.2752
     0.5574   0.9371   1.8213   2.0062   3.8862   4.7510   4.8906   5.1283
     5.5244   5.7676   6.1794   6.3070   6.4693   6.8002   7.5036   7.7025
     9.3652  10.0147  10.3883  10.5550  10.7497  11.2874  11.3469  11.9465
    12.3047  12.3560

     occupation numbers 
     1.0000   1.0000   1.0000   1.0000   1.0000   1.0000   1.0000   1.0000
     1.0000   1.0000   1.0000   1.0000   1.0000   1.0000   1.0000   1.0000
     1.0000   1.0000   1.0000   1.0000   1.0000   1.0000   1.0000   1.0000
     1.0000   1.0000   1.0000   1.0000   1.0000   1.0000   1.0000   1.0000
     1.0000   1.0000   1.0000   1.0000   1.0000   1.0000   1.0000   1.0000
     0.0000   0.0000   0.0000   0.0000   0.0000   0.0000   0.0000   0.0000
     0.0000   0.0000

          k = 0.3333 0.6790 0.3202 (  3017 PWs)   bands (ev):

   -13.2616 -13.2601 -13.2566 -13.2550 -13.2503 -13.2489 -13.2484 -13.2472
   -13.2392 -13.2367 -13.2305 -13.2286 -13.2181 -13.2161 -13.1998 -13.1981
   -13.1924 -13.1895 -13.1784 -13.1763  -5.3080  -5.1709  -4.4273  -4.2756
     0.5448   0.9546   1.7912   1.9247   3.9109   4.1951   4.5518   5.0464
     5.4628   5.7900   6.1744   6.2908   6.9127   7.0286   7.4742   7.5771
     9.4195   9.6088  10.2555  10.5212  10.8775  11.1745  11.5491  11.8711
    12.2324  12.6107

     occupation numbers 
     1.0000   1.0000   1.0000   1.0000   1.0000   1.0000   1.0000   1.0000
     1.0000   1.0000   1.0000   1.0000   1.0000   1.0000   1.0000   1.0000
     1.0000   1.0000   1.0000   1.0000   1.0000   1.0000   1.0000   1.0000
     1.0000   1.0000   1.0000   1.0000   1.0000   1.0000   1.0000   1.0000
     1.0000   1.0000   1.0000   1.0000   1.0000   1.0000   1.0000   1.0000
     0.0000   0.0000   0.0000   0.0000   0.0000   0.0000   0.0000   0.0000
     0.0000   0.0000

          k = 0.3333 0.6790 0.6403 (  3008 PWs)   bands (ev):

   -13.2643 -13.2623 -13.2588 -13.2571 -13.2497 -13.2483 -13.2465 -13.2461
   -13.2380 -13.2361 -13.2273 -13.2256 -13.2181 -13.2158 -13.1994 -13.1981
   -13.1927 -13.1904 -13.1778 -13.1762  -5.1424  -5.0154  -4.4254  -4.2939
     0.4931   0.9296   1.6496   1.7872   3.7205   3.8368   4.3872   4.8523
     4.9677   5.5769   6.3149   6.5208   6.6047   6.6847   7.4474   7.6027
     9.5991   9.9768  10.1439  10.5130  10.8668  11.2949  11.5974  12.1454
    12.5405  12.9378

     occupation numbers 
     1.0000   1.0000   1.0000   1.0000   1.0000   1.0000   1.0000   1.0000
     1.0000   1.0000   1.0000   1.0000   1.0000   1.0000   1.0000   1.0000
     1.0000   1.0000   1.0000   1.0000   1.0000   1.0000   1.0000   1.0000
     1.0000   1.0000   1.0000   1.0000   1.0000   1.0000   1.0000   1.0000
     1.0000   1.0000   1.0000   1.0000   1.0000   1.0000   1.0000   1.0000
     0.0000   0.0000   0.0000   0.0000   0.0000   0.0000   0.0000   0.0000
     0.0000   0.0000

          k = 0.3333 0.6790 0.9605 (  3009 PWs)   bands (ev):

   -13.2667 -13.2653 -13.2609 -13.2597 -13.2488 -13.2475 -13.2454 -13.2453
   -13.2368 -13.2360 -13.2241 -13.2227 -13.2173 -13.2159 -13.1989 -13.1982
   -13.1926 -13.1914 -13.1771 -13.1762  -4.9152  -4.8080  -4.4726  -4.3674
     0.4426   0.7355   1.5281   1.6565   3.6735   3.8191   4.4701   4.6085
     4.8116   5.4541   5.8627   6.1227   6.3308   6.4921   7.1300   7.3859
     9.8240  10.4124  10.6536  10.8639  11.3360  11.5436  11.7617  12.2116
    12.6681  12.9733

     occupation numbers 
     1.0000   1.0000   1.0000   1.0000   1.0000   1.0000   1.0000   1.0000
     1.0000   1.0000   1.0000   1.0000   1.0000   1.0000   1.0000   1.0000
     1.0000   1.0000   1.0000   1.0000   1.0000   1.0000   1.0000   1.0000
     1.0000   1.0000   1.0000   1.0000   1.0000   1.0000   1.0000   1.0000
     1.0000   1.0000   1.0000   1.0000   1.0000   1.0000   1.0000   1.0000
     0.0000   0.0000   0.0000   0.0000   0.0000   0.0000   0.0000   0.0000
     0.0000   0.0000

          k = 0.3333 0.6790-1.2807 (  3008 PWs)   bands (ev):

   -13.2672 -13.2672 -13.2614 -13.2614 -13.2478 -13.2478 -13.2450 -13.2450
   -13.2361 -13.2361 -13.2222 -13.2222 -13.2163 -13.2163 -13.1984 -13.1984
   -13.1922 -13.1922 -13.1765 -13.1765  -4.7217  -4.7217  -4.4937  -4.4937
     0.5158   0.5158   1.5398   1.5398   3.9847   3.9847   4.2014   4.2014
     5.1950   5.1950   5.8290   5.8290   6.3227   6.3227   7.0452   7.0452
    10.2109  10.2109  11.2052  11.2052  11.4175  11.4175  12.1459  12.1459
    12.9387  12.9387

     occupation numbers 
     1.0000   1.0000   1.0000   1.0000   1.0000   1.0000   1.0000   1.0000
     1.0000   1.0000   1.0000   1.0000   1.0000   1.0000   1.0000   1.0000
     1.0000   1.0000   1.0000   1.0000   1.0000   1.0000   1.0000   1.0000
     1.0000   1.0000   1.0000   1.0000   1.0000   1.0000   1.0000   1.0000
     1.0000   1.0000   1.0000   1.0000   1.0000   1.0000   1.0000   1.0000
     0.0000   0.0000   0.0000   0.0000   0.0000   0.0000   0.0000   0.0000
     0.0000   0.0000

          k = 0.3333 1.0186 0.0000 (  3008 PWs)   bands (ev):

   -13.2626 -13.2612 -13.2592 -13.2578 -13.2463 -13.2459 -13.2454 -13.2432
   -13.2370 -13.2366 -13.2303 -13.2271 -13.2171 -13.2135 -13.2046 -13.2045
   -13.1882 -13.1853 -13.1795 -13.1791  -5.0287  -4.9278  -4.4620  -4.3969
     0.3662   0.7195   1.0301   1.3261   4.3334   5.2001   5.2027   5.4595
     5.5973   6.0862   6.2519   6.2752   6.6871   6.7351   7.4800   7.6195
     9.0147   9.2600   9.9399   9.9872  10.5151  10.5396  10.6942  11.0728
    11.3458  12.0747

     occupation numbers 
     1.0000   1.0000   1.0000   1.0000   1.0000   1.0000   1.0000   1.0000
     1.0000   1.0000   1.0000   1.0000   1.0000   1.0000   1.0000   1.0000
     1.0000   1.0000   1.0000   1.0000   1.0000   1.0000   1.0000   1.0000
     1.0000   1.0000   1.0000   1.0000   1.0000   1.0000   1.0000   1.0000
     1.0000   1.0000   1.0000   1.0000   1.0000   1.0000   1.0000   1.0000
     0.0000   0.0000   0.0000   0.0000   0.0000   0.0000   0.0000   0.0000
     0.0000   0.0000

          k = 0.3333 1.0186 0.3202 (  3016 PWs)   bands (ev):

   -13.2643 -13.2625 -13.2611 -13.2591 -13.2462 -13.2452 -13.2448 -13.2429
   -13.2365 -13.2363 -13.2297 -13.2268 -13.2168 -13.2136 -13.2047 -13.2041
   -13.1883 -13.1858 -13.1796 -13.1790  -4.9787  -4.8813  -4.4454  -4.3823
     0.4362   0.7935   1.0888   1.3443   4.2676   4.4038   4.8435   5.2194
     5.5522   5.7483   6.0575   6.4152   6.7043   6.8447   7.2030   7.3737
     9.4649   9.5415   9.7807   9.9330  10.8279  10.8502  11.2287  11.5119
    11.8866  12.4366

     occupation numbers 
     1.0000   1.0000   1.0000   1.0000   1.0000   1.0000   1.0000   1.0000
     1.0000   1.0000   1.0000   1.0000   1.0000   1.0000   1.0000   1.0000
     1.0000   1.0000   1.0000   1.0000   1.0000   1.0000   1.0000   1.0000
     1.0000   1.0000   1.0000   1.0000   1.0000   1.0000   1.0000   1.0000
     1.0000   1.0000   1.0000   1.0000   1.0000   1.0000   1.0000   1.0000
     0.0000   0.0000   0.0000   0.0000   0.0000   0.0000   0.0000   0.0000
     0.0000   0.0000

          k = 0.3333 1.0186 0.6403 (  3013 PWs)   bands (ev):

   -13.2683 -13.2664 -13.2644 -13.2627 -13.2455 -13.2436 -13.2432 -13.2420
   -13.2354 -13.2351 -13.2278 -13.2256 -13.2155 -13.2133 -13.2040 -13.2033
   -13.1881 -13.1863 -13.1793 -13.1787  -4.8443  -4.7569  -4.4134  -4.3551
     0.6138   0.9625   1.2510   1.3871   3.6332   3.8362   4.5823   4.6466
     4.8056   5.3284   5.6362   6.0983   6.1654   6.6132   6.8875   7.3442
     9.6868  10.2706  10.4662  10.8697  11.1969  11.3702  12.0776  12.1756
    12.2581  12.5559

     occupation numbers 
     1.0000   1.0000   1.0000   1.0000   1.0000   1.0000   1.0000   1.0000
     1.0000   1.0000   1.0000   1.0000   1.0000   1.0000   1.0000   1.0000
     1.0000   1.0000   1.0000   1.0000   1.0000   1.0000   1.0000   1.0000
     1.0000   1.0000   1.0000   1.0000   1.0000   1.0000   1.0000   1.0000
     1.0000   1.0000   1.0000   1.0000   1.0000   1.0000   1.0000   1.0000
     0.0000   0.0000   0.0000   0.0000   0.0000   0.0000   0.0000   0.0000
     0.0000   0.0000

          k = 0.3333 1.0186 0.9605 (  3006 PWs)   bands (ev):

   -13.2715 -13.2704 -13.2671 -13.2662 -13.2447 -13.2433 -13.2417 -13.2411
   -13.2342 -13.2338 -13.2258 -13.2244 -13.2136 -13.2126 -13.2031 -13.2026
   -13.1876 -13.1867 -13.1787 -13.1783  -4.6713  -4.6017  -4.4080  -4.3560
     0.8003   1.0221   1.4801   1.4995   3.2636   3.5157   3.9402   4.2936
     4.4073   4.8407   4.9999   5.5929   6.0137   6.4887   6.7090   6.9990
    10.0952  10.7204  11.0416  11.3926  11.5488  11.8715  12.6961  12.8074
    13.0936  13.2615

     occupation numbers 
     1.0000   1.0000   1.0000   1.0000   1.0000   1.0000   1.0000   1.0000
     1.0000   1.0000   1.0000   1.0000   1.0000   1.0000   1.0000   1.0000
     1.0000   1.0000   1.0000   1.0000   1.0000   1.0000   1.0000   1.0000
     1.0000   1.0000   1.0000   1.0000   1.0000   1.0000   1.0000   1.0000
     1.0000   1.0000   1.0000   1.0000   1.0000   1.0000   1.0000   1.0000
     0.0000   0.0000   0.0000   0.0000   0.0000   0.0000   0.0000   0.0000
     0.0000   0.0000

          k = 0.3333 1.0186-1.2807 (  2998 PWs)   bands (ev):

   -13.2722 -13.2722 -13.2676 -13.2676 -13.2440 -13.2440 -13.2408 -13.2408
   -13.2335 -13.2335 -13.2244 -13.2244 -13.2125 -13.2125 -13.2025 -13.2025
   -13.1872 -13.1872 -13.1784 -13.1784  -4.5393  -4.5393  -4.4080  -4.4080
     0.9304   0.9304   1.6024   1.6024   3.3825   3.3825   3.6953   3.6953
     4.5308   4.5308   5.0592   5.0592   6.2056   6.2056   6.8064   6.8064
    10.3739  10.3739  11.2936  11.2936  12.4628  12.4628  12.5963  12.5963
    13.8786  13.8786

     occupation numbers 
     1.0000   1.0000   1.0000   1.0000   1.0000   1.0000   1.0000   1.0000
     1.0000   1.0000   1.0000   1.0000   1.0000   1.0000   1.0000   1.0000
     1.0000   1.0000   1.0000   1.0000   1.0000   1.0000   1.0000   1.0000
     1.0000   1.0000   1.0000   1.0000   1.0000   1.0000   1.0000   1.0000
     1.0000   1.0000   1.0000   1.0000   1.0000   1.0000   1.0000   1.0000
     0.0000   0.0000   0.0000   0.0000   0.0000   0.0000   0.0000   0.0000
     0.0000   0.0000

          k = 0.3333-1.3581 0.0000 (  3022 PWs)   bands (ev):

   -13.2627 -13.2627 -13.2609 -13.2609 -13.2445 -13.2445 -13.2438 -13.2438
   -13.2325 -13.2325 -13.2309 -13.2309 -13.2121 -13.2121 -13.2098 -13.2098
   -13.1832 -13.1832 -13.1818 -13.1818  -4.6682  -4.6682  -4.6365  -4.6365
     0.5057   0.5057   0.8472   0.8472   4.9001   4.9001   5.6546   5.6546
     5.9032   5.9032   6.1160   6.1160   7.0135   7.0135   7.1689   7.1689
     9.3748   9.3748   9.6794   9.6794  10.0662  10.0662  10.4240  10.4240
    11.5393  11.5393

     occupation numbers 
     1.0000   1.0000   1.0000   1.0000   1.0000   1.0000   1.0000   1.0000
     1.0000   1.0000   1.0000   1.0000   1.0000   1.0000   1.0000   1.0000
     1.0000   1.0000   1.0000   1.0000   1.0000   1.0000   1.0000   1.0000
     1.0000   1.0000   1.0000   1.0000   1.0000   1.0000   1.0000   1.0000
     1.0000   1.0000   1.0000   1.0000   1.0000   1.0000   1.0000   1.0000
     0.0000   0.0000   0.0000   0.0000   0.0000   0.0000   0.0000   0.0000
     0.0000   0.0000

          k = 0.3333-1.3581 0.3202 (  3018 PWs)   bands (ev):

   -13.2646 -13.2646 -13.2623 -13.2623 -13.2442 -13.2442 -13.2427 -13.2427
   -13.2323 -13.2323 -13.2303 -13.2303 -13.2122 -13.2122 -13.2088 -13.2088
   -13.1834 -13.1834 -13.1818 -13.1818  -4.6344  -4.6344  -4.6048  -4.6048
     0.5917   0.5917   0.9165   0.9165   4.7217   4.7217   5.0048   5.0048
     5.5542   5.5542   6.0983   6.0983   6.8280   6.8280   7.1333   7.1333
     9.4461   9.4461   9.7405   9.7405  10.8538  10.8538  11.2399  11.2399
    11.8502  11.8502

     occupation numbers 
     1.0000   1.0000   1.0000   1.0000   1.0000   1.0000   1.0000   1.0000
     1.0000   1.0000   1.0000   1.0000   1.0000   1.0000   1.0000   1.0000
     1.0000   1.0000   1.0000   1.0000   1.0000   1.0000   1.0000   1.0000
     1.0000   1.0000   1.0000   1.0000   1.0000   1.0000   1.0000   1.0000
     1.0000   1.0000   1.0000   1.0000   1.0000   1.0000   1.0000   1.0000
     0.0000   0.0000   0.0000   0.0000   0.0000   0.0000   0.0000   0.0000
     0.0000   0.0000

          k = 0.3333-1.3581 0.6403 (  3002 PWs)   bands (ev):

   -13.2688 -13.2688 -13.2658 -13.2658 -13.2435 -13.2435 -13.2412 -13.2412
   -13.2313 -13.2313 -13.2289 -13.2289 -13.2117 -13.2117 -13.2071 -13.2071
   -13.1837 -13.1837 -13.1810 -13.1810  -4.5495  -4.5495  -4.5261  -4.5261
     0.8305   0.8305   1.0991   1.0991   4.0326   4.0326   4.2859   4.2859
     5.0588   5.0588   5.6408   5.6408   6.2843   6.2843   6.9215   6.9215
    10.0374  10.0374  10.8900  10.8900  11.4827  11.4827  11.8239  11.8239
    12.8107  12.8107

     occupation numbers 
     1.0000   1.0000   1.0000   1.0000   1.0000   1.0000   1.0000   1.0000
     1.0000   1.0000   1.0000   1.0000   1.0000   1.0000   1.0000   1.0000
     1.0000   1.0000   1.0000   1.0000   1.0000   1.0000   1.0000   1.0000
     1.0000   1.0000   1.0000   1.0000   1.0000   1.0000   1.0000   1.0000
     1.0000   1.0000   1.0000   1.0000   1.0000   1.0000   1.0000   1.0000
     0.0000   0.0000   0.0000   0.0000   0.0000   0.0000   0.0000   0.0000
     0.0000   0.0000

          k = 0.3333-1.3581 0.9605 (  2990 PWs)   bands (ev):

   -13.2728 -13.2728 -13.2691 -13.2691 -13.2428 -13.2428 -13.2399 -13.2399
   -13.2301 -13.2301 -13.2277 -13.2277 -13.2106 -13.2106 -13.2053 -13.2053
   -13.1835 -13.1835 -13.1806 -13.1806  -4.4587  -4.4587  -4.4451  -4.4451
     1.1407   1.1407   1.3044   1.3044   3.4392   3.4392   3.8060   3.8060
     4.4408   4.4408   4.9491   4.9491   6.2273   6.2273   6.7856   6.7856
    10.4374  10.4374  11.0989  11.0989  12.3424  12.3424  12.4071  12.4071
    13.9368  13.9368

     occupation numbers 
     1.0000   1.0000   1.0000   1.0000   1.0000   1.0000   1.0000   1.0000
     1.0000   1.0000   1.0000   1.0000   1.0000   1.0000   1.0000   1.0000
     1.0000   1.0000   1.0000   1.0000   1.0000   1.0000   1.0000   1.0000
     1.0000   1.0000   1.0000   1.0000   1.0000   1.0000   1.0000   1.0000
     1.0000   1.0000   1.0000   1.0000   1.0000   1.0000   1.0000   1.0000
     0.0000   0.0000   0.0000   0.0000   0.0000   0.0000   0.0000   0.0000
     0.0000   0.0000

          k = 0.3333-1.3581-1.2807 (  2988 PWs)   bands (ev):

   -13.2742 -13.2742 -13.2706 -13.2706 -13.2426 -13.2426 -13.2396 -13.2396
   -13.2295 -13.2295 -13.2271 -13.2271 -13.2101 -13.2101 -13.2048 -13.2048
   -13.1835 -13.1835 -13.1805 -13.1805  -4.4174  -4.4174  -4.4125  -4.4125
     1.3139   1.3139   1.3877   1.3877   3.2445   3.2445   3.6138   3.6138
     4.2009   4.2009   4.5815   4.5815   6.3031   6.3031   6.7206   6.7206
    10.6061  10.6061  10.8290  10.8290  12.8424  12.8424  12.8666  12.8666
    14.4551  14.4551

     occupation numbers 
     1.0000   1.0000   1.0000   1.0000   1.0000   1.0000   1.0000   1.0000
     1.0000   1.0000   1.0000   1.0000   1.0000   1.0000   1.0000   1.0000
     1.0000   1.0000   1.0000   1.0000   1.0000   1.0000   1.0000   1.0000
     1.0000   1.0000   1.0000   1.0000   1.0000   1.0000   1.0000   1.0000
     1.0000   1.0000   1.0000   1.0000   1.0000   1.0000   1.0000   1.0000
     0.0000   0.0000   0.0000   0.0000   0.0000   0.0000   0.0000   0.0000
     0.0000   0.0000

     highest occupied, lowest unoccupied level (ev):     8.0317    8.8508

!    total energy              =    -827.73068100 Ry
     estimated scf accuracy    <          2.3E-09 Ry

     The total energy is the sum of the following terms:
     one-electron contribution =    -256.97075124 Ry
     hartree contribution      =     179.08425336 Ry
     xc contribution           =    -309.11733354 Ry
     ewald contribution        =    -440.60481620 Ry
     DFT-D3 Dispersion         =      -0.12203337 Ry

     convergence has been achieved in   9 iterations

     Forces acting on atoms (cartesian axes, Ry/au):

     atom    1 type  2   force =     0.00790574    0.00000000    0.00002488
     atom    2 type  1   force =    -0.00870741    0.00000000   -0.00063100
     atom    3 type  2   force =    -0.00790574    0.00000000    0.00002488
     atom    4 type  1   force =     0.00870741    0.00000000   -0.00063100
     atom    5 type  2   force =     0.00790574    0.00000000   -0.00002488
     atom    6 type  1   force =    -0.00870741    0.00000000    0.00063100
     atom    7 type  2   force =    -0.00790574    0.00000000   -0.00002488
     atom    8 type  1   force =     0.00870741    0.00000000    0.00063100
     The non-local contrib.  to forces
     atom    1 type  2   force =    -0.11637047    0.00000000    0.09907042
     atom    2 type  1   force =     0.36564765    0.00000000    0.27002690
     atom    3 type  2   force =     0.11637047    0.00000000    0.09907042
     atom    4 type  1   force =    -0.36564765    0.00000000    0.27002690
     atom    5 type  2   force =    -0.11637047    0.00000000   -0.09907042
     atom    6 type  1   force =     0.36564765    0.00000000   -0.27002690
     atom    7 type  2   force =     0.11637047    0.00000000   -0.09907042
     atom    8 type  1   force =    -0.36564765    0.00000000   -0.27002690
     The ionic contribution  to forces
     atom    1 type  2   force =     1.53473235    0.00000000   -1.05154455
     atom    2 type  1   force =    -1.03769718    0.00000000   -0.57506129
     atom    3 type  2   force =    -1.53473235    0.00000000   -1.05154455
     atom    4 type  1   force =     1.03769718   -0.00000000   -0.57506129
     atom    5 type  2   force =     1.53473235    0.00000000    1.05154455
     atom    6 type  1   force =    -1.03769718    0.00000000    0.57506129
     atom    7 type  2   force =    -1.53473235   -0.00000000    1.05154455
     atom    8 type  1   force =     1.03769718    0.00000000    0.57506129
     The local contribution  to forces
     atom    1 type  2   force =    -1.42273669   -0.00000000    0.96255602
     atom    2 type  1   force =     0.66962465   -0.00000000    0.30807002
     atom    3 type  2   force =     1.42273669   -0.00000000    0.96255602
     atom    4 type  1   force =    -0.66962465   -0.00000000    0.30807002
     atom    5 type  2   force =    -1.42273669    0.00000000   -0.96255602
     atom    6 type  1   force =     0.66962465   -0.00000000   -0.30807002
     atom    7 type  2   force =     1.42273669    0.00000000   -0.96255602
     atom    8 type  1   force =    -0.66962465   -0.00000000   -0.30807002
     The core correction contribution to forces
     atom    1 type  2   force =     0.01304157   -0.00000000   -0.01125138
     atom    2 type  1   force =    -0.00566307   -0.00000000   -0.00457179
     atom    3 type  2   force =    -0.01304157    0.00000000   -0.01125138
     atom    4 type  1   force =     0.00566307    0.00000000   -0.00457179
     atom    5 type  2   force =     0.01304157   -0.00000000    0.01125138
     atom    6 type  1   force =    -0.00566307   -0.00000000    0.00457179
     atom    7 type  2   force =    -0.01304157   -0.00000000    0.01125138
     atom    8 type  1   force =     0.00566307   -0.00000000    0.00457179
     The Hubbard contrib.    to forces
     atom    1 type  2   force =     0.00000000    0.00000000    0.00000000
     atom    2 type  1   force =     0.00000000    0.00000000    0.00000000
     atom    3 type  2   force =     0.00000000    0.00000000    0.00000000
     atom    4 type  1   force =     0.00000000    0.00000000    0.00000000
     atom    5 type  2   force =     0.00000000    0.00000000    0.00000000
     atom    6 type  1   force =     0.00000000    0.00000000    0.00000000
     atom    7 type  2   force =     0.00000000    0.00000000    0.00000000
     atom    8 type  1   force =     0.00000000    0.00000000    0.00000000
     The SCF correction term to forces
     atom    1 type  2   force =     0.00002359    0.00000000    0.00000069
     atom    2 type  1   force =    -0.00006443    0.00000000    0.00001033
     atom    3 type  2   force =    -0.00002359   -0.00000000    0.00000069
     atom    4 type  1   force =     0.00006443    0.00000000    0.00001033
     atom    5 type  2   force =     0.00002359    0.00000000   -0.00000069
     atom    6 type  1   force =    -0.00006443    0.00000000   -0.00001033
     atom    7 type  2   force =    -0.00002359   -0.00000000   -0.00000069
     atom    8 type  1   force =     0.00006443    0.00000000   -0.00001033

     DFT-D3 dispersion contribution to forces:
     atom    1 type  2   force =    -0.00078462   -0.00000000    0.00119368
     atom    2 type  1   force =    -0.00055504    0.00000000    0.00089483
     atom    3 type  2   force =     0.00078462    0.00000000    0.00119368
     atom    4 type  1   force =     0.00055504   -0.00000000    0.00089483
     atom    5 type  2   force =    -0.00078462   -0.00000000   -0.00119368
     atom    6 type  1   force =    -0.00055504   -0.00000000   -0.00089483
     atom    7 type  2   force =     0.00078462    0.00000000   -0.00119368
     atom    8 type  1   force =     0.00055504    0.00000000   -0.00089483

     Total force =     0.023556     Total SCF correction =     0.000139

     DFT-D3 dispersion Force =     0.003549

     Writing output data file ./tmp/SnSe_pnma.save/

     init_run     :      4.22s CPU      5.41s WALL (       1 calls)
     electrons    :    148.69s CPU    185.75s WALL (       1 calls)
     forces       :      3.17s CPU      4.64s WALL (       1 calls)

     Called by init_run:
     wfcinit      :      2.59s CPU      3.52s WALL (       1 calls)
     wfcinit:atom :      0.02s CPU      0.02s WALL (      17 calls)
     wfcinit:wfcr :      2.44s CPU      3.36s WALL (      17 calls)
     potinit      :      0.40s CPU      0.43s WALL (       1 calls)
     hinit0       :      0.82s CPU      0.83s WALL (       1 calls)

     Called by electrons:
     c_bands      :    131.78s CPU    165.40s WALL (       9 calls)
     sum_band     :     11.00s CPU     12.64s WALL (       9 calls)
     v_of_rho     :      1.23s CPU      1.41s WALL (      10 calls)
     v_h          :      0.08s CPU      0.10s WALL (      10 calls)
     v_xc         :      1.33s CPU      1.44s WALL (      11 calls)
     newd         :      4.41s CPU      6.23s WALL (      10 calls)
     mix_rho      :      0.19s CPU      0.17s WALL (       9 calls)

     Called by c_bands:
     init_us_2    :      0.70s CPU      0.63s WALL (     340 calls)
     cegterg      :     78.57s CPU    114.44s WALL (     153 calls)

     Called by sum_band:
     sum_band:wei :      0.01s CPU      0.00s WALL (       9 calls)
     sum_band:loo :      8.41s CPU      9.76s WALL (       9 calls)
     sum_band:buf :      0.05s CPU      0.06s WALL (     153 calls)
     sum_band:ini :      0.31s CPU      0.27s WALL (     153 calls)
     sum_band:cal :      2.98s CPU      4.72s WALL (     153 calls)
     sum_band:bec :      0.02s CPU      0.02s WALL (     153 calls)
     addusdens    :      1.97s CPU      2.34s WALL (       9 calls)
     addusd:skk   :      0.01s CPU      0.03s WALL (      18 calls)
     addusd:dgemm :      0.71s CPU      0.77s WALL (      18 calls)
     addusd:qvan2 :      1.00s CPU      1.07s WALL (      18 calls)

     Called by *egterg:
     cdiaghg      :     15.39s CPU     41.51s WALL (     613 calls)
     cegterg:over :     11.59s CPU     17.46s WALL (     460 calls)
     cegterg:upda :      2.22s CPU      3.35s WALL (     460 calls)
     cegterg:last :      3.41s CPU      3.39s WALL (     308 calls)
     h_psi        :     37.51s CPU     40.03s WALL (     630 calls)
     s_psi        :      3.95s CPU      3.06s WALL (     630 calls)
     g_psi        :      0.22s CPU      0.19s WALL (     460 calls)

     Called by h_psi:
     h_psi:calbec :      8.93s CPU     13.24s WALL (     630 calls)
     vloc_psi     :     24.37s CPU     23.50s WALL (     630 calls)
     add_vuspsi   :      4.06s CPU      3.12s WALL (     630 calls)

     General routines
     calbec       :     12.68s CPU     19.56s WALL (     851 calls)
     fft          :      1.00s CPU      1.03s WALL (     139 calls)
     ffts         :      0.03s CPU      0.03s WALL (      19 calls)
     fftw         :     25.14s CPU     24.14s WALL (   47712 calls)
     interpolate  :      0.07s CPU      0.08s WALL (      10 calls)

     Parallel routines
     fft_scatt_xy :      3.85s CPU      3.65s WALL (   47870 calls)
     fft_scatt_yz :      7.38s CPU      7.32s WALL (   47870 calls)

     PWSCF        :   2m37.81s CPU   3m17.67s WALL


   This run was terminated on:   8:52:42  19May2026            

=------------------------------------------------------------------------------=
   JOB DONE.
=------------------------------------------------------------------------------=
