
     Program PWSCF v.6.7MaX starts on 18May2026 at 21:16:46 

     This program is part of the open-source Quantum ESPRESSO suite
     for quantum simulation of materials; please cite
         "P. Giannozzi et al., J. Phys.:Condens. Matter 21 395502 (2009);
         "P. Giannozzi et al., J. Phys.:Condens. Matter 29 465901 (2017);
          URL http://www.quantum-espresso.org", 
     in publications or presentations arising from this work. More details at
     http://www.quantum-espresso.org/quote

     Parallel version (MPI), running on     6 processors

     MPI processes distributed on     1 nodes
     K-points division:     npool     =       3
     R & G space division:  proc/nbgrp/npool/nimage =       2
     Waiting for input...
     Reading input from standard input

     Current dimensions of program PWSCF are:
     Max number of different atomic species (ntypx) = 10
     Max number of k-points (npk) =  40000
     Max angular momentum in pseudopotentials (lmaxx) =  3

     --------------------------------------------
     Parameters for DFT-D3 Dispersion Correction:
     --------------------------------------------
       Reference C6 values for interpolation: 

         atom   Coordination number   C6
         Se         0.000           427.35
         Se         0.990           427.57
         Se         1.981           421.05
         Sn         0.000          1255.14
         Sn         0.951          1084.09
         Sn         1.950          1010.83
         Sn         2.926           818.29
         Sn         3.912           672.20

       Values used:

         atom   Coordination number  R0_AB[au]  C6      C8
         Se         3.637            3.332    421.05  29958.36
         Sn         4.405            3.957    672.26  84376.19
         Se         3.637            3.332    421.05  29958.36
         Sn         4.405            3.957    672.26  84376.19
         Se         3.637            3.332    421.05  29958.36
         Sn         4.405            3.957    672.26  84376.19
         Se         3.637            3.332    421.05  29958.36
         Sn         4.405            3.957    672.26  84376.19

         Molecular C6 ( Ry / a.u.^6 ) =     34497.83


     Subspace diagonalization in iterative solution of the eigenvalue problem:
     a serial algorithm will be used


     Parallelization info
     --------------------
     sticks:   dense  smooth     PW     G-vecs:    dense   smooth      PW
     Min        3382    1355    393               134537    34027    5331
     Max        3383    1356    394               134538    34028    5332
     Sum        6765    2711    787               269075    68055   10663



     bravais-lattice index     =            8
     lattice parameter (alat)  =      21.4862  a.u.
     unit-cell volume          =    1425.7436 (a.u.)^3
     number of atoms/cell      =            8
     number of atomic types    =            2
     number of electrons       =        80.00
     number of Kohn-Sham states=           50
     kinetic-energy cutoff     =      50.0000  Ry
     charge density cutoff     =     500.0000  Ry
     scf convergence threshold =      1.0E-08
     mixing beta               =       0.7000
     number of iterations used =            8  plain     mixing
     Exchange-correlation= SLA  PW   PBE  PBE
                           (   1   4   3   4   0   0   0)

     celldm(1)=  21.486186  celldm(2)=   0.368162  celldm(3)=   0.390413
     celldm(4)=   0.000000  celldm(5)=   0.000000  celldm(6)=   0.000000

     crystal axes: (cart. coord. in units of alat)
               a(1) = (   1.000000   0.000000   0.000000 )  
               a(2) = (   0.000000   0.368162   0.000000 )  
               a(3) = (   0.000000   0.000000   0.390413 )  

     reciprocal axes: (cart. coord. in units 2 pi/alat)
               b(1) = (  1.000000  0.000000  0.000000 )  
               b(2) = (  0.000000  2.716197  0.000000 )  
               b(3) = (  0.000000  0.000000  2.561388 )  


     PseudoPot. # 1 for Sn read from file:
     ../pseudo/Sn_pbe_v1.uspp.F.UPF
     MD5 check sum: 4cf58ce39ec5d5d420df3dd08604eb00
     Pseudo is Ultrasoft + core correction, Zval = 14.0
     Generated by new atomic code, or converted to UPF format
     Using radial grid of  891 points,  6 beta functions with: 
                l(1) =   0
                l(2) =   0
                l(3) =   1
                l(4) =   1
                l(5) =   2
                l(6) =   2
     Q(r) pseudized with  6 coefficients,  rinner =    1.200   1.200   1.200
                                                       1.200   1.200

     PseudoPot. # 2 for Se read from file:
     ../pseudo/Se_pbe_v1.uspp.F.UPF
     MD5 check sum: 1b3568f3a8ae88f9a2a0ad0698632c85
     Pseudo is Ultrasoft + core correction, Zval =  6.0
     Generated by new atomic code, or converted to UPF format
     Using radial grid of  877 points,  6 beta functions with: 
                l(1) =   0
                l(2) =   0
                l(3) =   1
                l(4) =   1
                l(5) =   2
                l(6) =   2
     Q(r) pseudized with  8 coefficients,  rinner =    1.300   1.300   1.300
                                                       1.300   1.300

     atomic species   valence    mass     pseudopotential
        Sn            14.00   118.71000     Sn( 1.00)
        Se             6.00    78.97100     Se( 1.00)

      8 Sym. Ops., with inversion, found ( 6 have fractional translation)


                                    s                        frac. trans.

      isym =  1     identity                                     

 cryst.   s( 1) = (     1          0          0      )
                  (     0          1          0      )
                  (     0          0          1      )

 cart.    s( 1) = (  1.0000000  0.0000000  0.0000000 )
                  (  0.0000000  1.0000000  0.0000000 )
                  (  0.0000000  0.0000000  1.0000000 )


      isym =  2     180 deg rotation - cart. axis [0,0,1]        

 cryst.   s( 2) = (    -1          0          0      )    f =(  0.5000000 )
                  (     0         -1          0      )       (  0.0000000 )
                  (     0          0          1      )       (  0.5000000 )

 cart.    s( 2) = ( -1.0000000  0.0000000  0.0000000 )    f =(  0.5000000 )
                  (  0.0000000 -1.0000000  0.0000000 )       (  0.0000000 )
                  (  0.0000000  0.0000000  1.0000000 )       (  0.1952067 )


      isym =  3     180 deg rotation - cart. axis [0,1,0]        

 cryst.   s( 3) = (    -1          0          0      )    f =( -0.0000000 )
                  (     0          1          0      )       ( -0.5000000 )
                  (     0          0         -1      )       (  0.0000000 )

 cart.    s( 3) = ( -1.0000000  0.0000000  0.0000000 )    f =( -0.0000000 )
                  (  0.0000000  1.0000000  0.0000000 )       ( -0.1840809 )
                  (  0.0000000  0.0000000 -1.0000000 )       (  0.0000000 )


      isym =  4     180 deg rotation - cart. axis [1,0,0]        

 cryst.   s( 4) = (     1          0          0      )    f =(  0.5000000 )
                  (     0         -1          0      )       (  0.5000000 )
                  (     0          0         -1      )       (  0.5000000 )

 cart.    s( 4) = (  1.0000000  0.0000000  0.0000000 )    f =(  0.5000000 )
                  (  0.0000000 -1.0000000  0.0000000 )       (  0.1840809 )
                  (  0.0000000  0.0000000 -1.0000000 )       (  0.1952067 )


      isym =  5     inversion                                    

 cryst.   s( 5) = (    -1          0          0      )
                  (     0         -1          0      )
                  (     0          0         -1      )

 cart.    s( 5) = ( -1.0000000  0.0000000  0.0000000 )
                  (  0.0000000 -1.0000000  0.0000000 )
                  (  0.0000000  0.0000000 -1.0000000 )


      isym =  6     inv. 180 deg rotation - cart. axis [0,0,1]   

 cryst.   s( 6) = (     1          0          0      )    f =(  0.5000000 )
                  (     0          1          0      )       (  0.0000000 )
                  (     0          0         -1      )       (  0.5000000 )

 cart.    s( 6) = (  1.0000000  0.0000000  0.0000000 )    f =(  0.5000000 )
                  (  0.0000000  1.0000000  0.0000000 )       (  0.0000000 )
                  (  0.0000000  0.0000000 -1.0000000 )       (  0.1952067 )


      isym =  7     inv. 180 deg rotation - cart. axis [0,1,0]   

 cryst.   s( 7) = (     1          0          0      )    f =(  0.0000000 )
                  (     0         -1          0      )       (  0.5000000 )
                  (     0          0          1      )       (  0.0000000 )

 cart.    s( 7) = (  1.0000000  0.0000000  0.0000000 )    f =(  0.0000000 )
                  (  0.0000000 -1.0000000  0.0000000 )       (  0.1840809 )
                  (  0.0000000  0.0000000  1.0000000 )       (  0.0000000 )


      isym =  8     inv. 180 deg rotation - cart. axis [1,0,0]   

 cryst.   s( 8) = (    -1          0          0      )    f =(  0.5000000 )
                  (     0          1          0      )       ( -0.5000000 )
                  (     0          0          1      )       (  0.5000000 )

 cart.    s( 8) = ( -1.0000000  0.0000000  0.0000000 )    f =(  0.5000000 )
                  (  0.0000000  1.0000000  0.0000000 )       ( -0.1840809 )
                  (  0.0000000  0.0000000  1.0000000 )       (  0.1952067 )


     point group D_2h (mmm) 
     there are  8 classes
     the character table:

       E     C2    C2'   C2''  i     s_v   s_v'  s_v''
A_g    1.00  1.00  1.00  1.00  1.00  1.00  1.00  1.00
B_1g   1.00  1.00 -1.00 -1.00  1.00  1.00 -1.00 -1.00
B_2g   1.00 -1.00  1.00 -1.00  1.00 -1.00  1.00 -1.00
B_3g   1.00 -1.00 -1.00  1.00  1.00 -1.00 -1.00  1.00
A_u    1.00  1.00  1.00  1.00 -1.00 -1.00 -1.00 -1.00
B_1u   1.00  1.00 -1.00 -1.00 -1.00 -1.00  1.00  1.00
B_2u   1.00 -1.00  1.00 -1.00 -1.00  1.00 -1.00  1.00
B_3u   1.00 -1.00 -1.00  1.00 -1.00  1.00  1.00 -1.00

     the symmetry operations in each class and the name of the first element:

     E        1
          identity                                               
     C2       2
          180 deg rotation - cart. axis [0,0,1]                  
     C2'      4
          180 deg rotation - cart. axis [1,0,0]                  
     C2''     3
          180 deg rotation - cart. axis [0,1,0]                  
     i        5
          inversion                                              
     s_v      6
          inv. 180 deg rotation - cart. axis [0,0,1]             
     s_v'     8
          inv. 180 deg rotation - cart. axis [1,0,0]             
     s_v''    7
          inv. 180 deg rotation - cart. axis [0,1,0]             

   Cartesian axes

     site n.     atom                  positions (alat units)
         1           Se  tau(   1) = (   0.8555000   0.0920405   0.1884916  )
         2           Sn  tau(   2) = (   0.1187000   0.0920405   0.0385728  )
         3           Se  tau(   3) = (   0.6445000   0.2761214   0.3836983  )
         4           Sn  tau(   4) = (   0.3813000   0.2761214   0.2337795  )
         5           Se  tau(   5) = (   0.3555000   0.0920405   0.0067151  )
         6           Sn  tau(   6) = (   0.6187000   0.0920405   0.1566338  )
         7           Se  tau(   7) = (   0.1445000   0.2761214   0.2019218  )
         8           Sn  tau(   8) = (   0.8813000   0.2761214   0.3518405  )

   Crystallographic axes

     site n.     atom                  positions (cryst. coord.)
         1           Se  tau(   1) = (  0.8555000  0.2500000  0.4828000  )
         2           Sn  tau(   2) = (  0.1187000  0.2500000  0.0988000  )
         3           Se  tau(   3) = (  0.6445000  0.7500000  0.9828000  )
         4           Sn  tau(   4) = (  0.3813000  0.7500000  0.5988000  )
         5           Se  tau(   5) = (  0.3555000  0.2500000  0.0172000  )
         6           Sn  tau(   6) = (  0.6187000  0.2500000  0.4012000  )
         7           Se  tau(   7) = (  0.1445000  0.7500000  0.5172000  )
         8           Sn  tau(   8) = (  0.8813000  0.7500000  0.9012000  )

     number of k points=    50
                       cart. coord. in units 2pi/alat
        k(    1) = (   0.0000000   0.0000000   0.0000000), wk =   0.0104167
        k(    2) = (   0.0000000   0.0000000   0.3201735), wk =   0.0208333
        k(    3) = (   0.0000000   0.0000000   0.6403469), wk =   0.0208333
        k(    4) = (   0.0000000   0.0000000   0.9605204), wk =   0.0208333
        k(    5) = (   0.0000000   0.0000000  -1.2806938), wk =   0.0104167
        k(    6) = (   0.0000000   0.3395246   0.0000000), wk =   0.0208333
        k(    7) = (   0.0000000   0.3395246   0.3201735), wk =   0.0416667
        k(    8) = (   0.0000000   0.3395246   0.6403469), wk =   0.0416667
        k(    9) = (   0.0000000   0.3395246   0.9605204), wk =   0.0416667
        k(   10) = (   0.0000000   0.3395246  -1.2806938), wk =   0.0208333
        k(   11) = (   0.0000000   0.6790492   0.0000000), wk =   0.0208333
        k(   12) = (   0.0000000   0.6790492   0.3201735), wk =   0.0416667
        k(   13) = (   0.0000000   0.6790492   0.6403469), wk =   0.0416667
        k(   14) = (   0.0000000   0.6790492   0.9605204), wk =   0.0416667
        k(   15) = (   0.0000000   0.6790492  -1.2806938), wk =   0.0208333
        k(   16) = (   0.0000000   1.0185738   0.0000000), wk =   0.0208333
        k(   17) = (   0.0000000   1.0185738   0.3201735), wk =   0.0416667
        k(   18) = (   0.0000000   1.0185738   0.6403469), wk =   0.0416667
        k(   19) = (   0.0000000   1.0185738   0.9605204), wk =   0.0416667
        k(   20) = (   0.0000000   1.0185738  -1.2806938), wk =   0.0208333
        k(   21) = (   0.0000000  -1.3580984   0.0000000), wk =   0.0104167
        k(   22) = (   0.0000000  -1.3580984   0.3201735), wk =   0.0208333
        k(   23) = (   0.0000000  -1.3580984   0.6403469), wk =   0.0208333
        k(   24) = (   0.0000000  -1.3580984   0.9605204), wk =   0.0208333
        k(   25) = (   0.0000000  -1.3580984  -1.2806938), wk =   0.0104167
        k(   26) = (   0.3333333   0.0000000   0.0000000), wk =   0.0208333
        k(   27) = (   0.3333333   0.0000000   0.3201735), wk =   0.0416667
        k(   28) = (   0.3333333   0.0000000   0.6403469), wk =   0.0416667
        k(   29) = (   0.3333333   0.0000000   0.9605204), wk =   0.0416667
        k(   30) = (   0.3333333   0.0000000  -1.2806938), wk =   0.0208333
        k(   31) = (   0.3333333   0.3395246   0.0000000), wk =   0.0416667
        k(   32) = (   0.3333333   0.3395246   0.3201735), wk =   0.0833333
        k(   33) = (   0.3333333   0.3395246   0.6403469), wk =   0.0833333
        k(   34) = (   0.3333333   0.3395246   0.9605204), wk =   0.0833333
        k(   35) = (   0.3333333   0.3395246  -1.2806938), wk =   0.0416667
        k(   36) = (   0.3333333   0.6790492   0.0000000), wk =   0.0416667
        k(   37) = (   0.3333333   0.6790492   0.3201735), wk =   0.0833333
        k(   38) = (   0.3333333   0.6790492   0.6403469), wk =   0.0833333
        k(   39) = (   0.3333333   0.6790492   0.9605204), wk =   0.0833333
        k(   40) = (   0.3333333   0.6790492  -1.2806938), wk =   0.0416667
        k(   41) = (   0.3333333   1.0185738   0.0000000), wk =   0.0416667
        k(   42) = (   0.3333333   1.0185738   0.3201735), wk =   0.0833333
        k(   43) = (   0.3333333   1.0185738   0.6403469), wk =   0.0833333
        k(   44) = (   0.3333333   1.0185738   0.9605204), wk =   0.0833333
        k(   45) = (   0.3333333   1.0185738  -1.2806938), wk =   0.0416667
        k(   46) = (   0.3333333  -1.3580984   0.0000000), wk =   0.0208333
        k(   47) = (   0.3333333  -1.3580984   0.3201735), wk =   0.0416667
        k(   48) = (   0.3333333  -1.3580984   0.6403469), wk =   0.0416667
        k(   49) = (   0.3333333  -1.3580984   0.9605204), wk =   0.0416667
        k(   50) = (   0.3333333  -1.3580984  -1.2806938), wk =   0.0208333

                       cryst. coord.
        k(    1) = (   0.0000000   0.0000000   0.0000000), wk =   0.0104167
        k(    2) = (   0.0000000   0.0000000   0.1250000), wk =   0.0208333
        k(    3) = (   0.0000000   0.0000000   0.2500000), wk =   0.0208333
        k(    4) = (   0.0000000   0.0000000   0.3750000), wk =   0.0208333
        k(    5) = (   0.0000000   0.0000000  -0.5000000), wk =   0.0104167
        k(    6) = (   0.0000000   0.1250000   0.0000000), wk =   0.0208333
        k(    7) = (   0.0000000   0.1250000   0.1250000), wk =   0.0416667
        k(    8) = (   0.0000000   0.1250000   0.2500000), wk =   0.0416667
        k(    9) = (   0.0000000   0.1250000   0.3750000), wk =   0.0416667
        k(   10) = (   0.0000000   0.1250000  -0.5000000), wk =   0.0208333
        k(   11) = (   0.0000000   0.2500000   0.0000000), wk =   0.0208333
        k(   12) = (   0.0000000   0.2500000   0.1250000), wk =   0.0416667
        k(   13) = (   0.0000000   0.2500000   0.2500000), wk =   0.0416667
        k(   14) = (   0.0000000   0.2500000   0.3750000), wk =   0.0416667
        k(   15) = (   0.0000000   0.2500000  -0.5000000), wk =   0.0208333
        k(   16) = (   0.0000000   0.3750000   0.0000000), wk =   0.0208333
        k(   17) = (   0.0000000   0.3750000   0.1250000), wk =   0.0416667
        k(   18) = (   0.0000000   0.3750000   0.2500000), wk =   0.0416667
        k(   19) = (   0.0000000   0.3750000   0.3750000), wk =   0.0416667
        k(   20) = (   0.0000000   0.3750000  -0.5000000), wk =   0.0208333
        k(   21) = (   0.0000000  -0.5000000   0.0000000), wk =   0.0104167
        k(   22) = (   0.0000000  -0.5000000   0.1250000), wk =   0.0208333
        k(   23) = (   0.0000000  -0.5000000   0.2500000), wk =   0.0208333
        k(   24) = (   0.0000000  -0.5000000   0.3750000), wk =   0.0208333
        k(   25) = (   0.0000000  -0.5000000  -0.5000000), wk =   0.0104167
        k(   26) = (   0.3333333   0.0000000   0.0000000), wk =   0.0208333
        k(   27) = (   0.3333333   0.0000000   0.1250000), wk =   0.0416667
        k(   28) = (   0.3333333   0.0000000   0.2500000), wk =   0.0416667
        k(   29) = (   0.3333333   0.0000000   0.3750000), wk =   0.0416667
        k(   30) = (   0.3333333   0.0000000  -0.5000000), wk =   0.0208333
        k(   31) = (   0.3333333   0.1250000   0.0000000), wk =   0.0416667
        k(   32) = (   0.3333333   0.1250000   0.1250000), wk =   0.0833333
        k(   33) = (   0.3333333   0.1250000   0.2500000), wk =   0.0833333
        k(   34) = (   0.3333333   0.1250000   0.3750000), wk =   0.0833333
        k(   35) = (   0.3333333   0.1250000  -0.5000000), wk =   0.0416667
        k(   36) = (   0.3333333   0.2500000   0.0000000), wk =   0.0416667
        k(   37) = (   0.3333333   0.2500000   0.1250000), wk =   0.0833333
        k(   38) = (   0.3333333   0.2500000   0.2500000), wk =   0.0833333
        k(   39) = (   0.3333333   0.2500000   0.3750000), wk =   0.0833333
        k(   40) = (   0.3333333   0.2500000  -0.5000000), wk =   0.0416667
        k(   41) = (   0.3333333   0.3750000   0.0000000), wk =   0.0416667
        k(   42) = (   0.3333333   0.3750000   0.1250000), wk =   0.0833333
        k(   43) = (   0.3333333   0.3750000   0.2500000), wk =   0.0833333
        k(   44) = (   0.3333333   0.3750000   0.3750000), wk =   0.0833333
        k(   45) = (   0.3333333   0.3750000  -0.5000000), wk =   0.0416667
        k(   46) = (   0.3333333  -0.5000000   0.0000000), wk =   0.0208333
        k(   47) = (   0.3333333  -0.5000000   0.1250000), wk =   0.0416667
        k(   48) = (   0.3333333  -0.5000000   0.2500000), wk =   0.0416667
        k(   49) = (   0.3333333  -0.5000000   0.3750000), wk =   0.0416667
        k(   50) = (   0.3333333  -0.5000000  -0.5000000), wk =   0.0208333

     Dense  grid:   269075 G-vectors     FFT dimensions: ( 160,  60,  60)

     Smooth grid:    68055 G-vectors     FFT dimensions: ( 100,  36,  40)

     Dynamical RAM for                 wfc:       3.25 MB

     Dynamical RAM for     wfc (w. buffer):      58.45 MB

     Dynamical RAM for           str. fact:       4.11 MB

     Dynamical RAM for           local pot:       0.00 MB

     Dynamical RAM for          nlocal pot:       9.35 MB

     Dynamical RAM for                qrad:       3.59 MB

     Dynamical RAM for          rho,v,vnew:      12.75 MB

     Dynamical RAM for               rhoin:       4.25 MB

     Dynamical RAM for            rho*nmix:      32.85 MB

     Dynamical RAM for           G-vectors:       7.96 MB

     Dynamical RAM for          h,s,v(r/c):       0.46 MB

     Dynamical RAM for          <psi|beta>:       0.11 MB

     Dynamical RAM for                 psi:       6.49 MB

     Dynamical RAM for                hpsi:       6.49 MB

     Dynamical RAM for                spsi:       6.49 MB

     Dynamical RAM for      wfcinit/wfcrot:       6.82 MB

     Dynamical RAM for           addusdens:     131.38 MB

     Dynamical RAM for          addusforce:     135.16 MB

     Estimated static dynamical RAM per process >     150.44 MB

     Estimated max dynamical RAM per process >     285.61 MB

     Estimated total dynamical RAM >       1.67 GB

     Initial potential from superposition of free atoms

     starting charge   75.99954, renormalised to   80.00000
     Starting wfcs are   52 randomized atomic wfcs

     total cpu time spent up to now is       13.4 secs

     Self-consistent Calculation

     iteration #  1     ecut=    50.00 Ry     beta= 0.70
     Davidson diagonalization with overlap
     ethr =  1.00E-02,  avg # of iterations =  3.9

     total cpu time spent up to now is       57.7 secs

     total energy              =    -826.67419168 Ry
     estimated scf accuracy    <       2.63114983 Ry

     iteration #  2     ecut=    50.00 Ry     beta= 0.70
     Davidson diagonalization with overlap
     ethr =  3.29E-03,  avg # of iterations =  2.0

     total cpu time spent up to now is       92.9 secs

     total energy              =    -827.46016605 Ry
     estimated scf accuracy    <       1.08943513 Ry

     iteration #  3     ecut=    50.00 Ry     beta= 0.70
     Davidson diagonalization with overlap
     ethr =  1.36E-03,  avg # of iterations =  2.0

     total cpu time spent up to now is      123.5 secs

     total energy              =    -827.73102779 Ry
     estimated scf accuracy    <       0.06116141 Ry

     iteration #  4     ecut=    50.00 Ry     beta= 0.70
     Davidson diagonalization with overlap
     ethr =  7.65E-05,  avg # of iterations =  3.2

     total cpu time spent up to now is      158.5 secs

     total energy              =    -827.74214421 Ry
     estimated scf accuracy    <       0.00294305 Ry

     iteration #  5     ecut=    50.00 Ry     beta= 0.70
     Davidson diagonalization with overlap
     ethr =  3.68E-06,  avg # of iterations =  6.3

     total cpu time spent up to now is      204.0 secs

     total energy              =    -827.74279595 Ry
     estimated scf accuracy    <       0.00080978 Ry

     iteration #  6     ecut=    50.00 Ry     beta= 0.70
     Davidson diagonalization with overlap
     ethr =  1.01E-06,  avg # of iterations =  2.2

     total cpu time spent up to now is      235.2 secs

     total energy              =    -827.74297090 Ry
     estimated scf accuracy    <       0.00004504 Ry

     iteration #  7     ecut=    50.00 Ry     beta= 0.70
     Davidson diagonalization with overlap
     ethr =  5.63E-08,  avg # of iterations =  5.0

     total cpu time spent up to now is      284.8 secs

     total energy              =    -827.74299888 Ry
     estimated scf accuracy    <       0.00000260 Ry

     iteration #  8     ecut=    50.00 Ry     beta= 0.70
     Davidson diagonalization with overlap
     ethr =  3.26E-09,  avg # of iterations =  3.4

     total cpu time spent up to now is      327.0 secs

     total energy              =    -827.74299999 Ry
     estimated scf accuracy    <       0.00000043 Ry

     iteration #  9     ecut=    50.00 Ry     beta= 0.70
     Davidson diagonalization with overlap
     ethr =  5.32E-10,  avg # of iterations =  2.7

     total cpu time spent up to now is      366.1 secs

     End of self-consistent calculation

          k = 0.0000 0.0000 0.0000 (  8475 PWs)   bands (ev):

   -13.2668 -13.2553 -13.2520 -13.2497 -13.2496 -13.2456 -13.2428 -13.2385
   -13.2349 -13.2334 -13.2333 -13.2258 -13.2186 -13.2117 -13.1975 -13.1928
   -13.1876 -13.1842 -13.1760 -13.1667  -5.7485  -5.3984  -4.6622  -4.1623
     0.8106   1.9490   2.5389   3.0741   3.2286   4.6621   4.7018   4.7760
     5.1808   5.2373   5.8091   6.3104   6.5338   6.9880   7.3977   7.5671
     8.8497  10.9499  11.0986  11.1318  11.3564  11.4509  12.3332  12.6291
    12.7032  12.7420

     occupation numbers 
     1.0000   1.0000   1.0000   1.0000   1.0000   1.0000   1.0000   1.0000
     1.0000   1.0000   1.0000   1.0000   1.0000   1.0000   1.0000   1.0000
     1.0000   1.0000   1.0000   1.0000   1.0000   1.0000   1.0000   1.0000
     1.0000   1.0000   1.0000   1.0000   1.0000   1.0000   1.0000   1.0000
     1.0000   1.0000   1.0000   1.0000   1.0000   1.0000   1.0000   1.0000
     0.0000   0.0000   0.0000   0.0000   0.0000   0.0000   0.0000   0.0000
     0.0000   0.0000

          k = 0.0000 0.0000 0.3202 (  8507 PWs)   bands (ev):

   -13.2659 -13.2545 -13.2521 -13.2505 -13.2491 -13.2468 -13.2432 -13.2390
   -13.2344 -13.2327 -13.2310 -13.2260 -13.2181 -13.2122 -13.1976 -13.1924
   -13.1883 -13.1846 -13.1755 -13.1670  -5.6813  -5.3368  -4.6527  -4.1791
     0.5846   1.8065   2.1934   2.8120   3.1999   4.7332   4.7646   5.1511
     5.2735   5.6933   5.8774   6.3902   6.5685   7.2114   7.2696   7.5941
     8.9033  10.4007  10.9977  11.1377  11.1598  11.3504  12.1933  12.3126
    12.4632  12.6922

     occupation numbers 
     1.0000   1.0000   1.0000   1.0000   1.0000   1.0000   1.0000   1.0000
     1.0000   1.0000   1.0000   1.0000   1.0000   1.0000   1.0000   1.0000
     1.0000   1.0000   1.0000   1.0000   1.0000   1.0000   1.0000   1.0000
     1.0000   1.0000   1.0000   1.0000   1.0000   1.0000   1.0000   1.0000
     1.0000   1.0000   1.0000   1.0000   1.0000   1.0000   1.0000   1.0000
     0.0000   0.0000   0.0000   0.0000   0.0000   0.0000   0.0000   0.0000
     0.0000   0.0000

          k = 0.0000 0.0000 0.6403 (  8491 PWs)   bands (ev):

   -13.2635 -13.2526 -13.2525 -13.2523 -13.2496 -13.2481 -13.2440 -13.2407
   -13.2331 -13.2290 -13.2267 -13.2265 -13.2172 -13.2133 -13.1974 -13.1913
   -13.1899 -13.1857 -13.1745 -13.1680  -5.4916  -5.1626  -4.6527  -4.2458
     0.1700   1.3525   1.5096   2.3513   3.3692   5.0030   5.0583   5.5364
     5.7224   6.0378   6.1778   6.6234   6.8778   7.0108   7.5218   7.8389
     9.2170   9.4500  10.1731  10.2269  10.9506  11.2349  11.4552  11.5826
    12.6062  12.7494

     occupation numbers 
     1.0000   1.0000   1.0000   1.0000   1.0000   1.0000   1.0000   1.0000
     1.0000   1.0000   1.0000   1.0000   1.0000   1.0000   1.0000   1.0000
     1.0000   1.0000   1.0000   1.0000   1.0000   1.0000   1.0000   1.0000
     1.0000   1.0000   1.0000   1.0000   1.0000   1.0000   1.0000   1.0000
     1.0000   1.0000   1.0000   1.0000   1.0000   1.0000   1.0000   1.0000
     0.0000   0.0000   0.0000   0.0000   0.0000   0.0000   0.0000   0.0000
     0.0000   0.0000

          k = 0.0000 0.0000 0.9605 (  8497 PWs)   bands (ev):

   -13.2601 -13.2541 -13.2538 -13.2524 -13.2503 -13.2477 -13.2446 -13.2428
   -13.2313 -13.2278 -13.2237 -13.2219 -13.2172 -13.2153 -13.1963 -13.1920
   -13.1899 -13.1871 -13.1729 -13.1694  -5.2184  -4.9084  -4.7318  -4.3944
    -0.0658   0.5735   1.3329   1.8113   3.8097   4.9245   5.4905   5.9160
     6.1291   6.3131   6.4621   6.5649   6.9130   7.4265   7.8063   8.0307
     8.9989   9.3179   9.6072   9.7879  10.1805  10.2817  10.8436  11.1275
    11.6651  11.8372

     occupation numbers 
     1.0000   1.0000   1.0000   1.0000   1.0000   1.0000   1.0000   1.0000
     1.0000   1.0000   1.0000   1.0000   1.0000   1.0000   1.0000   1.0000
     1.0000   1.0000   1.0000   1.0000   1.0000   1.0000   1.0000   1.0000
     1.0000   1.0000   1.0000   1.0000   1.0000   1.0000   1.0000   1.0000
     1.0000   1.0000   1.0000   1.0000   1.0000   1.0000   1.0000   1.0000
     0.0000   0.0000   0.0000   0.0000   0.0000   0.0000   0.0000   0.0000
     0.0000   0.0000

          k = 0.0000 0.0000-1.2807 (  8454 PWs)   bands (ev):

   -13.2567 -13.2567 -13.2539 -13.2539 -13.2485 -13.2485 -13.2442 -13.2442
   -13.2294 -13.2294 -13.2191 -13.2191 -13.2182 -13.2182 -13.1943 -13.1943
   -13.1884 -13.1884 -13.1711 -13.1711  -4.9348  -4.9348  -4.6300  -4.6300
     0.0660   0.0660   1.4337   1.4337   4.3887   4.3887   5.9274   5.9274
     6.3046   6.3046   6.6772   6.6772   7.2595   7.2595   7.7968   7.7968
     9.3213   9.3213   9.6525   9.6525   9.7889   9.7889  10.7605  10.7605
    11.2264  11.2264

     occupation numbers 
     1.0000   1.0000   1.0000   1.0000   1.0000   1.0000   1.0000   1.0000
     1.0000   1.0000   1.0000   1.0000   1.0000   1.0000   1.0000   1.0000
     1.0000   1.0000   1.0000   1.0000   1.0000   1.0000   1.0000   1.0000
     1.0000   1.0000   1.0000   1.0000   1.0000   1.0000   1.0000   1.0000
     1.0000   1.0000   1.0000   1.0000   1.0000   1.0000   1.0000   1.0000
     0.0000   0.0000   0.0000   0.0000   0.0000   0.0000   0.0000   0.0000
     0.0000   0.0000

          k = 0.0000 0.3395 0.0000 (  8494 PWs)   bands (ev):

   -13.2633 -13.2538 -13.2510 -13.2492 -13.2482 -13.2481 -13.2452 -13.2401
   -13.2369 -13.2315 -13.2301 -13.2283 -13.2162 -13.2123 -13.1958 -13.1937
   -13.1864 -13.1861 -13.1760 -13.1680  -5.6644  -5.3268  -4.6253  -4.1664
     0.6921   1.7083   2.4620   2.6201   3.2103   4.5952   4.8810   4.9815
     5.1634   5.3294   6.0156   6.3586   6.5184   7.2444   7.4080   7.4914
     8.9808  10.3770  10.9744  11.3192  11.3399  11.3706  11.9434  12.1018
    12.5126  12.9366

     occupation numbers 
     1.0000   1.0000   1.0000   1.0000   1.0000   1.0000   1.0000   1.0000
     1.0000   1.0000   1.0000   1.0000   1.0000   1.0000   1.0000   1.0000
     1.0000   1.0000   1.0000   1.0000   1.0000   1.0000   1.0000   1.0000
     1.0000   1.0000   1.0000   1.0000   1.0000   1.0000   1.0000   1.0000
     1.0000   1.0000   1.0000   1.0000   1.0000   1.0000   1.0000   1.0000
     0.0000   0.0000   0.0000   0.0000   0.0000   0.0000   0.0000   0.0000
     0.0000   0.0000

          k = 0.0000 0.3395 0.3202 (  8504 PWs)   bands (ev):

   -13.2627 -13.2532 -13.2519 -13.2492 -13.2486 -13.2476 -13.2456 -13.2413
   -13.2365 -13.2298 -13.2286 -13.2284 -13.2162 -13.2123 -13.1960 -13.1932
   -13.1871 -13.1864 -13.1757 -13.1683  -5.5986  -5.2668  -4.6156  -4.1803
     0.5337   1.6550   2.1176   2.5387   3.2341   4.3281   4.5209   5.5002
     5.5046   5.7015   5.7420   6.3781   6.8151   7.2395   7.5443   7.5504
     9.0404   9.9490  10.5489  10.8364  11.1410  11.4813  11.8617  12.1087
    12.5275  12.9845

     occupation numbers 
     1.0000   1.0000   1.0000   1.0000   1.0000   1.0000   1.0000   1.0000
     1.0000   1.0000   1.0000   1.0000   1.0000   1.0000   1.0000   1.0000
     1.0000   1.0000   1.0000   1.0000   1.0000   1.0000   1.0000   1.0000
     1.0000   1.0000   1.0000   1.0000   1.0000   1.0000   1.0000   1.0000
     1.0000   1.0000   1.0000   1.0000   1.0000   1.0000   1.0000   1.0000
     0.0000   0.0000   0.0000   0.0000   0.0000   0.0000   0.0000   0.0000
     0.0000   0.0000

          k = 0.0000 0.3395 0.6403 (  8499 PWs)   bands (ev):

   -13.2612 -13.2541 -13.2527 -13.2495 -13.2487 -13.2474 -13.2458 -13.2440
   -13.2350 -13.2288 -13.2260 -13.2248 -13.2161 -13.2127 -13.1959 -13.1921
   -13.1887 -13.1873 -13.1747 -13.1690  -5.4132  -5.0977  -4.6135  -4.2377
     0.2169   1.3782   1.5048   2.2329   3.4618   4.2674   4.4501   5.5505
     5.7727   5.9482   6.2878   6.3496   7.0727   7.2763   7.5906   7.7013
     9.3054   9.6082   9.8706   9.8720  11.0546  11.0661  11.5286  12.0705
    12.6325  12.7987

     occupation numbers 
     1.0000   1.0000   1.0000   1.0000   1.0000   1.0000   1.0000   1.0000
     1.0000   1.0000   1.0000   1.0000   1.0000   1.0000   1.0000   1.0000
     1.0000   1.0000   1.0000   1.0000   1.0000   1.0000   1.0000   1.0000
     1.0000   1.0000   1.0000   1.0000   1.0000   1.0000   1.0000   1.0000
     1.0000   1.0000   1.0000   1.0000   1.0000   1.0000   1.0000   1.0000
     0.0000   0.0000   0.0000   0.0000   0.0000   0.0000   0.0000   0.0000
     0.0000   0.0000

          k = 0.0000 0.3395 0.9605 (  8494 PWs)   bands (ev):

   -13.2596 -13.2565 -13.2528 -13.2504 -13.2484 -13.2479 -13.2461 -13.2453
   -13.2330 -13.2298 -13.2218 -13.2201 -13.2166 -13.2138 -13.1948 -13.1908
   -13.1907 -13.1884 -13.1733 -13.1702  -5.1485  -4.8533  -4.6858  -4.3713
     0.0321   0.6566   1.3979   1.8168   3.8844   4.4968   4.6563   5.5447
     5.6622   5.7700   6.3458   6.6569   7.2828   7.2900   7.6420   7.6520
     9.2335   9.4888   9.5349   9.8944  10.6659  10.8054  11.1007  11.7994
    12.2174  12.5115

     occupation numbers 
     1.0000   1.0000   1.0000   1.0000   1.0000   1.0000   1.0000   1.0000
     1.0000   1.0000   1.0000   1.0000   1.0000   1.0000   1.0000   1.0000
     1.0000   1.0000   1.0000   1.0000   1.0000   1.0000   1.0000   1.0000
     1.0000   1.0000   1.0000   1.0000   1.0000   1.0000   1.0000   1.0000
     1.0000   1.0000   1.0000   1.0000   1.0000   1.0000   1.0000   1.0000
     0.0000   0.0000   0.0000   0.0000   0.0000   0.0000   0.0000   0.0000
     0.0000   0.0000

          k = 0.0000 0.3395-1.2807 (  8508 PWs)   bands (ev):

   -13.2583 -13.2583 -13.2519 -13.2519 -13.2485 -13.2485 -13.2458 -13.2458
   -13.2312 -13.2312 -13.2184 -13.2184 -13.2162 -13.2162 -13.1929 -13.1929
   -13.1895 -13.1895 -13.1717 -13.1717  -4.8769  -4.8769  -4.5896  -4.5896
     0.1719   0.1719   1.4965   1.4965   4.3654   4.3654   5.1512   5.1512
     5.5778   5.5778   6.5007   6.5007   7.4171   7.4171   7.6355   7.6355
     9.2062   9.2062   9.6721   9.6721  10.9060  10.9060  11.2612  11.2612
    11.9643  11.9643

     occupation numbers 
     1.0000   1.0000   1.0000   1.0000   1.0000   1.0000   1.0000   1.0000
     1.0000   1.0000   1.0000   1.0000   1.0000   1.0000   1.0000   1.0000
     1.0000   1.0000   1.0000   1.0000   1.0000   1.0000   1.0000   1.0000
     1.0000   1.0000   1.0000   1.0000   1.0000   1.0000   1.0000   1.0000
     1.0000   1.0000   1.0000   1.0000   1.0000   1.0000   1.0000   1.0000
     0.0000   0.0000   0.0000   0.0000   0.0000   0.0000   0.0000   0.0000
     0.0000   0.0000

          k = 0.0000 0.6790 0.0000 (  8508 PWs)   bands (ev):

   -13.2553 -13.2552 -13.2538 -13.2508 -13.2474 -13.2445 -13.2439 -13.2423
   -13.2375 -13.2319 -13.2290 -13.2245 -13.2144 -13.2122 -13.1965 -13.1917
   -13.1914 -13.1836 -13.1759 -13.1710  -5.4246  -5.1289  -4.5463  -4.2125
     0.4196   1.2441   1.7286   2.0623   3.4078   4.7909   5.1854   5.2477
     5.2641   5.5740   6.3279   6.4305   6.6182   7.2688   7.3917   7.8470
     9.0583   9.2947  10.3970  10.5659  10.5963  11.1921  11.2023  11.8954
    12.6253  12.7744

     occupation numbers 
     1.0000   1.0000   1.0000   1.0000   1.0000   1.0000   1.0000   1.0000
     1.0000   1.0000   1.0000   1.0000   1.0000   1.0000   1.0000   1.0000
     1.0000   1.0000   1.0000   1.0000   1.0000   1.0000   1.0000   1.0000
     1.0000   1.0000   1.0000   1.0000   1.0000   1.0000   1.0000   1.0000
     1.0000   1.0000   1.0000   1.0000   1.0000   1.0000   1.0000   1.0000
     0.0000   0.0000   0.0000   0.0000   0.0000   0.0000   0.0000   0.0000
     0.0000   0.0000

          k = 0.0000 0.6790 0.3202 (  8508 PWs)   bands (ev):

   -13.2582 -13.2550 -13.2534 -13.2517 -13.2470 -13.2445 -13.2439 -13.2423
   -13.2368 -13.2319 -13.2277 -13.2233 -13.2151 -13.2115 -13.1962 -13.1918
   -13.1914 -13.1841 -13.1756 -13.1711  -5.3635  -5.0742  -4.5347  -4.2163
     0.3943   1.2993   1.6973   1.9550   3.4905   4.1167   4.4354   5.2960
     5.7945   5.9262   5.9954   6.3337   6.9705   7.3032   7.4207   7.6283
     9.3054   9.4120   9.7909   9.9370  11.0859  11.1102  11.7148  12.0510
    12.6729  12.8187

     occupation numbers 
     1.0000   1.0000   1.0000   1.0000   1.0000   1.0000   1.0000   1.0000
     1.0000   1.0000   1.0000   1.0000   1.0000   1.0000   1.0000   1.0000
     1.0000   1.0000   1.0000   1.0000   1.0000   1.0000   1.0000   1.0000
     1.0000   1.0000   1.0000   1.0000   1.0000   1.0000   1.0000   1.0000
     1.0000   1.0000   1.0000   1.0000   1.0000   1.0000   1.0000   1.0000
     0.0000   0.0000   0.0000   0.0000   0.0000   0.0000   0.0000   0.0000
     0.0000   0.0000

          k = 0.0000 0.6790 0.6403 (  8522 PWs)   bands (ev):

   -13.2614 -13.2582 -13.2537 -13.2533 -13.2471 -13.2441 -13.2426 -13.2424
   -13.2353 -13.2319 -13.2244 -13.2202 -13.2158 -13.2110 -13.1955 -13.1922
   -13.1910 -13.1854 -13.1749 -13.1714  -5.1934  -4.9222  -4.5239  -4.2436
     0.3284   1.3830   1.4229   1.8482   3.6298   3.7299   3.9090   5.0003
     5.1899   6.0286   6.0375   6.5387   6.7366   7.1468   7.2604   7.4697
     9.0653   9.5833  10.2868  10.6309  10.8254  11.3079  11.5571  12.6041
    13.0034  13.0299

     occupation numbers 
     1.0000   1.0000   1.0000   1.0000   1.0000   1.0000   1.0000   1.0000
     1.0000   1.0000   1.0000   1.0000   1.0000   1.0000   1.0000   1.0000
     1.0000   1.0000   1.0000   1.0000   1.0000   1.0000   1.0000   1.0000
     1.0000   1.0000   1.0000   1.0000   1.0000   1.0000   1.0000   1.0000
     1.0000   1.0000   1.0000   1.0000   1.0000   1.0000   1.0000   1.0000
     0.0000   0.0000   0.0000   0.0000   0.0000   0.0000   0.0000   0.0000
     0.0000   0.0000

          k = 0.0000 0.6790 0.9605 (  8510 PWs)   bands (ev):

   -13.2637 -13.2618 -13.2556 -13.2550 -13.2463 -13.2431 -13.2428 -13.2417
   -13.2337 -13.2321 -13.2207 -13.2164 -13.2163 -13.2117 -13.1945 -13.1927
   -13.1901 -13.1869 -13.1738 -13.1719  -4.9568  -4.7095  -4.5725  -4.3292
     0.3068   0.8749   1.5296   1.7568   3.5961   3.8634   4.0356   4.6910
     4.8860   5.5825   5.5965   6.2627   6.4213   6.9378   7.0743   7.4813
     8.9945  10.2518  10.4572  11.3375  11.4143  11.5876  11.8727  12.8201
    12.8747  13.1553

     occupation numbers 
     1.0000   1.0000   1.0000   1.0000   1.0000   1.0000   1.0000   1.0000
     1.0000   1.0000   1.0000   1.0000   1.0000   1.0000   1.0000   1.0000
     1.0000   1.0000   1.0000   1.0000   1.0000   1.0000   1.0000   1.0000
     1.0000   1.0000   1.0000   1.0000   1.0000   1.0000   1.0000   1.0000
     1.0000   1.0000   1.0000   1.0000   1.0000   1.0000   1.0000   1.0000
     0.0000   0.0000   0.0000   0.0000   0.0000   0.0000   0.0000   0.0000
     0.0000   0.0000

          k = 0.0000 0.6790-1.2807 (  8496 PWs)   bands (ev):

   -13.2639 -13.2639 -13.2562 -13.2562 -13.2446 -13.2446 -13.2418 -13.2418
   -13.2326 -13.2326 -13.2178 -13.2178 -13.2134 -13.2134 -13.1934 -13.1934
   -13.1886 -13.1886 -13.1727 -13.1727  -4.7248  -4.7248  -4.4928  -4.4928
     0.4744   0.4744   1.6287   1.6287   3.9333   3.9333   4.1978   4.1978
     5.0406   5.0406   5.7293   5.7293   6.6116   6.6116   7.2061   7.2061
     9.6187   9.6187  11.0558  11.0558  12.0453  12.0453  12.5625  12.5625
    12.8539  12.8539

     occupation numbers 
     1.0000   1.0000   1.0000   1.0000   1.0000   1.0000   1.0000   1.0000
     1.0000   1.0000   1.0000   1.0000   1.0000   1.0000   1.0000   1.0000
     1.0000   1.0000   1.0000   1.0000   1.0000   1.0000   1.0000   1.0000
     1.0000   1.0000   1.0000   1.0000   1.0000   1.0000   1.0000   1.0000
     1.0000   1.0000   1.0000   1.0000   1.0000   1.0000   1.0000   1.0000
     0.0000   0.0000   0.0000   0.0000   0.0000   0.0000   0.0000   0.0000
     0.0000   0.0000

          k = 0.0000 1.0186 0.0000 (  8550 PWs)   bands (ev):

   -13.2590 -13.2566 -13.2560 -13.2533 -13.2426 -13.2426 -13.2415 -13.2374
   -13.2342 -13.2330 -13.2282 -13.2188 -13.2174 -13.2083 -13.2004 -13.2002
   -13.1857 -13.1801 -13.1759 -13.1749  -5.0713  -4.8608  -4.5141  -4.3751
     0.2264   0.8955   0.9606   1.4889   3.8797   4.9587   5.3821   5.5621
     5.7002   5.8434   6.2707   6.5706   6.9862   7.2215   7.2711   7.6282
     8.8521   9.5664   9.5828   9.6625   9.9259  10.3484  10.5305  11.2641
    11.5975  11.9947

     occupation numbers 
     1.0000   1.0000   1.0000   1.0000   1.0000   1.0000   1.0000   1.0000
     1.0000   1.0000   1.0000   1.0000   1.0000   1.0000   1.0000   1.0000
     1.0000   1.0000   1.0000   1.0000   1.0000   1.0000   1.0000   1.0000
     1.0000   1.0000   1.0000   1.0000   1.0000   1.0000   1.0000   1.0000
     1.0000   1.0000   1.0000   1.0000   1.0000   1.0000   1.0000   1.0000
     0.0000   0.0000   0.0000   0.0000   0.0000   0.0000   0.0000   0.0000
     0.0000   0.0000

          k = 0.0000 1.0186 0.3202 (  8539 PWs)   bands (ev):

   -13.2611 -13.2587 -13.2567 -13.2547 -13.2432 -13.2410 -13.2408 -13.2370
   -13.2334 -13.2328 -13.2273 -13.2188 -13.2168 -13.2086 -13.2000 -13.1996
   -13.1858 -13.1807 -13.1756 -13.1746  -5.0199  -4.8161  -4.4962  -4.3611
     0.2928   0.9652   1.0429   1.4814   3.9445   4.3141   4.6362   5.4178
     5.6570   5.6827   6.3305   6.4237   6.7057   7.1233   7.3360   7.4662
     9.1889   9.2009   9.4363   9.8014  10.8161  10.9207  11.1798  11.3974
    12.1990  12.6506

     occupation numbers 
     1.0000   1.0000   1.0000   1.0000   1.0000   1.0000   1.0000   1.0000
     1.0000   1.0000   1.0000   1.0000   1.0000   1.0000   1.0000   1.0000
     1.0000   1.0000   1.0000   1.0000   1.0000   1.0000   1.0000   1.0000
     1.0000   1.0000   1.0000   1.0000   1.0000   1.0000   1.0000   1.0000
     1.0000   1.0000   1.0000   1.0000   1.0000   1.0000   1.0000   1.0000
     0.0000   0.0000   0.0000   0.0000   0.0000   0.0000   0.0000   0.0000
     0.0000   0.0000

          k = 0.0000 1.0186 0.6403 (  8524 PWs)   bands (ev):

   -13.2654 -13.2632 -13.2592 -13.2579 -13.2428 -13.2401 -13.2384 -13.2362
   -13.2322 -13.2320 -13.2247 -13.2185 -13.2151 -13.2093 -13.1989 -13.1983
   -13.1857 -13.1818 -13.1751 -13.1741  -4.8810  -4.6962  -4.4622  -4.3356
     0.4689   1.1272   1.2667   1.4460   3.5171   3.9369   4.0920   4.6050
     4.9553   5.6181   5.6648   5.9855   6.3947   6.5229   7.0774   7.4368
     8.8909  10.2462  10.2810  10.9804  11.3401  11.6796  12.2697  12.4580
    12.6575  12.7657

     occupation numbers 
     1.0000   1.0000   1.0000   1.0000   1.0000   1.0000   1.0000   1.0000
     1.0000   1.0000   1.0000   1.0000   1.0000   1.0000   1.0000   1.0000
     1.0000   1.0000   1.0000   1.0000   1.0000   1.0000   1.0000   1.0000
     1.0000   1.0000   1.0000   1.0000   1.0000   1.0000   1.0000   1.0000
     1.0000   1.0000   1.0000   1.0000   1.0000   1.0000   1.0000   1.0000
     0.0000   0.0000   0.0000   0.0000   0.0000   0.0000   0.0000   0.0000
     0.0000   0.0000

          k = 0.0000 1.0186 0.9605 (  8503 PWs)   bands (ev):

   -13.2690 -13.2677 -13.2618 -13.2612 -13.2419 -13.2399 -13.2366 -13.2357
   -13.2314 -13.2310 -13.2218 -13.2184 -13.2128 -13.2100 -13.1977 -13.1973
   -13.1851 -13.1829 -13.1744 -13.1739  -4.6997  -4.5417  -4.4620  -4.3391
     0.6915   1.1182   1.5225   1.5343   3.1264   3.5835   3.8181   4.0851
     4.6698   5.0169   5.0676   5.6579   5.9375   6.1539   6.9224   6.9559
     9.5043  10.9619  11.2448  11.3536  12.3100  12.3731  12.6230  12.9604
    13.0949  13.2597

     occupation numbers 
     1.0000   1.0000   1.0000   1.0000   1.0000   1.0000   1.0000   1.0000
     1.0000   1.0000   1.0000   1.0000   1.0000   1.0000   1.0000   1.0000
     1.0000   1.0000   1.0000   1.0000   1.0000   1.0000   1.0000   1.0000
     1.0000   1.0000   1.0000   1.0000   1.0000   1.0000   1.0000   1.0000
     1.0000   1.0000   1.0000   1.0000   1.0000   1.0000   1.0000   1.0000
     0.0000   0.0000   0.0000   0.0000   0.0000   0.0000   0.0000   0.0000
     0.0000   0.0000

          k = 0.0000 1.0186-1.2807 (  8522 PWs)   bands (ev):

   -13.2700 -13.2700 -13.2627 -13.2627 -13.2408 -13.2408 -13.2357 -13.2357
   -13.2308 -13.2308 -13.2195 -13.2195 -13.2110 -13.2110 -13.1971 -13.1971
   -13.1840 -13.1840 -13.1740 -13.1740  -4.5418  -4.5418  -4.4082  -4.4082
     0.9128   0.9128   1.6411   1.6411   3.2554   3.2554   3.7436   3.7436
     4.5808   4.5808   5.3354   5.3354   5.8413   5.8413   6.8295   6.8295
    10.2671  10.2671  11.6650  11.6650  12.7734  12.7734  13.0100  13.0100
    13.2124  13.2125

     occupation numbers 
     1.0000   1.0000   1.0000   1.0000   1.0000   1.0000   1.0000   1.0000
     1.0000   1.0000   1.0000   1.0000   1.0000   1.0000   1.0000   1.0000
     1.0000   1.0000   1.0000   1.0000   1.0000   1.0000   1.0000   1.0000
     1.0000   1.0000   1.0000   1.0000   1.0000   1.0000   1.0000   1.0000
     1.0000   1.0000   1.0000   1.0000   1.0000   1.0000   1.0000   1.0000
     0.0000   0.0000   0.0000   0.0000   0.0000   0.0000   0.0000   0.0000
     0.0000   0.0000

          k = 0.0000-1.3581 0.0000 (  8578 PWs)   bands (ev):

   -13.2598 -13.2598 -13.2559 -13.2559 -13.2408 -13.2408 -13.2390 -13.2390
   -13.2296 -13.2296 -13.2261 -13.2261 -13.2092 -13.2092 -13.2044 -13.2044
   -13.1799 -13.1799 -13.1772 -13.1772  -4.6850  -4.6850  -4.6216  -4.6216
     0.3591   0.3591   1.0557   1.0557   4.4832   4.4832   5.8486   5.8486
     5.8638   5.8638   6.3755   6.3755   7.1066   7.1066   7.3066   7.3066
     9.1105   9.1105   9.5451   9.5451   9.8207   9.8207  10.6271  10.6271
    11.3367  11.3367

     occupation numbers 
     1.0000   1.0000   1.0000   1.0000   1.0000   1.0000   1.0000   1.0000
     1.0000   1.0000   1.0000   1.0000   1.0000   1.0000   1.0000   1.0000
     1.0000   1.0000   1.0000   1.0000   1.0000   1.0000   1.0000   1.0000
     1.0000   1.0000   1.0000   1.0000   1.0000   1.0000   1.0000   1.0000
     1.0000   1.0000   1.0000   1.0000   1.0000   1.0000   1.0000   1.0000
     0.0000   0.0000   0.0000   0.0000   0.0000   0.0000   0.0000   0.0000
     0.0000   0.0000

          k = 0.0000-1.3581 0.3202 (  8538 PWs)   bands (ev):

   -13.2618 -13.2618 -13.2572 -13.2572 -13.2407 -13.2407 -13.2379 -13.2379
   -13.2294 -13.2294 -13.2253 -13.2253 -13.2098 -13.2098 -13.2032 -13.2032
   -13.1803 -13.1803 -13.1767 -13.1767  -4.6502  -4.6502  -4.5910  -4.5910
     0.4517   0.4517   1.1133   1.1133   4.4268   4.4268   4.9870   4.9870
     5.5630   5.5630   6.4637   6.4637   6.7104   6.7104   7.4338   7.4338
     8.9528   8.9528   9.7734   9.7734  10.6426  10.6426  11.3869  11.3869
    11.8559  11.8559

     occupation numbers 
     1.0000   1.0000   1.0000   1.0000   1.0000   1.0000   1.0000   1.0000
     1.0000   1.0000   1.0000   1.0000   1.0000   1.0000   1.0000   1.0000
     1.0000   1.0000   1.0000   1.0000   1.0000   1.0000   1.0000   1.0000
     1.0000   1.0000   1.0000   1.0000   1.0000   1.0000   1.0000   1.0000
     1.0000   1.0000   1.0000   1.0000   1.0000   1.0000   1.0000   1.0000
     0.0000   0.0000   0.0000   0.0000   0.0000   0.0000   0.0000   0.0000
     0.0000   0.0000

          k = 0.0000-1.3581 0.6403 (  8534 PWs)   bands (ev):

   -13.2664 -13.2664 -13.2606 -13.2606 -13.2403 -13.2403 -13.2358 -13.2358
   -13.2288 -13.2288 -13.2236 -13.2236 -13.2103 -13.2103 -13.2011 -13.2011
   -13.1811 -13.1811 -13.1759 -13.1759  -4.5624  -4.5624  -4.5156  -4.5156
     0.7131   0.7131   1.2580   1.2580   3.9049   3.9049   4.2933   4.2933
     5.0678   5.0678   5.7324   5.7324   6.1381   6.1381   7.1990   7.1990
     9.4526   9.4526  11.0080  11.0080  11.9097  11.9097  12.2324  12.2324
    12.6162  12.6162

     occupation numbers 
     1.0000   1.0000   1.0000   1.0000   1.0000   1.0000   1.0000   1.0000
     1.0000   1.0000   1.0000   1.0000   1.0000   1.0000   1.0000   1.0000
     1.0000   1.0000   1.0000   1.0000   1.0000   1.0000   1.0000   1.0000
     1.0000   1.0000   1.0000   1.0000   1.0000   1.0000   1.0000   1.0000
     1.0000   1.0000   1.0000   1.0000   1.0000   1.0000   1.0000   1.0000
     0.0000   0.0000   0.0000   0.0000   0.0000   0.0000   0.0000   0.0000
     0.0000   0.0000

          k = 0.0000-1.3581 0.9605 (  8514 PWs)   bands (ev):

   -13.2708 -13.2708 -13.2639 -13.2639 -13.2400 -13.2400 -13.2340 -13.2340
   -13.2280 -13.2280 -13.2224 -13.2224 -13.2100 -13.2100 -13.1994 -13.1994
   -13.1814 -13.1814 -13.1753 -13.1753  -4.4668  -4.4668  -4.4396  -4.4396
     1.0700   1.0700   1.4021   1.4021   3.2700   3.2700   3.8269   3.8269
     4.5572   4.5572   5.3423   5.3423   5.7135   5.7135   6.8218   6.8218
    10.2924  10.2924  11.5282  11.5282  12.6426  12.6426  12.8362  12.8362
    13.1701  13.1701

     occupation numbers 
     1.0000   1.0000   1.0000   1.0000   1.0000   1.0000   1.0000   1.0000
     1.0000   1.0000   1.0000   1.0000   1.0000   1.0000   1.0000   1.0000
     1.0000   1.0000   1.0000   1.0000   1.0000   1.0000   1.0000   1.0000
     1.0000   1.0000   1.0000   1.0000   1.0000   1.0000   1.0000   1.0000
     1.0000   1.0000   1.0000   1.0000   1.0000   1.0000   1.0000   1.0000
     0.0000   0.0000   0.0000   0.0000   0.0000   0.0000   0.0000   0.0000
     0.0000   0.0000

          k = 0.0000-1.3581-1.2807 (  8524 PWs)   bands (ev):

   -13.2725 -13.2725 -13.2653 -13.2653 -13.2400 -13.2400 -13.2334 -13.2334
   -13.2277 -13.2277 -13.2220 -13.2220 -13.2097 -13.2097 -13.1988 -13.1988
   -13.1814 -13.1814 -13.1751 -13.1751  -4.4213  -4.4213  -4.4115  -4.4115
     1.2899   1.2899   1.4401   1.4401   3.0375   3.0375   3.5529   3.5529
     4.4678   4.4678   4.9490   4.9490   5.8002   5.8002   6.6413   6.6413
    10.8672  10.8672  11.1742  11.1742  12.8443  12.8443  12.9770  12.9770
    13.7127  13.7127

     occupation numbers 
     1.0000   1.0000   1.0000   1.0000   1.0000   1.0000   1.0000   1.0000
     1.0000   1.0000   1.0000   1.0000   1.0000   1.0000   1.0000   1.0000
     1.0000   1.0000   1.0000   1.0000   1.0000   1.0000   1.0000   1.0000
     1.0000   1.0000   1.0000   1.0000   1.0000   1.0000   1.0000   1.0000
     1.0000   1.0000   1.0000   1.0000   1.0000   1.0000   1.0000   1.0000
     0.0000   0.0000   0.0000   0.0000   0.0000   0.0000   0.0000   0.0000
     0.0000   0.0000

          k = 0.3333 0.0000 0.0000 (  8494 PWs)   bands (ev):

   -13.2641 -13.2580 -13.2524 -13.2507 -13.2491 -13.2473 -13.2410 -13.2391
   -13.2330 -13.2330 -13.2327 -13.2285 -13.2169 -13.2134 -13.1962 -13.1939
   -13.1867 -13.1850 -13.1733 -13.1687  -5.6837  -5.5183  -4.5051  -4.2647
     0.9611   1.4151   2.9563   3.0514   3.5848   4.3861   4.7499   4.9335
     4.9847   5.3934   6.0550   6.1289   6.1487   6.3928   7.4741   7.5628
    10.0732  10.7132  10.8033  11.2451  11.5923  11.7138  12.0118  12.3247
    12.9921  13.0552

     occupation numbers 
     1.0000   1.0000   1.0000   1.0000   1.0000   1.0000   1.0000   1.0000
     1.0000   1.0000   1.0000   1.0000   1.0000   1.0000   1.0000   1.0000
     1.0000   1.0000   1.0000   1.0000   1.0000   1.0000   1.0000   1.0000
     1.0000   1.0000   1.0000   1.0000   1.0000   1.0000   1.0000   1.0000
     1.0000   1.0000   1.0000   1.0000   1.0000   1.0000   1.0000   1.0000
     0.0000   0.0000   0.0000   0.0000   0.0000   0.0000   0.0000   0.0000
     0.0000   0.0000

          k = 0.3333 0.0000 0.3202 (  8484 PWs)   bands (ev):

   -13.2634 -13.2576 -13.2518 -13.2501 -13.2498 -13.2481 -13.2418 -13.2398
   -13.2325 -13.2317 -13.2309 -13.2283 -13.2167 -13.2137 -13.1962 -13.1937
   -13.1872 -13.1854 -13.1732 -13.1689  -5.6179  -5.4554  -4.5018  -4.2748
     0.7490   1.2342   2.5482   2.7664   3.6870   4.5703   4.8508   5.0811
     5.1478   5.5639   6.1142   6.2613   6.4355   6.6095   7.3669   7.5518
    10.0274  10.5414  10.9477  11.1493  11.1856  11.3815  11.5904  12.1842
    12.8262  12.9471

     occupation numbers 
     1.0000   1.0000   1.0000   1.0000   1.0000   1.0000   1.0000   1.0000
     1.0000   1.0000   1.0000   1.0000   1.0000   1.0000   1.0000   1.0000
     1.0000   1.0000   1.0000   1.0000   1.0000   1.0000   1.0000   1.0000
     1.0000   1.0000   1.0000   1.0000   1.0000   1.0000   1.0000   1.0000
     1.0000   1.0000   1.0000   1.0000   1.0000   1.0000   1.0000   1.0000
     0.0000   0.0000   0.0000   0.0000   0.0000   0.0000   0.0000   0.0000
     0.0000   0.0000

          k = 0.3333 0.0000 0.6403 (  8515 PWs)   bands (ev):

   -13.2614 -13.2566 -13.2516 -13.2505 -13.2501 -13.2489 -13.2436 -13.2418
   -13.2314 -13.2282 -13.2279 -13.2268 -13.2165 -13.2145 -13.1960 -13.1933
   -13.1883 -13.1865 -13.1727 -13.1695  -5.4324  -5.2792  -4.5166  -4.3245
     0.3447   0.8275   1.8540   2.1863   3.9247   4.8991   5.1391   5.3545
     5.5860   5.8970   6.2463   6.5153   6.7719   7.0571   7.3343   7.6197
     9.7217  10.1142  10.3337  10.5292  10.7736  10.8053  11.2573  12.0408
    12.1239  12.5338

     occupation numbers 
     1.0000   1.0000   1.0000   1.0000   1.0000   1.0000   1.0000   1.0000
     1.0000   1.0000   1.0000   1.0000   1.0000   1.0000   1.0000   1.0000
     1.0000   1.0000   1.0000   1.0000   1.0000   1.0000   1.0000   1.0000
     1.0000   1.0000   1.0000   1.0000   1.0000   1.0000   1.0000   1.0000
     1.0000   1.0000   1.0000   1.0000   1.0000   1.0000   1.0000   1.0000
     0.0000   0.0000   0.0000   0.0000   0.0000   0.0000   0.0000   0.0000
     0.0000   0.0000

          k = 0.3333 0.0000 0.9605 (  8512 PWs)   bands (ev):

   -13.2588 -13.2559 -13.2531 -13.2523 -13.2495 -13.2483 -13.2450 -13.2439
   -13.2301 -13.2284 -13.2230 -13.2221 -13.2169 -13.2160 -13.1952 -13.1932
   -13.1890 -13.1877 -13.1720 -13.1703  -5.1690  -5.0358  -4.5982  -4.4512
     0.0846   0.4162   1.3620   1.6217   4.3342   5.2100   5.5586   5.6121
     5.7411   6.2047   6.3044   6.4920   7.0317   7.1954   7.8025   7.9726
     9.1594   9.5162   9.7537  10.0295  10.0850  10.4848  10.8682  11.2986
    11.6474  11.7679

     occupation numbers 
     1.0000   1.0000   1.0000   1.0000   1.0000   1.0000   1.0000   1.0000
     1.0000   1.0000   1.0000   1.0000   1.0000   1.0000   1.0000   1.0000
     1.0000   1.0000   1.0000   1.0000   1.0000   1.0000   1.0000   1.0000
     1.0000   1.0000   1.0000   1.0000   1.0000   1.0000   1.0000   1.0000
     1.0000   1.0000   1.0000   1.0000   1.0000   1.0000   1.0000   1.0000
     0.0000   0.0000   0.0000   0.0000   0.0000   0.0000   0.0000   0.0000
     0.0000   0.0000

          k = 0.3333 0.0000-1.2807 (  8496 PWs)   bands (ev):

   -13.2566 -13.2566 -13.2534 -13.2534 -13.2487 -13.2487 -13.2451 -13.2451
   -13.2290 -13.2290 -13.2189 -13.2189 -13.2185 -13.2185 -13.1940 -13.1940
   -13.1887 -13.1887 -13.1712 -13.1712  -4.9325  -4.9325  -4.6333  -4.6333
     0.1241   0.1241   1.2937   1.2937   4.8623   4.8623   5.9213   5.9213
     5.9372   5.9372   6.2900   6.2900   7.4882   7.4882   7.8281   7.8281
     9.2571   9.2571   9.6991   9.6991   9.8296   9.8296  11.1465  11.1465
    11.2305  11.2305

     occupation numbers 
     1.0000   1.0000   1.0000   1.0000   1.0000   1.0000   1.0000   1.0000
     1.0000   1.0000   1.0000   1.0000   1.0000   1.0000   1.0000   1.0000
     1.0000   1.0000   1.0000   1.0000   1.0000   1.0000   1.0000   1.0000
     1.0000   1.0000   1.0000   1.0000   1.0000   1.0000   1.0000   1.0000
     1.0000   1.0000   1.0000   1.0000   1.0000   1.0000   1.0000   1.0000
     0.0000   0.0000   0.0000   0.0000   0.0000   0.0000   0.0000   0.0000
     0.0000   0.0000

          k = 0.3333 0.3395 0.0000 (  8493 PWs)   bands (ev):

   -13.2609 -13.2558 -13.2505 -13.2505 -13.2490 -13.2490 -13.2431 -13.2409
   -13.2350 -13.2315 -13.2300 -13.2296 -13.2154 -13.2134 -13.1949 -13.1938
   -13.1867 -13.1864 -13.1738 -13.1698  -5.6017  -5.4419  -4.4796  -4.2592
     0.8380   1.2680   2.6452   2.6585   3.6468   4.4776   4.6993   4.9826
     5.2111   5.5050   6.0518   6.1856   6.4023   6.4662   7.5227   7.5600
    10.1508  10.5905  10.9289  11.0244  11.2599  11.4535  11.5300  12.1899
    12.8254  13.1028

     occupation numbers 
     1.0000   1.0000   1.0000   1.0000   1.0000   1.0000   1.0000   1.0000
     1.0000   1.0000   1.0000   1.0000   1.0000   1.0000   1.0000   1.0000
     1.0000   1.0000   1.0000   1.0000   1.0000   1.0000   1.0000   1.0000
     1.0000   1.0000   1.0000   1.0000   1.0000   1.0000   1.0000   1.0000
     1.0000   1.0000   1.0000   1.0000   1.0000   1.0000   1.0000   1.0000
     0.0000   0.0000   0.0000   0.0000   0.0000   0.0000   0.0000   0.0000
     0.0000   0.0000

          k = 0.3333 0.3395 0.3202 (  8492 PWs)   bands (ev):

   -13.2605 -13.2556 -13.2513 -13.2499 -13.2496 -13.2485 -13.2438 -13.2418
   -13.2345 -13.2308 -13.2288 -13.2285 -13.2155 -13.2135 -13.1949 -13.1934
   -13.1872 -13.1869 -13.1736 -13.1699  -5.5372  -5.3806  -4.4756  -4.2672
     0.6945   1.1604   2.3587   2.5016   3.7358   4.3552   4.6040   4.9382
     5.4543   5.8138   5.8912   6.0532   6.7983   7.0202   7.4313   7.5787
     9.9542  10.1127  10.5209  10.9577  11.1363  11.3804  11.7756  12.1909
    12.4159  12.7049

     occupation numbers 
     1.0000   1.0000   1.0000   1.0000   1.0000   1.0000   1.0000   1.0000
     1.0000   1.0000   1.0000   1.0000   1.0000   1.0000   1.0000   1.0000
     1.0000   1.0000   1.0000   1.0000   1.0000   1.0000   1.0000   1.0000
     1.0000   1.0000   1.0000   1.0000   1.0000   1.0000   1.0000   1.0000
     1.0000   1.0000   1.0000   1.0000   1.0000   1.0000   1.0000   1.0000
     0.0000   0.0000   0.0000   0.0000   0.0000   0.0000   0.0000   0.0000
     0.0000   0.0000

          k = 0.3333 0.3395 0.6403 (  8508 PWs)   bands (ev):

   -13.2594 -13.2552 -13.2534 -13.2514 -13.2483 -13.2473 -13.2452 -13.2438
   -13.2332 -13.2302 -13.2255 -13.2249 -13.2156 -13.2138 -13.1947 -13.1927
   -13.1886 -13.1879 -13.1730 -13.1703  -5.3562  -5.2091  -4.4869  -4.3097
     0.3900   0.8646   1.8233   2.0990   3.9579   4.3296   4.5782   5.2599
     5.4037   5.7517   6.3103   6.4516   7.1557   7.2432   7.4163   7.5903
     9.5952   9.6828  10.1413  10.4807  10.7806  11.2051  11.6109  11.7236
    12.4020  12.5422

     occupation numbers 
     1.0000   1.0000   1.0000   1.0000   1.0000   1.0000   1.0000   1.0000
     1.0000   1.0000   1.0000   1.0000   1.0000   1.0000   1.0000   1.0000
     1.0000   1.0000   1.0000   1.0000   1.0000   1.0000   1.0000   1.0000
     1.0000   1.0000   1.0000   1.0000   1.0000   1.0000   1.0000   1.0000
     1.0000   1.0000   1.0000   1.0000   1.0000   1.0000   1.0000   1.0000
     0.0000   0.0000   0.0000   0.0000   0.0000   0.0000   0.0000   0.0000
     0.0000   0.0000

          k = 0.3333 0.3395 0.9605 (  8499 PWs)   bands (ev):

   -13.2582 -13.2560 -13.2546 -13.2530 -13.2474 -13.2468 -13.2462 -13.2452
   -13.2319 -13.2303 -13.2214 -13.2206 -13.2161 -13.2147 -13.1938 -13.1920
   -13.1902 -13.1892 -13.1723 -13.1708  -5.1012  -4.9741  -4.5607  -4.4239
     0.1794   0.5029   1.4203   1.6493   4.2957   4.5892   4.8803   5.2982
     5.5520   5.7441   6.1147   6.5539   7.1162   7.2866   7.4842   7.5904
     9.4308   9.7741   9.8917  10.1516  10.6048  10.9840  11.0921  11.3460
    12.3069  12.4340

     occupation numbers 
     1.0000   1.0000   1.0000   1.0000   1.0000   1.0000   1.0000   1.0000
     1.0000   1.0000   1.0000   1.0000   1.0000   1.0000   1.0000   1.0000
     1.0000   1.0000   1.0000   1.0000   1.0000   1.0000   1.0000   1.0000
     1.0000   1.0000   1.0000   1.0000   1.0000   1.0000   1.0000   1.0000
     1.0000   1.0000   1.0000   1.0000   1.0000   1.0000   1.0000   1.0000
     0.0000   0.0000   0.0000   0.0000   0.0000   0.0000   0.0000   0.0000
     0.0000   0.0000

          k = 0.3333 0.3395-1.2807 (  8492 PWs)   bands (ev):

   -13.2574 -13.2574 -13.2540 -13.2540 -13.2472 -13.2472 -13.2458 -13.2458
   -13.2309 -13.2309 -13.2184 -13.2184 -13.2164 -13.2164 -13.1925 -13.1925
   -13.1903 -13.1903 -13.1715 -13.1715  -4.8748  -4.8748  -4.5926  -4.5926
     0.2261   0.2261   1.3681   1.3681   4.7000   4.7000   5.1588   5.1588
     5.5481   5.5481   6.2262   6.2262   7.2133   7.2133   7.5426   7.5426
     9.5956   9.5956   9.9519   9.9519  10.6568  10.6568  11.2778  11.2778
    12.0574  12.0574

     occupation numbers 
     1.0000   1.0000   1.0000   1.0000   1.0000   1.0000   1.0000   1.0000
     1.0000   1.0000   1.0000   1.0000   1.0000   1.0000   1.0000   1.0000
     1.0000   1.0000   1.0000   1.0000   1.0000   1.0000   1.0000   1.0000
     1.0000   1.0000   1.0000   1.0000   1.0000   1.0000   1.0000   1.0000
     1.0000   1.0000   1.0000   1.0000   1.0000   1.0000   1.0000   1.0000
     0.0000   0.0000   0.0000   0.0000   0.0000   0.0000   0.0000   0.0000
     0.0000   0.0000

          k = 0.3333 0.6790 0.0000 (  8538 PWs)   bands (ev):

   -13.2560 -13.2558 -13.2519 -13.2505 -13.2464 -13.2453 -13.2443 -13.2440
   -13.2359 -13.2331 -13.2278 -13.2257 -13.2138 -13.2128 -13.1958 -13.1941
   -13.1882 -13.1850 -13.1746 -13.1722  -5.3689  -5.2284  -4.4363  -4.2768
     0.5574   0.9371   1.8209   2.0059   3.8853   4.7502   4.8896   5.1273
     5.5235   5.7667   6.1782   6.3060   6.4682   6.7991   7.5028   7.7017
     9.3640  10.0136  10.3875  10.5541  10.7484  11.2863  11.3457  11.9453
    12.3036  12.3548

     occupation numbers 
     1.0000   1.0000   1.0000   1.0000   1.0000   1.0000   1.0000   1.0000
     1.0000   1.0000   1.0000   1.0000   1.0000   1.0000   1.0000   1.0000
     1.0000   1.0000   1.0000   1.0000   1.0000   1.0000   1.0000   1.0000
     1.0000   1.0000   1.0000   1.0000   1.0000   1.0000   1.0000   1.0000
     1.0000   1.0000   1.0000   1.0000   1.0000   1.0000   1.0000   1.0000
     0.0000   0.0000   0.0000   0.0000   0.0000   0.0000   0.0000   0.0000
     0.0000   0.0000

          k = 0.3333 0.6790 0.3202 (  8533 PWs)   bands (ev):

   -13.2578 -13.2562 -13.2528 -13.2511 -13.2465 -13.2450 -13.2443 -13.2432
   -13.2354 -13.2329 -13.2266 -13.2245 -13.2142 -13.2124 -13.1957 -13.1941
   -13.1884 -13.1854 -13.1744 -13.1721  -5.3091  -5.1720  -4.4288  -4.2771
     0.5448   0.9546   1.7908   1.9243   3.9100   4.1943   4.5509   5.0455
     5.4616   5.7890   6.1734   6.2897   6.9116   7.0276   7.4734   7.5763
     9.4183   9.6076  10.2544  10.5202  10.8763  11.1735  11.5481  11.8701
    12.2312  12.6096

     occupation numbers 
     1.0000   1.0000   1.0000   1.0000   1.0000   1.0000   1.0000   1.0000
     1.0000   1.0000   1.0000   1.0000   1.0000   1.0000   1.0000   1.0000
     1.0000   1.0000   1.0000   1.0000   1.0000   1.0000   1.0000   1.0000
     1.0000   1.0000   1.0000   1.0000   1.0000   1.0000   1.0000   1.0000
     1.0000   1.0000   1.0000   1.0000   1.0000   1.0000   1.0000   1.0000
     0.0000   0.0000   0.0000   0.0000   0.0000   0.0000   0.0000   0.0000
     0.0000   0.0000

          k = 0.3333 0.6790 0.6403 (  8510 PWs)   bands (ev):

   -13.2605 -13.2586 -13.2550 -13.2533 -13.2460 -13.2445 -13.2427 -13.2423
   -13.2342 -13.2326 -13.2236 -13.2217 -13.2142 -13.2121 -13.1954 -13.1941
   -13.1887 -13.1863 -13.1738 -13.1721  -5.1436  -5.0166  -4.4269  -4.2954
     0.4930   0.9295   1.6493   1.7868   3.7197   3.8359   4.3863   4.8514
     4.9667   5.5758   6.3138   6.5198   6.6038   6.6838   7.4465   7.6018
     9.5981   9.9755  10.1426  10.5115  10.8658  11.2939  11.5962  12.1442
    12.5392  12.9365

     occupation numbers 
     1.0000   1.0000   1.0000   1.0000   1.0000   1.0000   1.0000   1.0000
     1.0000   1.0000   1.0000   1.0000   1.0000   1.0000   1.0000   1.0000
     1.0000   1.0000   1.0000   1.0000   1.0000   1.0000   1.0000   1.0000
     1.0000   1.0000   1.0000   1.0000   1.0000   1.0000   1.0000   1.0000
     1.0000   1.0000   1.0000   1.0000   1.0000   1.0000   1.0000   1.0000
     0.0000   0.0000   0.0000   0.0000   0.0000   0.0000   0.0000   0.0000
     0.0000   0.0000

          k = 0.3333 0.6790 0.9605 (  8501 PWs)   bands (ev):

   -13.2628 -13.2616 -13.2570 -13.2560 -13.2450 -13.2438 -13.2417 -13.2415
   -13.2331 -13.2324 -13.2205 -13.2191 -13.2136 -13.2121 -13.1949 -13.1942
   -13.1887 -13.1874 -13.1730 -13.1721  -4.9165  -4.8093  -4.4740  -4.3688
     0.4425   0.7353   1.5280   1.6562   3.6726   3.8183   4.4692   4.6076
     4.8106   5.4530   5.8618   6.1216   6.3299   6.4911   7.1291   7.3849
     9.8230  10.4112  10.6527  10.8628  11.3348  11.5422  11.7604  12.2104
    12.6668  12.9719

     occupation numbers 
     1.0000   1.0000   1.0000   1.0000   1.0000   1.0000   1.0000   1.0000
     1.0000   1.0000   1.0000   1.0000   1.0000   1.0000   1.0000   1.0000
     1.0000   1.0000   1.0000   1.0000   1.0000   1.0000   1.0000   1.0000
     1.0000   1.0000   1.0000   1.0000   1.0000   1.0000   1.0000   1.0000
     1.0000   1.0000   1.0000   1.0000   1.0000   1.0000   1.0000   1.0000
     0.0000   0.0000   0.0000   0.0000   0.0000   0.0000   0.0000   0.0000
     0.0000   0.0000

          k = 0.3333 0.6790-1.2807 (  8504 PWs)   bands (ev):

   -13.2633 -13.2633 -13.2575 -13.2575 -13.2440 -13.2440 -13.2414 -13.2414
   -13.2325 -13.2325 -13.2187 -13.2187 -13.2126 -13.2126 -13.1945 -13.1945
   -13.1882 -13.1882 -13.1724 -13.1724  -4.7231  -4.7231  -4.4951  -4.4951
     0.5156   0.5156   1.5396   1.5396   3.9838   3.9838   4.2005   4.2005
     5.1940   5.1940   5.8279   5.8279   6.3219   6.3219   7.0442   7.0442
    10.2099  10.2099  11.2040  11.2040  11.4163  11.4163  12.1444  12.1444
    12.9373  12.9373

     occupation numbers 
     1.0000   1.0000   1.0000   1.0000   1.0000   1.0000   1.0000   1.0000
     1.0000   1.0000   1.0000   1.0000   1.0000   1.0000   1.0000   1.0000
     1.0000   1.0000   1.0000   1.0000   1.0000   1.0000   1.0000   1.0000
     1.0000   1.0000   1.0000   1.0000   1.0000   1.0000   1.0000   1.0000
     1.0000   1.0000   1.0000   1.0000   1.0000   1.0000   1.0000   1.0000
     0.0000   0.0000   0.0000   0.0000   0.0000   0.0000   0.0000   0.0000
     0.0000   0.0000

          k = 0.3333 1.0186 0.0000 (  8552 PWs)   bands (ev):

   -13.2587 -13.2573 -13.2555 -13.2539 -13.2424 -13.2420 -13.2415 -13.2391
   -13.2334 -13.2328 -13.2267 -13.2231 -13.2132 -13.2097 -13.2005 -13.2005
   -13.1842 -13.1814 -13.1756 -13.1752  -5.0299  -4.9291  -4.4635  -4.3984
     0.3663   0.7195   1.0299   1.3259   4.3325   5.1991   5.2018   5.4584
     5.5962   6.0852   6.2507   6.2740   6.6862   6.7339   7.4794   7.6188
     9.0136   9.2587   9.9390   9.9863  10.5140  10.5385  10.6931  11.0716
    11.3447  12.0736

     occupation numbers 
     1.0000   1.0000   1.0000   1.0000   1.0000   1.0000   1.0000   1.0000
     1.0000   1.0000   1.0000   1.0000   1.0000   1.0000   1.0000   1.0000
     1.0000   1.0000   1.0000   1.0000   1.0000   1.0000   1.0000   1.0000
     1.0000   1.0000   1.0000   1.0000   1.0000   1.0000   1.0000   1.0000
     1.0000   1.0000   1.0000   1.0000   1.0000   1.0000   1.0000   1.0000
     0.0000   0.0000   0.0000   0.0000   0.0000   0.0000   0.0000   0.0000
     0.0000   0.0000

          k = 0.3333 1.0186 0.3202 (  8537 PWs)   bands (ev):

   -13.2605 -13.2587 -13.2571 -13.2553 -13.2422 -13.2411 -13.2407 -13.2387
   -13.2326 -13.2324 -13.2259 -13.2227 -13.2128 -13.2096 -13.2005 -13.2001
   -13.1842 -13.1816 -13.1755 -13.1750  -4.9800  -4.8825  -4.4468  -4.3837
     0.4362   0.7935   1.0886   1.3441   4.2668   4.4029   4.8426   5.2184
     5.5511   5.7472   6.0563   6.4141   6.7036   6.8439   7.2022   7.3728
     9.4639   9.5403   9.7797   9.9317  10.8268  10.8491  11.2277  11.5109
    11.8855  12.4354

     occupation numbers 
     1.0000   1.0000   1.0000   1.0000   1.0000   1.0000   1.0000   1.0000
     1.0000   1.0000   1.0000   1.0000   1.0000   1.0000   1.0000   1.0000
     1.0000   1.0000   1.0000   1.0000   1.0000   1.0000   1.0000   1.0000
     1.0000   1.0000   1.0000   1.0000   1.0000   1.0000   1.0000   1.0000
     1.0000   1.0000   1.0000   1.0000   1.0000   1.0000   1.0000   1.0000
     0.0000   0.0000   0.0000   0.0000   0.0000   0.0000   0.0000   0.0000
     0.0000   0.0000

          k = 0.3333 1.0186 0.6403 (  8526 PWs)   bands (ev):

   -13.2643 -13.2625 -13.2604 -13.2588 -13.2416 -13.2397 -13.2392 -13.2380
   -13.2315 -13.2312 -13.2240 -13.2216 -13.2115 -13.2093 -13.1999 -13.1994
   -13.1841 -13.1821 -13.1750 -13.1746  -4.8456  -4.7582  -4.4149  -4.3565
     0.6138   0.9624   1.2508   1.3869   3.6323   3.8354   4.5814   4.6456
     4.8045   5.3274   5.6353   6.0974   6.1644   6.6122   6.8867   7.3433
     9.6857  10.2694  10.4650  10.8685  11.1957  11.3692  12.0764  12.1744
    12.2570  12.5548

     occupation numbers 
     1.0000   1.0000   1.0000   1.0000   1.0000   1.0000   1.0000   1.0000
     1.0000   1.0000   1.0000   1.0000   1.0000   1.0000   1.0000   1.0000
     1.0000   1.0000   1.0000   1.0000   1.0000   1.0000   1.0000   1.0000
     1.0000   1.0000   1.0000   1.0000   1.0000   1.0000   1.0000   1.0000
     1.0000   1.0000   1.0000   1.0000   1.0000   1.0000   1.0000   1.0000
     0.0000   0.0000   0.0000   0.0000   0.0000   0.0000   0.0000   0.0000
     0.0000   0.0000

          k = 0.3333 1.0186 0.9605 (  8501 PWs)   bands (ev):

   -13.2677 -13.2666 -13.2633 -13.2624 -13.2408 -13.2394 -13.2378 -13.2372
   -13.2304 -13.2301 -13.2222 -13.2208 -13.2098 -13.2088 -13.1991 -13.1988
   -13.1837 -13.1826 -13.1746 -13.1743  -4.6727  -4.6031  -4.4094  -4.3574
     0.8002   1.0219   1.4799   1.4993   3.2627   3.5148   3.9394   4.2927
     4.4064   4.8397   4.9990   5.5918   6.0127   6.4878   6.7080   6.9980
    10.0942  10.7194  11.0406  11.3915  11.5475  11.8702  12.6948  12.8060
    13.0923  13.2600

     occupation numbers 
     1.0000   1.0000   1.0000   1.0000   1.0000   1.0000   1.0000   1.0000
     1.0000   1.0000   1.0000   1.0000   1.0000   1.0000   1.0000   1.0000
     1.0000   1.0000   1.0000   1.0000   1.0000   1.0000   1.0000   1.0000
     1.0000   1.0000   1.0000   1.0000   1.0000   1.0000   1.0000   1.0000
     1.0000   1.0000   1.0000   1.0000   1.0000   1.0000   1.0000   1.0000
     0.0000   0.0000   0.0000   0.0000   0.0000   0.0000   0.0000   0.0000
     0.0000   0.0000

          k = 0.3333 1.0186-1.2807 (  8488 PWs)   bands (ev):

   -13.2687 -13.2687 -13.2641 -13.2641 -13.2400 -13.2400 -13.2370 -13.2370
   -13.2298 -13.2298 -13.2209 -13.2209 -13.2087 -13.2087 -13.1986 -13.1986
   -13.1832 -13.1832 -13.1742 -13.1742  -4.5407  -4.5407  -4.4094  -4.4094
     0.9303   0.9303   1.6023   1.6023   3.3817   3.3817   3.6944   3.6944
     4.5299   4.5299   5.0582   5.0582   6.2047   6.2047   6.8054   6.8054
    10.3730  10.3730  11.2926  11.2926  12.4615  12.4615  12.5949  12.5949
    13.8769  13.8770

     occupation numbers 
     1.0000   1.0000   1.0000   1.0000   1.0000   1.0000   1.0000   1.0000
     1.0000   1.0000   1.0000   1.0000   1.0000   1.0000   1.0000   1.0000
     1.0000   1.0000   1.0000   1.0000   1.0000   1.0000   1.0000   1.0000
     1.0000   1.0000   1.0000   1.0000   1.0000   1.0000   1.0000   1.0000
     1.0000   1.0000   1.0000   1.0000   1.0000   1.0000   1.0000   1.0000
     0.0000   0.0000   0.0000   0.0000   0.0000   0.0000   0.0000   0.0000
     0.0000   0.0000

          k = 0.3333-1.3581 0.0000 (  8554 PWs)   bands (ev):

   -13.2589 -13.2589 -13.2570 -13.2570 -13.2404 -13.2404 -13.2396 -13.2396
   -13.2285 -13.2285 -13.2267 -13.2267 -13.2080 -13.2080 -13.2056 -13.2056
   -13.1792 -13.1792 -13.1778 -13.1778  -4.6696  -4.6696  -4.6379  -4.6379
     0.5056   0.5056   0.8471   0.8471   4.8992   4.8992   5.6537   5.6537
     5.9020   5.9020   6.1148   6.1148   7.0126   7.0126   7.1682   7.1682
     9.3737   9.3737   9.6787   9.6787  10.0650  10.0650  10.4229  10.4229
    11.5381  11.5382

     occupation numbers 
     1.0000   1.0000   1.0000   1.0000   1.0000   1.0000   1.0000   1.0000
     1.0000   1.0000   1.0000   1.0000   1.0000   1.0000   1.0000   1.0000
     1.0000   1.0000   1.0000   1.0000   1.0000   1.0000   1.0000   1.0000
     1.0000   1.0000   1.0000   1.0000   1.0000   1.0000   1.0000   1.0000
     1.0000   1.0000   1.0000   1.0000   1.0000   1.0000   1.0000   1.0000
     0.0000   0.0000   0.0000   0.0000   0.0000   0.0000   0.0000   0.0000
     0.0000   0.0000

          k = 0.3333-1.3581 0.3202 (  8548 PWs)   bands (ev):

   -13.2607 -13.2607 -13.2585 -13.2585 -13.2401 -13.2401 -13.2387 -13.2387
   -13.2283 -13.2283 -13.2262 -13.2262 -13.2081 -13.2081 -13.2048 -13.2048
   -13.1794 -13.1794 -13.1776 -13.1776  -4.6358  -4.6358  -4.6062  -4.6062
     0.5917   0.5917   0.9164   0.9164   4.7208   4.7208   5.0038   5.0038
     5.5531   5.5531   6.0972   6.0972   6.8273   6.8273   7.1325   7.1325
     9.4450   9.4450   9.7393   9.7393  10.8527  10.8527  11.2388  11.2388
    11.8491  11.8491

     occupation numbers 
     1.0000   1.0000   1.0000   1.0000   1.0000   1.0000   1.0000   1.0000
     1.0000   1.0000   1.0000   1.0000   1.0000   1.0000   1.0000   1.0000
     1.0000   1.0000   1.0000   1.0000   1.0000   1.0000   1.0000   1.0000
     1.0000   1.0000   1.0000   1.0000   1.0000   1.0000   1.0000   1.0000
     1.0000   1.0000   1.0000   1.0000   1.0000   1.0000   1.0000   1.0000
     0.0000   0.0000   0.0000   0.0000   0.0000   0.0000   0.0000   0.0000
     0.0000   0.0000

          k = 0.3333-1.3581 0.6403 (  8532 PWs)   bands (ev):

   -13.2650 -13.2650 -13.2621 -13.2621 -13.2394 -13.2394 -13.2372 -13.2372
   -13.2275 -13.2275 -13.2251 -13.2251 -13.2077 -13.2077 -13.2032 -13.2032
   -13.1796 -13.1796 -13.1770 -13.1770  -4.5509  -4.5509  -4.5275  -4.5275
     0.8305   0.8305   1.0990   1.0990   4.0318   4.0318   4.2849   4.2849
     5.0578   5.0578   5.6398   5.6398   6.2834   6.2834   6.9206   6.9206
    10.0362  10.0362  10.8887  10.8887  11.4816  11.4816  11.8228  11.8228
    12.8095  12.8095

     occupation numbers 
     1.0000   1.0000   1.0000   1.0000   1.0000   1.0000   1.0000   1.0000
     1.0000   1.0000   1.0000   1.0000   1.0000   1.0000   1.0000   1.0000
     1.0000   1.0000   1.0000   1.0000   1.0000   1.0000   1.0000   1.0000
     1.0000   1.0000   1.0000   1.0000   1.0000   1.0000   1.0000   1.0000
     1.0000   1.0000   1.0000   1.0000   1.0000   1.0000   1.0000   1.0000
     0.0000   0.0000   0.0000   0.0000   0.0000   0.0000   0.0000   0.0000
     0.0000   0.0000

          k = 0.3333-1.3581 0.9605 (  8524 PWs)   bands (ev):

   -13.2691 -13.2691 -13.2656 -13.2656 -13.2390 -13.2390 -13.2361 -13.2361
   -13.2265 -13.2265 -13.2240 -13.2240 -13.2068 -13.2068 -13.2017 -13.2017
   -13.1797 -13.1797 -13.1766 -13.1766  -4.4601  -4.4601  -4.4465  -4.4465
     1.1406   1.1406   1.3043   1.3043   3.4383   3.4383   3.8051   3.8051
     4.4399   4.4399   4.9481   4.9481   6.2263   6.2263   6.7845   6.7845
    10.4363  10.4363  11.0979  11.0979  12.3411  12.3411  12.4058  12.4058
    13.9353  13.9353

     occupation numbers 
     1.0000   1.0000   1.0000   1.0000   1.0000   1.0000   1.0000   1.0000
     1.0000   1.0000   1.0000   1.0000   1.0000   1.0000   1.0000   1.0000
     1.0000   1.0000   1.0000   1.0000   1.0000   1.0000   1.0000   1.0000
     1.0000   1.0000   1.0000   1.0000   1.0000   1.0000   1.0000   1.0000
     1.0000   1.0000   1.0000   1.0000   1.0000   1.0000   1.0000   1.0000
     0.0000   0.0000   0.0000   0.0000   0.0000   0.0000   0.0000   0.0000
     0.0000   0.0000

          k = 0.3333-1.3581-1.2807 (  8488 PWs)   bands (ev):

   -13.2707 -13.2707 -13.2671 -13.2671 -13.2389 -13.2389 -13.2358 -13.2358
   -13.2260 -13.2260 -13.2236 -13.2236 -13.2064 -13.2064 -13.2011 -13.2011
   -13.1796 -13.1796 -13.1765 -13.1765  -4.4189  -4.4189  -4.4139  -4.4139
     1.3138   1.3138   1.3876   1.3876   3.2436   3.2436   3.6129   3.6129
     4.1999   4.1999   4.5806   4.5806   6.3021   6.3021   6.7195   6.7195
    10.6050  10.6050  10.8280  10.8280  12.8410  12.8410  12.8651  12.8651
    14.4536  14.4536

     occupation numbers 
     1.0000   1.0000   1.0000   1.0000   1.0000   1.0000   1.0000   1.0000
     1.0000   1.0000   1.0000   1.0000   1.0000   1.0000   1.0000   1.0000
     1.0000   1.0000   1.0000   1.0000   1.0000   1.0000   1.0000   1.0000
     1.0000   1.0000   1.0000   1.0000   1.0000   1.0000   1.0000   1.0000
     1.0000   1.0000   1.0000   1.0000   1.0000   1.0000   1.0000   1.0000
     0.0000   0.0000   0.0000   0.0000   0.0000   0.0000   0.0000   0.0000
     0.0000   0.0000

     highest occupied, lowest unoccupied level (ev):     8.0307    8.8497

!    total energy              =    -827.74300014 Ry
     estimated scf accuracy    <          1.0E-09 Ry

     The total energy is the sum of the following terms:
     one-electron contribution =    -257.00262886 Ry
     hartree contribution      =     179.10534880 Ry
     xc contribution           =    -309.11887052 Ry
     ewald contribution        =    -440.60481620 Ry
     DFT-D3 Dispersion         =      -0.12203337 Ry

     convergence has been achieved in   9 iterations

     Forces acting on atoms (cartesian axes, Ry/au):

     atom    1 type  2   force =     0.00783033    0.00000000    0.00013177
     atom    2 type  1   force =    -0.00861338    0.00000000   -0.00054505
     atom    3 type  2   force =    -0.00783033    0.00000000    0.00013177
     atom    4 type  1   force =     0.00861338    0.00000000   -0.00054505
     atom    5 type  2   force =     0.00783033   -0.00000000   -0.00013177
     atom    6 type  1   force =    -0.00861338   -0.00000000    0.00054505
     atom    7 type  2   force =    -0.00783033   -0.00000000   -0.00013177
     atom    8 type  1   force =     0.00861338    0.00000000    0.00054505
     The non-local contrib.  to forces
     atom    1 type  2   force =    -0.11461342    0.00000000    0.09754359
     atom    2 type  1   force =     0.36492875    0.00000000    0.26961897
     atom    3 type  2   force =     0.11461342    0.00000000    0.09754359
     atom    4 type  1   force =    -0.36492875    0.00000000    0.26961897
     atom    5 type  2   force =    -0.11461342    0.00000000   -0.09754359
     atom    6 type  1   force =     0.36492875    0.00000000   -0.26961897
     atom    7 type  2   force =     0.11461342    0.00000000   -0.09754359
     atom    8 type  1   force =    -0.36492875    0.00000000   -0.26961897
     The ionic contribution  to forces
     atom    1 type  2   force =     1.53473235    0.00000000   -1.05154455
     atom    2 type  1   force =    -1.03769718    0.00000000   -0.57506129
     atom    3 type  2   force =    -1.53473235   -0.00000000   -1.05154455
     atom    4 type  1   force =     1.03769718   -0.00000000   -0.57506129
     atom    5 type  2   force =     1.53473235    0.00000000    1.05154455
     atom    6 type  1   force =    -1.03769718    0.00000000    0.57506129
     atom    7 type  2   force =    -1.53473235   -0.00000000    1.05154455
     atom    8 type  1   force =     1.03769718    0.00000000    0.57506129
     The local contribution  to forces
     atom    1 type  2   force =    -1.42407689    0.00000000    0.96371852
     atom    2 type  1   force =     0.67027258   -0.00000000    0.30844532
     atom    3 type  2   force =     1.42407689   -0.00000000    0.96371852
     atom    4 type  1   force =    -0.67027258    0.00000000    0.30844532
     atom    5 type  2   force =    -1.42407689   -0.00000000   -0.96371852
     atom    6 type  1   force =     0.67027258    0.00000000   -0.30844532
     atom    7 type  2   force =     1.42407689    0.00000000   -0.96371852
     atom    8 type  1   force =    -0.67027258    0.00000000   -0.30844532
     The core correction contribution to forces
     atom    1 type  2   force =     0.01254544   -0.00000000   -0.01077990
     atom    2 type  1   force =    -0.00551146    0.00000000   -0.00447323
     atom    3 type  2   force =    -0.01254544   -0.00000000   -0.01077990
     atom    4 type  1   force =     0.00551146    0.00000000   -0.00447323
     atom    5 type  2   force =     0.01254544   -0.00000000    0.01077990
     atom    6 type  1   force =    -0.00551146   -0.00000000    0.00447323
     atom    7 type  2   force =    -0.01254544   -0.00000000    0.01077990
     atom    8 type  1   force =     0.00551146   -0.00000000    0.00447323
     The Hubbard contrib.    to forces
     atom    1 type  2   force =     0.00000000    0.00000000    0.00000000
     atom    2 type  1   force =     0.00000000    0.00000000    0.00000000
     atom    3 type  2   force =     0.00000000    0.00000000    0.00000000
     atom    4 type  1   force =     0.00000000    0.00000000    0.00000000
     atom    5 type  2   force =     0.00000000    0.00000000    0.00000000
     atom    6 type  1   force =     0.00000000    0.00000000    0.00000000
     atom    7 type  2   force =     0.00000000    0.00000000    0.00000000
     atom    8 type  1   force =     0.00000000    0.00000000    0.00000000
     The SCF correction term to forces
     atom    1 type  2   force =     0.00002747   -0.00000000    0.00000044
     atom    2 type  1   force =    -0.00005103   -0.00000000    0.00003035
     atom    3 type  2   force =    -0.00002747   -0.00000000    0.00000044
     atom    4 type  1   force =     0.00005103    0.00000000    0.00003035
     atom    5 type  2   force =     0.00002747   -0.00000000   -0.00000044
     atom    6 type  1   force =    -0.00005103   -0.00000000   -0.00003035
     atom    7 type  2   force =    -0.00002747    0.00000000   -0.00000044
     atom    8 type  1   force =     0.00005103   -0.00000000   -0.00003035

     DFT-D3 dispersion contribution to forces:
     atom    1 type  2   force =    -0.00078462   -0.00000000    0.00119368
     atom    2 type  1   force =    -0.00055504    0.00000000    0.00089483
     atom    3 type  2   force =     0.00078462    0.00000000    0.00119368
     atom    4 type  1   force =     0.00055504   -0.00000000    0.00089483
     atom    5 type  2   force =    -0.00078462   -0.00000000   -0.00119368
     atom    6 type  1   force =    -0.00055504   -0.00000000   -0.00089483
     atom    7 type  2   force =     0.00078462    0.00000000   -0.00119368
     atom    8 type  1   force =     0.00055504    0.00000000   -0.00089483

     Total force =     0.023308     Total SCF correction =     0.000131

     DFT-D3 dispersion Force =     0.003549

     Writing output data file ./tmp/SnSe_pnma.save/

     init_run     :     10.74s CPU     13.19s WALL (       1 calls)
     electrons    :    316.46s CPU    352.72s WALL (       1 calls)
     forces       :      7.77s CPU      9.27s WALL (       1 calls)

     Called by init_run:
     wfcinit      :      6.67s CPU      8.02s WALL (       1 calls)
     wfcinit:atom :      0.07s CPU      0.06s WALL (      17 calls)
     wfcinit:wfcr :      6.15s CPU      7.58s WALL (      17 calls)
     potinit      :      1.17s CPU      1.26s WALL (       1 calls)
     hinit0       :      1.86s CPU      1.89s WALL (       1 calls)

     Called by electrons:
     c_bands      :    268.29s CPU    296.84s WALL (       9 calls)
     sum_band     :     32.45s CPU     35.33s WALL (       9 calls)
     v_of_rho     :      3.44s CPU      4.02s WALL (      10 calls)
     v_h          :      0.29s CPU      0.34s WALL (      10 calls)
     v_xc         :      3.43s CPU      4.02s WALL (      11 calls)
     newd         :     12.03s CPU     17.33s WALL (      10 calls)
     mix_rho      :      0.61s CPU      0.61s WALL (       9 calls)

     Called by c_bands:
     init_us_2    :      2.07s CPU      1.84s WALL (     340 calls)
     cegterg      :    187.18s CPU    218.32s WALL (     153 calls)

     Called by sum_band:
     sum_band:wei :      0.02s CPU      0.01s WALL (       9 calls)
     sum_band:loo :     24.46s CPU     26.42s WALL (       9 calls)
     sum_band:buf :      0.22s CPU      0.18s WALL (     153 calls)
     sum_band:ini :      0.92s CPU      0.79s WALL (     153 calls)
     sum_band:cal :      8.48s CPU     11.53s WALL (     153 calls)
     sum_band:bec :      0.02s CPU      0.02s WALL (     153 calls)
     addusdens    :      5.60s CPU      6.51s WALL (       9 calls)
     addusd:skk   :      0.02s CPU      0.03s WALL (      18 calls)
     addusd:dgemm :      1.90s CPU      2.30s WALL (      18 calls)
     addusd:qvan2 :      3.12s CPU      3.06s WALL (      18 calls)

     Called by *egterg:
     cdiaghg      :     16.63s CPU     41.21s WALL (     660 calls)
     cegterg:over :     30.86s CPU     44.00s WALL (     507 calls)
     cegterg:upda :      5.87s CPU      4.50s WALL (     507 calls)
     cegterg:last :      9.94s CPU      4.93s WALL (     321 calls)
     h_psi        :    105.66s CPU    106.61s WALL (     677 calls)
     s_psi        :     11.12s CPU      5.12s WALL (     677 calls)
     g_psi        :      0.70s CPU      0.58s WALL (     507 calls)

     Called by h_psi:
     h_psi:calbec :     23.91s CPU     33.08s WALL (     677 calls)
     vloc_psi     :     69.65s CPU     67.58s WALL (     677 calls)
     add_vuspsi   :     11.52s CPU      5.30s WALL (     677 calls)

     General routines
     calbec       :     34.37s CPU     47.25s WALL (     898 calls)
     fft          :      3.28s CPU      3.56s WALL (     139 calls)
     ffts         :      0.11s CPU      0.11s WALL (      19 calls)
     fftw         :     71.91s CPU     69.39s WALL (   49178 calls)
     interpolate  :      0.32s CPU      0.33s WALL (      10 calls)

     Parallel routines
     fft_scatt_xy :     14.20s CPU     13.62s WALL (   49336 calls)
     fft_scatt_yz :     16.85s CPU     17.00s WALL (   49336 calls)

     PWSCF        :   5m35.25s CPU   6m15.70s WALL


   This run was terminated on:  21:23: 2  18May2026            

=------------------------------------------------------------------------------=
   JOB DONE.
=------------------------------------------------------------------------------=
