
     Program PWSCF v.6.7MaX starts on 18May2026 at 22:59:38 

     This program is part of the open-source Quantum ESPRESSO suite
     for quantum simulation of materials; please cite
         "P. Giannozzi et al., J. Phys.:Condens. Matter 21 395502 (2009);
         "P. Giannozzi et al., J. Phys.:Condens. Matter 29 465901 (2017);
          URL http://www.quantum-espresso.org", 
     in publications or presentations arising from this work. More details at
     http://www.quantum-espresso.org/quote

     Parallel version (MPI), running on     6 processors

     MPI processes distributed on     1 nodes
     K-points division:     npool     =       3
     R & G space division:  proc/nbgrp/npool/nimage =       2
     Waiting for input...
     Reading input from standard input

     Current dimensions of program PWSCF are:
     Max number of different atomic species (ntypx) = 10
     Max number of k-points (npk) =  40000
     Max angular momentum in pseudopotentials (lmaxx) =  3

     --------------------------------------------
     Parameters for DFT-D3 Dispersion Correction:
     --------------------------------------------
       Reference C6 values for interpolation: 

         atom   Coordination number   C6
         Se         0.000           427.35
         Se         0.990           427.57
         Se         1.981           421.05
         Sn         0.000          1255.14
         Sn         0.951          1084.09
         Sn         1.950          1010.83
         Sn         2.926           818.29
         Sn         3.912           672.20

       Values used:

         atom   Coordination number  R0_AB[au]  C6      C8
         Se         3.637            3.332    421.05  29958.36
         Sn         4.405            3.957    672.26  84376.19
         Se         3.637            3.332    421.05  29958.36
         Sn         4.405            3.957    672.26  84376.19
         Se         3.637            3.332    421.05  29958.36
         Sn         4.405            3.957    672.26  84376.19
         Se         3.637            3.332    421.05  29958.36
         Sn         4.405            3.957    672.26  84376.19

         Molecular C6 ( Ry / a.u.^6 ) =     34497.83


     Subspace diagonalization in iterative solution of the eigenvalue problem:
     a serial algorithm will be used


     Parallelization info
     --------------------
     sticks:   dense  smooth     PW     G-vecs:    dense   smooth      PW
     Min        4741    1890    541               222996    56406    8574
     Max        4742    1891    542               222997    56407    8575
     Sum        9483    3781   1083               445993   112813   17149



     bravais-lattice index     =            8
     lattice parameter (alat)  =      21.4862  a.u.
     unit-cell volume          =    1425.7436 (a.u.)^3
     number of atoms/cell      =            8
     number of atomic types    =            2
     number of electrons       =        80.00
     number of Kohn-Sham states=           50
     kinetic-energy cutoff     =      70.0000  Ry
     charge density cutoff     =     700.0000  Ry
     scf convergence threshold =      1.0E-08
     mixing beta               =       0.7000
     number of iterations used =            8  plain     mixing
     Exchange-correlation= SLA  PW   PBE  PBE
                           (   1   4   3   4   0   0   0)

     celldm(1)=  21.486186  celldm(2)=   0.368162  celldm(3)=   0.390413
     celldm(4)=   0.000000  celldm(5)=   0.000000  celldm(6)=   0.000000

     crystal axes: (cart. coord. in units of alat)
               a(1) = (   1.000000   0.000000   0.000000 )  
               a(2) = (   0.000000   0.368162   0.000000 )  
               a(3) = (   0.000000   0.000000   0.390413 )  

     reciprocal axes: (cart. coord. in units 2 pi/alat)
               b(1) = (  1.000000  0.000000  0.000000 )  
               b(2) = (  0.000000  2.716197  0.000000 )  
               b(3) = (  0.000000  0.000000  2.561388 )  


     PseudoPot. # 1 for Sn read from file:
     ../pseudo/Sn_pbe_v1.uspp.F.UPF
     MD5 check sum: 4cf58ce39ec5d5d420df3dd08604eb00
     Pseudo is Ultrasoft + core correction, Zval = 14.0
     Generated by new atomic code, or converted to UPF format
     Using radial grid of  891 points,  6 beta functions with: 
                l(1) =   0
                l(2) =   0
                l(3) =   1
                l(4) =   1
                l(5) =   2
                l(6) =   2
     Q(r) pseudized with  6 coefficients,  rinner =    1.200   1.200   1.200
                                                       1.200   1.200

     PseudoPot. # 2 for Se read from file:
     ../pseudo/Se_pbe_v1.uspp.F.UPF
     MD5 check sum: 1b3568f3a8ae88f9a2a0ad0698632c85
     Pseudo is Ultrasoft + core correction, Zval =  6.0
     Generated by new atomic code, or converted to UPF format
     Using radial grid of  877 points,  6 beta functions with: 
                l(1) =   0
                l(2) =   0
                l(3) =   1
                l(4) =   1
                l(5) =   2
                l(6) =   2
     Q(r) pseudized with  8 coefficients,  rinner =    1.300   1.300   1.300
                                                       1.300   1.300

     atomic species   valence    mass     pseudopotential
        Sn            14.00   118.71000     Sn( 1.00)
        Se             6.00    78.97100     Se( 1.00)

      8 Sym. Ops., with inversion, found ( 6 have fractional translation)


                                    s                        frac. trans.

      isym =  1     identity                                     

 cryst.   s( 1) = (     1          0          0      )
                  (     0          1          0      )
                  (     0          0          1      )

 cart.    s( 1) = (  1.0000000  0.0000000  0.0000000 )
                  (  0.0000000  1.0000000  0.0000000 )
                  (  0.0000000  0.0000000  1.0000000 )


      isym =  2     180 deg rotation - cart. axis [0,0,1]        

 cryst.   s( 2) = (    -1          0          0      )    f =(  0.5000000 )
                  (     0         -1          0      )       (  0.0000000 )
                  (     0          0          1      )       (  0.5000000 )

 cart.    s( 2) = ( -1.0000000  0.0000000  0.0000000 )    f =(  0.5000000 )
                  (  0.0000000 -1.0000000  0.0000000 )       (  0.0000000 )
                  (  0.0000000  0.0000000  1.0000000 )       (  0.1952067 )


      isym =  3     180 deg rotation - cart. axis [0,1,0]        

 cryst.   s( 3) = (    -1          0          0      )    f =( -0.0000000 )
                  (     0          1          0      )       ( -0.5000000 )
                  (     0          0         -1      )       (  0.0000000 )

 cart.    s( 3) = ( -1.0000000  0.0000000  0.0000000 )    f =( -0.0000000 )
                  (  0.0000000  1.0000000  0.0000000 )       ( -0.1840809 )
                  (  0.0000000  0.0000000 -1.0000000 )       (  0.0000000 )


      isym =  4     180 deg rotation - cart. axis [1,0,0]        

 cryst.   s( 4) = (     1          0          0      )    f =(  0.5000000 )
                  (     0         -1          0      )       (  0.5000000 )
                  (     0          0         -1      )       (  0.5000000 )

 cart.    s( 4) = (  1.0000000  0.0000000  0.0000000 )    f =(  0.5000000 )
                  (  0.0000000 -1.0000000  0.0000000 )       (  0.1840809 )
                  (  0.0000000  0.0000000 -1.0000000 )       (  0.1952067 )


      isym =  5     inversion                                    

 cryst.   s( 5) = (    -1          0          0      )
                  (     0         -1          0      )
                  (     0          0         -1      )

 cart.    s( 5) = ( -1.0000000  0.0000000  0.0000000 )
                  (  0.0000000 -1.0000000  0.0000000 )
                  (  0.0000000  0.0000000 -1.0000000 )


      isym =  6     inv. 180 deg rotation - cart. axis [0,0,1]   

 cryst.   s( 6) = (     1          0          0      )    f =(  0.5000000 )
                  (     0          1          0      )       (  0.0000000 )
                  (     0          0         -1      )       (  0.5000000 )

 cart.    s( 6) = (  1.0000000  0.0000000  0.0000000 )    f =(  0.5000000 )
                  (  0.0000000  1.0000000  0.0000000 )       (  0.0000000 )
                  (  0.0000000  0.0000000 -1.0000000 )       (  0.1952067 )


      isym =  7     inv. 180 deg rotation - cart. axis [0,1,0]   

 cryst.   s( 7) = (     1          0          0      )    f =(  0.0000000 )
                  (     0         -1          0      )       (  0.5000000 )
                  (     0          0          1      )       (  0.0000000 )

 cart.    s( 7) = (  1.0000000  0.0000000  0.0000000 )    f =(  0.0000000 )
                  (  0.0000000 -1.0000000  0.0000000 )       (  0.1840809 )
                  (  0.0000000  0.0000000  1.0000000 )       (  0.0000000 )


      isym =  8     inv. 180 deg rotation - cart. axis [1,0,0]   

 cryst.   s( 8) = (    -1          0          0      )    f =(  0.5000000 )
                  (     0          1          0      )       ( -0.5000000 )
                  (     0          0          1      )       (  0.5000000 )

 cart.    s( 8) = ( -1.0000000  0.0000000  0.0000000 )    f =(  0.5000000 )
                  (  0.0000000  1.0000000  0.0000000 )       ( -0.1840809 )
                  (  0.0000000  0.0000000  1.0000000 )       (  0.1952067 )


     point group D_2h (mmm) 
     there are  8 classes
     the character table:

       E     C2    C2'   C2''  i     s_v   s_v'  s_v''
A_g    1.00  1.00  1.00  1.00  1.00  1.00  1.00  1.00
B_1g   1.00  1.00 -1.00 -1.00  1.00  1.00 -1.00 -1.00
B_2g   1.00 -1.00  1.00 -1.00  1.00 -1.00  1.00 -1.00
B_3g   1.00 -1.00 -1.00  1.00  1.00 -1.00 -1.00  1.00
A_u    1.00  1.00  1.00  1.00 -1.00 -1.00 -1.00 -1.00
B_1u   1.00  1.00 -1.00 -1.00 -1.00 -1.00  1.00  1.00
B_2u   1.00 -1.00  1.00 -1.00 -1.00  1.00 -1.00  1.00
B_3u   1.00 -1.00 -1.00  1.00 -1.00  1.00  1.00 -1.00

     the symmetry operations in each class and the name of the first element:

     E        1
          identity                                               
     C2       2
          180 deg rotation - cart. axis [0,0,1]                  
     C2'      4
          180 deg rotation - cart. axis [1,0,0]                  
     C2''     3
          180 deg rotation - cart. axis [0,1,0]                  
     i        5
          inversion                                              
     s_v      6
          inv. 180 deg rotation - cart. axis [0,0,1]             
     s_v'     8
          inv. 180 deg rotation - cart. axis [1,0,0]             
     s_v''    7
          inv. 180 deg rotation - cart. axis [0,1,0]             

   Cartesian axes

     site n.     atom                  positions (alat units)
         1           Se  tau(   1) = (   0.8555000   0.0920405   0.1884916  )
         2           Sn  tau(   2) = (   0.1187000   0.0920405   0.0385728  )
         3           Se  tau(   3) = (   0.6445000   0.2761214   0.3836983  )
         4           Sn  tau(   4) = (   0.3813000   0.2761214   0.2337795  )
         5           Se  tau(   5) = (   0.3555000   0.0920405   0.0067151  )
         6           Sn  tau(   6) = (   0.6187000   0.0920405   0.1566338  )
         7           Se  tau(   7) = (   0.1445000   0.2761214   0.2019218  )
         8           Sn  tau(   8) = (   0.8813000   0.2761214   0.3518405  )

   Crystallographic axes

     site n.     atom                  positions (cryst. coord.)
         1           Se  tau(   1) = (  0.8555000  0.2500000  0.4828000  )
         2           Sn  tau(   2) = (  0.1187000  0.2500000  0.0988000  )
         3           Se  tau(   3) = (  0.6445000  0.7500000  0.9828000  )
         4           Sn  tau(   4) = (  0.3813000  0.7500000  0.5988000  )
         5           Se  tau(   5) = (  0.3555000  0.2500000  0.0172000  )
         6           Sn  tau(   6) = (  0.6187000  0.2500000  0.4012000  )
         7           Se  tau(   7) = (  0.1445000  0.7500000  0.5172000  )
         8           Sn  tau(   8) = (  0.8813000  0.7500000  0.9012000  )

     number of k points=    50
                       cart. coord. in units 2pi/alat
        k(    1) = (   0.0000000   0.0000000   0.0000000), wk =   0.0104167
        k(    2) = (   0.0000000   0.0000000   0.3201735), wk =   0.0208333
        k(    3) = (   0.0000000   0.0000000   0.6403469), wk =   0.0208333
        k(    4) = (   0.0000000   0.0000000   0.9605204), wk =   0.0208333
        k(    5) = (   0.0000000   0.0000000  -1.2806938), wk =   0.0104167
        k(    6) = (   0.0000000   0.3395246   0.0000000), wk =   0.0208333
        k(    7) = (   0.0000000   0.3395246   0.3201735), wk =   0.0416667
        k(    8) = (   0.0000000   0.3395246   0.6403469), wk =   0.0416667
        k(    9) = (   0.0000000   0.3395246   0.9605204), wk =   0.0416667
        k(   10) = (   0.0000000   0.3395246  -1.2806938), wk =   0.0208333
        k(   11) = (   0.0000000   0.6790492   0.0000000), wk =   0.0208333
        k(   12) = (   0.0000000   0.6790492   0.3201735), wk =   0.0416667
        k(   13) = (   0.0000000   0.6790492   0.6403469), wk =   0.0416667
        k(   14) = (   0.0000000   0.6790492   0.9605204), wk =   0.0416667
        k(   15) = (   0.0000000   0.6790492  -1.2806938), wk =   0.0208333
        k(   16) = (   0.0000000   1.0185738   0.0000000), wk =   0.0208333
        k(   17) = (   0.0000000   1.0185738   0.3201735), wk =   0.0416667
        k(   18) = (   0.0000000   1.0185738   0.6403469), wk =   0.0416667
        k(   19) = (   0.0000000   1.0185738   0.9605204), wk =   0.0416667
        k(   20) = (   0.0000000   1.0185738  -1.2806938), wk =   0.0208333
        k(   21) = (   0.0000000  -1.3580984   0.0000000), wk =   0.0104167
        k(   22) = (   0.0000000  -1.3580984   0.3201735), wk =   0.0208333
        k(   23) = (   0.0000000  -1.3580984   0.6403469), wk =   0.0208333
        k(   24) = (   0.0000000  -1.3580984   0.9605204), wk =   0.0208333
        k(   25) = (   0.0000000  -1.3580984  -1.2806938), wk =   0.0104167
        k(   26) = (   0.3333333   0.0000000   0.0000000), wk =   0.0208333
        k(   27) = (   0.3333333   0.0000000   0.3201735), wk =   0.0416667
        k(   28) = (   0.3333333   0.0000000   0.6403469), wk =   0.0416667
        k(   29) = (   0.3333333   0.0000000   0.9605204), wk =   0.0416667
        k(   30) = (   0.3333333   0.0000000  -1.2806938), wk =   0.0208333
        k(   31) = (   0.3333333   0.3395246   0.0000000), wk =   0.0416667
        k(   32) = (   0.3333333   0.3395246   0.3201735), wk =   0.0833333
        k(   33) = (   0.3333333   0.3395246   0.6403469), wk =   0.0833333
        k(   34) = (   0.3333333   0.3395246   0.9605204), wk =   0.0833333
        k(   35) = (   0.3333333   0.3395246  -1.2806938), wk =   0.0416667
        k(   36) = (   0.3333333   0.6790492   0.0000000), wk =   0.0416667
        k(   37) = (   0.3333333   0.6790492   0.3201735), wk =   0.0833333
        k(   38) = (   0.3333333   0.6790492   0.6403469), wk =   0.0833333
        k(   39) = (   0.3333333   0.6790492   0.9605204), wk =   0.0833333
        k(   40) = (   0.3333333   0.6790492  -1.2806938), wk =   0.0416667
        k(   41) = (   0.3333333   1.0185738   0.0000000), wk =   0.0416667
        k(   42) = (   0.3333333   1.0185738   0.3201735), wk =   0.0833333
        k(   43) = (   0.3333333   1.0185738   0.6403469), wk =   0.0833333
        k(   44) = (   0.3333333   1.0185738   0.9605204), wk =   0.0833333
        k(   45) = (   0.3333333   1.0185738  -1.2806938), wk =   0.0416667
        k(   46) = (   0.3333333  -1.3580984   0.0000000), wk =   0.0208333
        k(   47) = (   0.3333333  -1.3580984   0.3201735), wk =   0.0416667
        k(   48) = (   0.3333333  -1.3580984   0.6403469), wk =   0.0416667
        k(   49) = (   0.3333333  -1.3580984   0.9605204), wk =   0.0416667
        k(   50) = (   0.3333333  -1.3580984  -1.2806938), wk =   0.0208333

                       cryst. coord.
        k(    1) = (   0.0000000   0.0000000   0.0000000), wk =   0.0104167
        k(    2) = (   0.0000000   0.0000000   0.1250000), wk =   0.0208333
        k(    3) = (   0.0000000   0.0000000   0.2500000), wk =   0.0208333
        k(    4) = (   0.0000000   0.0000000   0.3750000), wk =   0.0208333
        k(    5) = (   0.0000000   0.0000000  -0.5000000), wk =   0.0104167
        k(    6) = (   0.0000000   0.1250000   0.0000000), wk =   0.0208333
        k(    7) = (   0.0000000   0.1250000   0.1250000), wk =   0.0416667
        k(    8) = (   0.0000000   0.1250000   0.2500000), wk =   0.0416667
        k(    9) = (   0.0000000   0.1250000   0.3750000), wk =   0.0416667
        k(   10) = (   0.0000000   0.1250000  -0.5000000), wk =   0.0208333
        k(   11) = (   0.0000000   0.2500000   0.0000000), wk =   0.0208333
        k(   12) = (   0.0000000   0.2500000   0.1250000), wk =   0.0416667
        k(   13) = (   0.0000000   0.2500000   0.2500000), wk =   0.0416667
        k(   14) = (   0.0000000   0.2500000   0.3750000), wk =   0.0416667
        k(   15) = (   0.0000000   0.2500000  -0.5000000), wk =   0.0208333
        k(   16) = (   0.0000000   0.3750000   0.0000000), wk =   0.0208333
        k(   17) = (   0.0000000   0.3750000   0.1250000), wk =   0.0416667
        k(   18) = (   0.0000000   0.3750000   0.2500000), wk =   0.0416667
        k(   19) = (   0.0000000   0.3750000   0.3750000), wk =   0.0416667
        k(   20) = (   0.0000000   0.3750000  -0.5000000), wk =   0.0208333
        k(   21) = (   0.0000000  -0.5000000   0.0000000), wk =   0.0104167
        k(   22) = (   0.0000000  -0.5000000   0.1250000), wk =   0.0208333
        k(   23) = (   0.0000000  -0.5000000   0.2500000), wk =   0.0208333
        k(   24) = (   0.0000000  -0.5000000   0.3750000), wk =   0.0208333
        k(   25) = (   0.0000000  -0.5000000  -0.5000000), wk =   0.0104167
        k(   26) = (   0.3333333   0.0000000   0.0000000), wk =   0.0208333
        k(   27) = (   0.3333333   0.0000000   0.1250000), wk =   0.0416667
        k(   28) = (   0.3333333   0.0000000   0.2500000), wk =   0.0416667
        k(   29) = (   0.3333333   0.0000000   0.3750000), wk =   0.0416667
        k(   30) = (   0.3333333   0.0000000  -0.5000000), wk =   0.0208333
        k(   31) = (   0.3333333   0.1250000   0.0000000), wk =   0.0416667
        k(   32) = (   0.3333333   0.1250000   0.1250000), wk =   0.0833333
        k(   33) = (   0.3333333   0.1250000   0.2500000), wk =   0.0833333
        k(   34) = (   0.3333333   0.1250000   0.3750000), wk =   0.0833333
        k(   35) = (   0.3333333   0.1250000  -0.5000000), wk =   0.0416667
        k(   36) = (   0.3333333   0.2500000   0.0000000), wk =   0.0416667
        k(   37) = (   0.3333333   0.2500000   0.1250000), wk =   0.0833333
        k(   38) = (   0.3333333   0.2500000   0.2500000), wk =   0.0833333
        k(   39) = (   0.3333333   0.2500000   0.3750000), wk =   0.0833333
        k(   40) = (   0.3333333   0.2500000  -0.5000000), wk =   0.0416667
        k(   41) = (   0.3333333   0.3750000   0.0000000), wk =   0.0416667
        k(   42) = (   0.3333333   0.3750000   0.1250000), wk =   0.0833333
        k(   43) = (   0.3333333   0.3750000   0.2500000), wk =   0.0833333
        k(   44) = (   0.3333333   0.3750000   0.3750000), wk =   0.0833333
        k(   45) = (   0.3333333   0.3750000  -0.5000000), wk =   0.0416667
        k(   46) = (   0.3333333  -0.5000000   0.0000000), wk =   0.0208333
        k(   47) = (   0.3333333  -0.5000000   0.1250000), wk =   0.0416667
        k(   48) = (   0.3333333  -0.5000000   0.2500000), wk =   0.0416667
        k(   49) = (   0.3333333  -0.5000000   0.3750000), wk =   0.0416667
        k(   50) = (   0.3333333  -0.5000000  -0.5000000), wk =   0.0208333

     Dense  grid:   445993 G-vectors     FFT dimensions: ( 192,  72,  72)

     Smooth grid:   112813 G-vectors     FFT dimensions: ( 120,  48,  48)

     Dynamical RAM for                 wfc:       5.38 MB

     Dynamical RAM for     wfc (w. buffer):      96.82 MB

     Dynamical RAM for           str. fact:       6.81 MB

     Dynamical RAM for           local pot:       0.00 MB

     Dynamical RAM for          nlocal pot:      15.49 MB

     Dynamical RAM for                qrad:       4.24 MB

     Dynamical RAM for          rho,v,vnew:      21.60 MB

     Dynamical RAM for               rhoin:       7.20 MB

     Dynamical RAM for            rho*nmix:      54.44 MB

     Dynamical RAM for           G-vectors:      13.19 MB

     Dynamical RAM for          h,s,v(r/c):       0.46 MB

     Dynamical RAM for          <psi|beta>:       0.11 MB

     Dynamical RAM for                 psi:      10.76 MB

     Dynamical RAM for                hpsi:      10.76 MB

     Dynamical RAM for                spsi:      10.76 MB

     Dynamical RAM for      wfcinit/wfcrot:      11.25 MB

     Dynamical RAM for           addusdens:     217.77 MB

     Dynamical RAM for          addusforce:     224.02 MB

     Estimated static dynamical RAM per process >     248.98 MB

     Estimated max dynamical RAM per process >     473.00 MB

     Estimated total dynamical RAM >       2.77 GB

     Initial potential from superposition of free atoms

     starting charge   75.99954, renormalised to   80.00000
     Starting wfcs are   52 randomized atomic wfcs

     total cpu time spent up to now is       25.5 secs

     Self-consistent Calculation

     iteration #  1     ecut=    70.00 Ry     beta= 0.70
     Davidson diagonalization with overlap
     ethr =  1.00E-02,  avg # of iterations =  3.8

     total cpu time spent up to now is       99.0 secs

     total energy              =    -826.67708038 Ry
     estimated scf accuracy    <       2.63004053 Ry

     iteration #  2     ecut=    70.00 Ry     beta= 0.70
     Davidson diagonalization with overlap
     ethr =  3.29E-03,  avg # of iterations =  2.0

     total cpu time spent up to now is      165.9 secs

     total energy              =    -827.46185805 Ry
     estimated scf accuracy    <       1.09557987 Ry

     iteration #  3     ecut=    70.00 Ry     beta= 0.70
     Davidson diagonalization with overlap
     ethr =  1.37E-03,  avg # of iterations =  2.0

     total cpu time spent up to now is      223.5 secs

     total energy              =    -827.73417863 Ry
     estimated scf accuracy    <       0.06115337 Ry

     iteration #  4     ecut=    70.00 Ry     beta= 0.70
     Davidson diagonalization with overlap
     ethr =  7.64E-05,  avg # of iterations =  3.4

     total cpu time spent up to now is      284.4 secs

     total energy              =    -827.74530712 Ry
     estimated scf accuracy    <       0.00299250 Ry

     iteration #  5     ecut=    70.00 Ry     beta= 0.70
     Davidson diagonalization with overlap
     ethr =  3.74E-06,  avg # of iterations =  6.2

     total cpu time spent up to now is      370.4 secs

     total energy              =    -827.74597078 Ry
     estimated scf accuracy    <       0.00081138 Ry

     iteration #  6     ecut=    70.00 Ry     beta= 0.70
     Davidson diagonalization with overlap
     ethr =  1.01E-06,  avg # of iterations =  2.3

     total cpu time spent up to now is      430.2 secs

     total energy              =    -827.74614586 Ry
     estimated scf accuracy    <       0.00004441 Ry

     iteration #  7     ecut=    70.00 Ry     beta= 0.70
     Davidson diagonalization with overlap
     ethr =  5.55E-08,  avg # of iterations =  5.0

     total cpu time spent up to now is      520.1 secs

     total energy              =    -827.74617416 Ry
     estimated scf accuracy    <       0.00000259 Ry

     iteration #  8     ecut=    70.00 Ry     beta= 0.70
     Davidson diagonalization with overlap
     ethr =  3.23E-09,  avg # of iterations =  3.4

     total cpu time spent up to now is      599.1 secs

     total energy              =    -827.74617527 Ry
     estimated scf accuracy    <       0.00000041 Ry

     iteration #  9     ecut=    70.00 Ry     beta= 0.70
     Davidson diagonalization with overlap
     ethr =  5.06E-10,  avg # of iterations =  2.7

     total cpu time spent up to now is      673.5 secs

     End of self-consistent calculation

          k = 0.0000 0.0000 0.0000 ( 14103 PWs)   bands (ev):

   -13.2671 -13.2556 -13.2523 -13.2500 -13.2498 -13.2459 -13.2430 -13.2388
   -13.2351 -13.2336 -13.2336 -13.2260 -13.2189 -13.2120 -13.1978 -13.1931
   -13.1879 -13.1844 -13.1763 -13.1670  -5.7486  -5.3984  -4.6623  -4.1624
     0.8108   1.9492   2.5391   3.0743   3.2285   4.6618   4.7016   4.7758
     5.1804   5.2370   5.8088   6.3101   6.5334   6.9878   7.3975   7.5668
     8.8494  10.9495  11.0983  11.1316  11.3560  11.4504  12.3329  12.6286
    12.7026  12.7416

     occupation numbers 
     1.0000   1.0000   1.0000   1.0000   1.0000   1.0000   1.0000   1.0000
     1.0000   1.0000   1.0000   1.0000   1.0000   1.0000   1.0000   1.0000
     1.0000   1.0000   1.0000   1.0000   1.0000   1.0000   1.0000   1.0000
     1.0000   1.0000   1.0000   1.0000   1.0000   1.0000   1.0000   1.0000
     1.0000   1.0000   1.0000   1.0000   1.0000   1.0000   1.0000   1.0000
     0.0000   0.0000   0.0000   0.0000   0.0000   0.0000   0.0000   0.0000
     0.0000   0.0000

          k = 0.0000 0.0000 0.3202 ( 14143 PWs)   bands (ev):

   -13.2662 -13.2548 -13.2524 -13.2508 -13.2493 -13.2471 -13.2434 -13.2393
   -13.2346 -13.2329 -13.2312 -13.2262 -13.2184 -13.2124 -13.1979 -13.1926
   -13.1885 -13.1848 -13.1759 -13.1673  -5.6814  -5.3369  -4.6528  -4.1792
     0.5848   1.8067   2.1936   2.8121   3.1997   4.7330   4.7643   5.1509
     5.2732   5.6931   5.8771   6.3899   6.5681   7.2112   7.2694   7.5938
     8.9030  10.4003  10.9973  11.1374  11.1594  11.3502  12.1929  12.3120
    12.4628  12.6919

     occupation numbers 
     1.0000   1.0000   1.0000   1.0000   1.0000   1.0000   1.0000   1.0000
     1.0000   1.0000   1.0000   1.0000   1.0000   1.0000   1.0000   1.0000
     1.0000   1.0000   1.0000   1.0000   1.0000   1.0000   1.0000   1.0000
     1.0000   1.0000   1.0000   1.0000   1.0000   1.0000   1.0000   1.0000
     1.0000   1.0000   1.0000   1.0000   1.0000   1.0000   1.0000   1.0000
     0.0000   0.0000   0.0000   0.0000   0.0000   0.0000   0.0000   0.0000
     0.0000   0.0000

          k = 0.0000 0.0000 0.6403 ( 14130 PWs)   bands (ev):

   -13.2638 -13.2529 -13.2528 -13.2525 -13.2498 -13.2483 -13.2442 -13.2409
   -13.2333 -13.2292 -13.2268 -13.2268 -13.2175 -13.2136 -13.1977 -13.1915
   -13.1901 -13.1860 -13.1748 -13.1683  -5.4916  -5.1627  -4.6528  -4.2460
     0.1702   1.3527   1.5098   2.3515   3.3690   5.0027   5.0580   5.5361
     5.7222   6.0375   6.1775   6.6230   6.8776   7.0106   7.5216   7.8388
     9.2167   9.4496  10.1727  10.2265  10.9503  11.2344  11.4548  11.5821
    12.6059  12.7489

     occupation numbers 
     1.0000   1.0000   1.0000   1.0000   1.0000   1.0000   1.0000   1.0000
     1.0000   1.0000   1.0000   1.0000   1.0000   1.0000   1.0000   1.0000
     1.0000   1.0000   1.0000   1.0000   1.0000   1.0000   1.0000   1.0000
     1.0000   1.0000   1.0000   1.0000   1.0000   1.0000   1.0000   1.0000
     1.0000   1.0000   1.0000   1.0000   1.0000   1.0000   1.0000   1.0000
     0.0000   0.0000   0.0000   0.0000   0.0000   0.0000   0.0000   0.0000
     0.0000   0.0000

          k = 0.0000 0.0000 0.9605 ( 14126 PWs)   bands (ev):

   -13.2604 -13.2544 -13.2540 -13.2526 -13.2506 -13.2480 -13.2448 -13.2430
   -13.2315 -13.2280 -13.2240 -13.2221 -13.2174 -13.2156 -13.1966 -13.1923
   -13.1902 -13.1873 -13.1732 -13.1697  -5.2185  -4.9085  -4.7319  -4.3946
    -0.0656   0.5737   1.3331   1.8114   3.8095   4.9243   5.4901   5.9156
     6.1288   6.3128   6.4618   6.5645   6.9127   7.4263   7.8062   8.0305
     8.9987   9.3175   9.6068   9.7876  10.1802  10.2813  10.8432  11.1271
    11.6647  11.8367

     occupation numbers 
     1.0000   1.0000   1.0000   1.0000   1.0000   1.0000   1.0000   1.0000
     1.0000   1.0000   1.0000   1.0000   1.0000   1.0000   1.0000   1.0000
     1.0000   1.0000   1.0000   1.0000   1.0000   1.0000   1.0000   1.0000
     1.0000   1.0000   1.0000   1.0000   1.0000   1.0000   1.0000   1.0000
     1.0000   1.0000   1.0000   1.0000   1.0000   1.0000   1.0000   1.0000
     0.0000   0.0000   0.0000   0.0000   0.0000   0.0000   0.0000   0.0000
     0.0000   0.0000

          k = 0.0000 0.0000-1.2807 ( 14138 PWs)   bands (ev):

   -13.2570 -13.2570 -13.2541 -13.2541 -13.2488 -13.2488 -13.2444 -13.2444
   -13.2296 -13.2296 -13.2194 -13.2194 -13.2185 -13.2185 -13.1946 -13.1946
   -13.1887 -13.1887 -13.1715 -13.1715  -4.9349  -4.9349  -4.6301  -4.6301
     0.0662   0.0662   1.4338   1.4338   4.3885   4.3885   5.9271   5.9271
     6.3042   6.3042   6.6768   6.6768   7.2593   7.2593   7.7967   7.7967
     9.3210   9.3210   9.6521   9.6521   9.7887   9.7887  10.7602  10.7602
    11.2259  11.2259

     occupation numbers 
     1.0000   1.0000   1.0000   1.0000   1.0000   1.0000   1.0000   1.0000
     1.0000   1.0000   1.0000   1.0000   1.0000   1.0000   1.0000   1.0000
     1.0000   1.0000   1.0000   1.0000   1.0000   1.0000   1.0000   1.0000
     1.0000   1.0000   1.0000   1.0000   1.0000   1.0000   1.0000   1.0000
     1.0000   1.0000   1.0000   1.0000   1.0000   1.0000   1.0000   1.0000
     0.0000   0.0000   0.0000   0.0000   0.0000   0.0000   0.0000   0.0000
     0.0000   0.0000

          k = 0.0000 0.3395 0.0000 ( 14139 PWs)   bands (ev):

   -13.2636 -13.2540 -13.2513 -13.2495 -13.2485 -13.2483 -13.2454 -13.2404
   -13.2371 -13.2318 -13.2303 -13.2284 -13.2165 -13.2126 -13.1961 -13.1939
   -13.1867 -13.1862 -13.1764 -13.1683  -5.6645  -5.3268  -4.6254  -4.1666
     0.6923   1.7086   2.4622   2.6202   3.2101   4.5949   4.8807   4.9812
     5.1631   5.3291   6.0153   6.3582   6.5181   7.2442   7.4078   7.4912
     8.9805  10.3766  10.9740  11.3189  11.3394  11.3703  11.9430  12.1013
    12.5122  12.9363

     occupation numbers 
     1.0000   1.0000   1.0000   1.0000   1.0000   1.0000   1.0000   1.0000
     1.0000   1.0000   1.0000   1.0000   1.0000   1.0000   1.0000   1.0000
     1.0000   1.0000   1.0000   1.0000   1.0000   1.0000   1.0000   1.0000
     1.0000   1.0000   1.0000   1.0000   1.0000   1.0000   1.0000   1.0000
     1.0000   1.0000   1.0000   1.0000   1.0000   1.0000   1.0000   1.0000
     0.0000   0.0000   0.0000   0.0000   0.0000   0.0000   0.0000   0.0000
     0.0000   0.0000

          k = 0.0000 0.3395 0.3202 ( 14120 PWs)   bands (ev):

   -13.2630 -13.2534 -13.2522 -13.2495 -13.2489 -13.2478 -13.2459 -13.2416
   -13.2367 -13.2301 -13.2288 -13.2285 -13.2164 -13.2126 -13.1963 -13.1934
   -13.1873 -13.1866 -13.1760 -13.1685  -5.5986  -5.2669  -4.6157  -4.1804
     0.5339   1.6552   2.1177   2.5388   3.2339   4.3278   4.5206   5.5000
     5.5043   5.7012   5.7417   6.3778   6.8148   7.2392   7.5442   7.5502
     9.0401   9.9486  10.5485  10.8360  11.1406  11.4810  11.8614  12.1083
    12.5272  12.9839

     occupation numbers 
     1.0000   1.0000   1.0000   1.0000   1.0000   1.0000   1.0000   1.0000
     1.0000   1.0000   1.0000   1.0000   1.0000   1.0000   1.0000   1.0000
     1.0000   1.0000   1.0000   1.0000   1.0000   1.0000   1.0000   1.0000
     1.0000   1.0000   1.0000   1.0000   1.0000   1.0000   1.0000   1.0000
     1.0000   1.0000   1.0000   1.0000   1.0000   1.0000   1.0000   1.0000
     0.0000   0.0000   0.0000   0.0000   0.0000   0.0000   0.0000   0.0000
     0.0000   0.0000

          k = 0.0000 0.3395 0.6403 ( 14114 PWs)   bands (ev):

   -13.2615 -13.2543 -13.2529 -13.2498 -13.2490 -13.2477 -13.2461 -13.2442
   -13.2352 -13.2290 -13.2263 -13.2250 -13.2164 -13.2129 -13.1962 -13.1923
   -13.1889 -13.1875 -13.1750 -13.1693  -5.4133  -5.0978  -4.6137  -4.2379
     0.2171   1.3784   1.5050   2.2330   3.4616   4.2672   4.4498   5.5502
     5.7724   5.9479   6.2875   6.3493   7.0725   7.2760   7.5905   7.7012
     9.3051   9.6079   9.8702   9.8717  11.0542  11.0656  11.5282  12.0702
    12.6321  12.7981

     occupation numbers 
     1.0000   1.0000   1.0000   1.0000   1.0000   1.0000   1.0000   1.0000
     1.0000   1.0000   1.0000   1.0000   1.0000   1.0000   1.0000   1.0000
     1.0000   1.0000   1.0000   1.0000   1.0000   1.0000   1.0000   1.0000
     1.0000   1.0000   1.0000   1.0000   1.0000   1.0000   1.0000   1.0000
     1.0000   1.0000   1.0000   1.0000   1.0000   1.0000   1.0000   1.0000
     0.0000   0.0000   0.0000   0.0000   0.0000   0.0000   0.0000   0.0000
     0.0000   0.0000

          k = 0.0000 0.3395 0.9605 ( 14118 PWs)   bands (ev):

   -13.2598 -13.2567 -13.2530 -13.2507 -13.2486 -13.2482 -13.2464 -13.2456
   -13.2332 -13.2300 -13.2220 -13.2204 -13.2169 -13.2140 -13.1951 -13.1911
   -13.1910 -13.1886 -13.1736 -13.1705  -5.1486  -4.8534  -4.6860  -4.3714
     0.0323   0.6568   1.3981   1.8169   3.8842   4.4966   4.6561   5.5444
     5.6619   5.7697   6.3455   6.6565   7.2827   7.2897   7.6419   7.6518
     9.2332   9.4884   9.5346   9.8941  10.6655  10.8050  11.1002  11.7990
    12.2170  12.5110

     occupation numbers 
     1.0000   1.0000   1.0000   1.0000   1.0000   1.0000   1.0000   1.0000
     1.0000   1.0000   1.0000   1.0000   1.0000   1.0000   1.0000   1.0000
     1.0000   1.0000   1.0000   1.0000   1.0000   1.0000   1.0000   1.0000
     1.0000   1.0000   1.0000   1.0000   1.0000   1.0000   1.0000   1.0000
     1.0000   1.0000   1.0000   1.0000   1.0000   1.0000   1.0000   1.0000
     0.0000   0.0000   0.0000   0.0000   0.0000   0.0000   0.0000   0.0000
     0.0000   0.0000

          k = 0.0000 0.3395-1.2807 ( 14112 PWs)   bands (ev):

   -13.2585 -13.2585 -13.2521 -13.2521 -13.2487 -13.2487 -13.2460 -13.2460
   -13.2314 -13.2314 -13.2187 -13.2187 -13.2165 -13.2165 -13.1932 -13.1932
   -13.1898 -13.1898 -13.1720 -13.1720  -4.8770  -4.8770  -4.5897  -4.5897
     0.1721   0.1721   1.4966   1.4966   4.3651   4.3651   5.1509   5.1509
     5.5775   5.5775   6.5004   6.5004   7.4170   7.4170   7.6352   7.6352
     9.2060   9.2060   9.6717   9.6717  10.9057  10.9057  11.2608  11.2608
    11.9639  11.9639

     occupation numbers 
     1.0000   1.0000   1.0000   1.0000   1.0000   1.0000   1.0000   1.0000
     1.0000   1.0000   1.0000   1.0000   1.0000   1.0000   1.0000   1.0000
     1.0000   1.0000   1.0000   1.0000   1.0000   1.0000   1.0000   1.0000
     1.0000   1.0000   1.0000   1.0000   1.0000   1.0000   1.0000   1.0000
     1.0000   1.0000   1.0000   1.0000   1.0000   1.0000   1.0000   1.0000
     0.0000   0.0000   0.0000   0.0000   0.0000   0.0000   0.0000   0.0000
     0.0000   0.0000

          k = 0.0000 0.6790 0.0000 ( 14117 PWs)   bands (ev):

   -13.2556 -13.2554 -13.2540 -13.2511 -13.2476 -13.2447 -13.2441 -13.2426
   -13.2377 -13.2321 -13.2293 -13.2248 -13.2146 -13.2125 -13.1967 -13.1919
   -13.1917 -13.1839 -13.1762 -13.1713  -5.4247  -5.1290  -4.5464  -4.2126
     0.4198   1.2443   1.7287   2.0625   3.4076   4.7906   5.1851   5.2474
     5.2638   5.5737   6.3276   6.4302   6.6179   7.2687   7.3915   7.8469
     9.0580   9.2944  10.3967  10.5656  10.5959  11.1918  11.2018  11.8950
    12.6249  12.7632

     occupation numbers 
     1.0000   1.0000   1.0000   1.0000   1.0000   1.0000   1.0000   1.0000
     1.0000   1.0000   1.0000   1.0000   1.0000   1.0000   1.0000   1.0000
     1.0000   1.0000   1.0000   1.0000   1.0000   1.0000   1.0000   1.0000
     1.0000   1.0000   1.0000   1.0000   1.0000   1.0000   1.0000   1.0000
     1.0000   1.0000   1.0000   1.0000   1.0000   1.0000   1.0000   1.0000
     0.0000   0.0000   0.0000   0.0000   0.0000   0.0000   0.0000   0.0000
     0.0000   0.0000

          k = 0.0000 0.6790 0.3202 ( 14106 PWs)   bands (ev):

   -13.2584 -13.2552 -13.2537 -13.2520 -13.2472 -13.2447 -13.2441 -13.2425
   -13.2370 -13.2321 -13.2280 -13.2235 -13.2154 -13.2118 -13.1965 -13.1921
   -13.1917 -13.1844 -13.1759 -13.1714  -5.3635  -5.0743  -4.5349  -4.2164
     0.3945   1.2995   1.6975   1.9551   3.4903   4.1165   4.4352   5.2957
     5.7942   5.9259   5.9951   6.3334   6.9703   7.3030   7.4205   7.6282
     9.3051   9.4117   9.7905   9.9367  11.0855  11.1098  11.7144  12.0506
    12.6724  12.8184

     occupation numbers 
     1.0000   1.0000   1.0000   1.0000   1.0000   1.0000   1.0000   1.0000
     1.0000   1.0000   1.0000   1.0000   1.0000   1.0000   1.0000   1.0000
     1.0000   1.0000   1.0000   1.0000   1.0000   1.0000   1.0000   1.0000
     1.0000   1.0000   1.0000   1.0000   1.0000   1.0000   1.0000   1.0000
     1.0000   1.0000   1.0000   1.0000   1.0000   1.0000   1.0000   1.0000
     0.0000   0.0000   0.0000   0.0000   0.0000   0.0000   0.0000   0.0000
     0.0000   0.0000

          k = 0.0000 0.6790 0.6403 ( 14084 PWs)   bands (ev):

   -13.2617 -13.2584 -13.2540 -13.2535 -13.2473 -13.2443 -13.2428 -13.2426
   -13.2355 -13.2321 -13.2247 -13.2204 -13.2161 -13.2113 -13.1957 -13.1924
   -13.1913 -13.1857 -13.1752 -13.1716  -5.1935  -4.9223  -4.5240  -4.2437
     0.3286   1.3832   1.4231   1.8483   3.6296   3.7297   3.9088   5.0000
     5.1896   6.0283   6.0372   6.5384   6.7364   7.1466   7.2602   7.4695
     9.0651   9.5829  10.2865  10.6305  10.8250  11.3075  11.5567  12.6037
    13.0028  13.0296

     occupation numbers 
     1.0000   1.0000   1.0000   1.0000   1.0000   1.0000   1.0000   1.0000
     1.0000   1.0000   1.0000   1.0000   1.0000   1.0000   1.0000   1.0000
     1.0000   1.0000   1.0000   1.0000   1.0000   1.0000   1.0000   1.0000
     1.0000   1.0000   1.0000   1.0000   1.0000   1.0000   1.0000   1.0000
     1.0000   1.0000   1.0000   1.0000   1.0000   1.0000   1.0000   1.0000
     0.0000   0.0000   0.0000   0.0000   0.0000   0.0000   0.0000   0.0000
     0.0000   0.0000

          k = 0.0000 0.6790 0.9605 ( 14092 PWs)   bands (ev):

   -13.2639 -13.2620 -13.2559 -13.2552 -13.2465 -13.2434 -13.2430 -13.2419
   -13.2339 -13.2323 -13.2209 -13.2167 -13.2166 -13.2119 -13.1947 -13.1929
   -13.1903 -13.1872 -13.1741 -13.1722  -4.9569  -4.7096  -4.5727  -4.3294
     0.3070   0.8751   1.5298   1.7569   3.5958   3.8632   4.0354   4.6908
     4.8857   5.5823   5.5963   6.2624   6.4211   6.9376   7.0742   7.4811
     8.9942  10.2514  10.4569  11.3371  11.4139  11.5872  11.8722  12.8198
    12.8742  13.1547

     occupation numbers 
     1.0000   1.0000   1.0000   1.0000   1.0000   1.0000   1.0000   1.0000
     1.0000   1.0000   1.0000   1.0000   1.0000   1.0000   1.0000   1.0000
     1.0000   1.0000   1.0000   1.0000   1.0000   1.0000   1.0000   1.0000
     1.0000   1.0000   1.0000   1.0000   1.0000   1.0000   1.0000   1.0000
     1.0000   1.0000   1.0000   1.0000   1.0000   1.0000   1.0000   1.0000
     0.0000   0.0000   0.0000   0.0000   0.0000   0.0000   0.0000   0.0000
     0.0000   0.0000

          k = 0.0000 0.6790-1.2807 ( 14110 PWs)   bands (ev):

   -13.2641 -13.2641 -13.2564 -13.2564 -13.2449 -13.2449 -13.2421 -13.2421
   -13.2328 -13.2328 -13.2180 -13.2180 -13.2137 -13.2137 -13.1937 -13.1937
   -13.1888 -13.1888 -13.1730 -13.1730  -4.7250  -4.7250  -4.4929  -4.4929
     0.4746   0.4746   1.6288   1.6288   3.9331   3.9331   4.1975   4.1975
     5.0403   5.0403   5.7290   5.7290   6.6114   6.6114   7.2059   7.2059
     9.6184   9.6184  11.0554  11.0554  12.0449  12.0449  12.5620  12.5620
    12.8534  12.8534

     occupation numbers 
     1.0000   1.0000   1.0000   1.0000   1.0000   1.0000   1.0000   1.0000
     1.0000   1.0000   1.0000   1.0000   1.0000   1.0000   1.0000   1.0000
     1.0000   1.0000   1.0000   1.0000   1.0000   1.0000   1.0000   1.0000
     1.0000   1.0000   1.0000   1.0000   1.0000   1.0000   1.0000   1.0000
     1.0000   1.0000   1.0000   1.0000   1.0000   1.0000   1.0000   1.0000
     0.0000   0.0000   0.0000   0.0000   0.0000   0.0000   0.0000   0.0000
     0.0000   0.0000

          k = 0.0000 1.0186 0.0000 ( 14073 PWs)   bands (ev):

   -13.2593 -13.2568 -13.2562 -13.2535 -13.2429 -13.2427 -13.2417 -13.2375
   -13.2344 -13.2332 -13.2285 -13.2191 -13.2176 -13.2085 -13.2006 -13.2004
   -13.1860 -13.1804 -13.1761 -13.1752  -5.0714  -4.8609  -4.5143  -4.3752
     0.2265   0.8957   0.9608   1.4891   3.8795   4.9584   5.3818   5.5618
     5.6999   5.8431   6.2704   6.5702   6.9860   7.2214   7.2708   7.6280
     8.8520   9.5661   9.5826   9.6622   9.9256  10.3481  10.5301  11.2637
    11.5972  11.9944

     occupation numbers 
     1.0000   1.0000   1.0000   1.0000   1.0000   1.0000   1.0000   1.0000
     1.0000   1.0000   1.0000   1.0000   1.0000   1.0000   1.0000   1.0000
     1.0000   1.0000   1.0000   1.0000   1.0000   1.0000   1.0000   1.0000
     1.0000   1.0000   1.0000   1.0000   1.0000   1.0000   1.0000   1.0000
     1.0000   1.0000   1.0000   1.0000   1.0000   1.0000   1.0000   1.0000
     0.0000   0.0000   0.0000   0.0000   0.0000   0.0000   0.0000   0.0000
     0.0000   0.0000

          k = 0.0000 1.0186 0.3202 ( 14083 PWs)   bands (ev):

   -13.2613 -13.2589 -13.2570 -13.2548 -13.2434 -13.2412 -13.2410 -13.2371
   -13.2336 -13.2330 -13.2275 -13.2190 -13.2170 -13.2088 -13.2002 -13.1998
   -13.1860 -13.1809 -13.1759 -13.1749  -5.0200  -4.8162  -4.4964  -4.3613
     0.2929   0.9654   1.0431   1.4815   3.9442   4.3139   4.6360   5.4175
     5.6567   5.6824   6.3302   6.4234   6.7055   7.1231   7.3358   7.4661
     9.1886   9.2007   9.4360   9.8011  10.8157  10.9203  11.1794  11.3971
    12.1986  12.6503

     occupation numbers 
     1.0000   1.0000   1.0000   1.0000   1.0000   1.0000   1.0000   1.0000
     1.0000   1.0000   1.0000   1.0000   1.0000   1.0000   1.0000   1.0000
     1.0000   1.0000   1.0000   1.0000   1.0000   1.0000   1.0000   1.0000
     1.0000   1.0000   1.0000   1.0000   1.0000   1.0000   1.0000   1.0000
     1.0000   1.0000   1.0000   1.0000   1.0000   1.0000   1.0000   1.0000
     0.0000   0.0000   0.0000   0.0000   0.0000   0.0000   0.0000   0.0000
     0.0000   0.0000

          k = 0.0000 1.0186 0.6403 ( 14102 PWs)   bands (ev):

   -13.2656 -13.2634 -13.2595 -13.2581 -13.2430 -13.2403 -13.2386 -13.2364
   -13.2324 -13.2322 -13.2249 -13.2187 -13.2153 -13.2095 -13.1991 -13.1985
   -13.1860 -13.1821 -13.1754 -13.1744  -4.8811  -4.6963  -4.4624  -4.3357
     0.4691   1.1273   1.2669   1.4462   3.5169   3.9367   4.0917   4.6048
     4.9550   5.6179   5.6646   5.9853   6.3944   6.5226   7.0772   7.4366
     8.8906  10.2459  10.2807  10.9800  11.3397  11.6792  12.2693  12.4576
    12.6571  12.7654

     occupation numbers 
     1.0000   1.0000   1.0000   1.0000   1.0000   1.0000   1.0000   1.0000
     1.0000   1.0000   1.0000   1.0000   1.0000   1.0000   1.0000   1.0000
     1.0000   1.0000   1.0000   1.0000   1.0000   1.0000   1.0000   1.0000
     1.0000   1.0000   1.0000   1.0000   1.0000   1.0000   1.0000   1.0000
     1.0000   1.0000   1.0000   1.0000   1.0000   1.0000   1.0000   1.0000
     0.0000   0.0000   0.0000   0.0000   0.0000   0.0000   0.0000   0.0000
     0.0000   0.0000

          k = 0.0000 1.0186 0.9605 ( 14102 PWs)   bands (ev):

   -13.2692 -13.2679 -13.2621 -13.2615 -13.2421 -13.2402 -13.2368 -13.2359
   -13.2316 -13.2312 -13.2220 -13.2187 -13.2130 -13.2102 -13.1979 -13.1975
   -13.1854 -13.1832 -13.1747 -13.1741  -4.6998  -4.5418  -4.4621  -4.3392
     0.6917   1.1184   1.5227   1.5345   3.1262   3.5833   3.8179   4.0849
     4.6695   5.0166   5.0674   5.6578   5.9372   6.1536   6.9222   6.9558
     9.5039  10.9615  11.2444  11.3532  12.3096  12.3727  12.6225  12.9602
    13.0945  13.2592

     occupation numbers 
     1.0000   1.0000   1.0000   1.0000   1.0000   1.0000   1.0000   1.0000
     1.0000   1.0000   1.0000   1.0000   1.0000   1.0000   1.0000   1.0000
     1.0000   1.0000   1.0000   1.0000   1.0000   1.0000   1.0000   1.0000
     1.0000   1.0000   1.0000   1.0000   1.0000   1.0000   1.0000   1.0000
     1.0000   1.0000   1.0000   1.0000   1.0000   1.0000   1.0000   1.0000
     0.0000   0.0000   0.0000   0.0000   0.0000   0.0000   0.0000   0.0000
     0.0000   0.0000

          k = 0.0000 1.0186-1.2807 ( 14102 PWs)   bands (ev):

   -13.2702 -13.2702 -13.2630 -13.2630 -13.2410 -13.2410 -13.2359 -13.2359
   -13.2310 -13.2310 -13.2197 -13.2197 -13.2112 -13.2112 -13.1973 -13.1973
   -13.1843 -13.1843 -13.1742 -13.1742  -4.5419  -4.5419  -4.4083  -4.4083
     0.9130   0.9130   1.6412   1.6412   3.2552   3.2552   3.7435   3.7435
     4.5805   4.5805   5.3351   5.3351   5.8411   5.8411   6.8293   6.8293
    10.2668  10.2668  11.6646  11.6646  12.7731  12.7731  13.0096  13.0096
    13.2119  13.2119

     occupation numbers 
     1.0000   1.0000   1.0000   1.0000   1.0000   1.0000   1.0000   1.0000
     1.0000   1.0000   1.0000   1.0000   1.0000   1.0000   1.0000   1.0000
     1.0000   1.0000   1.0000   1.0000   1.0000   1.0000   1.0000   1.0000
     1.0000   1.0000   1.0000   1.0000   1.0000   1.0000   1.0000   1.0000
     1.0000   1.0000   1.0000   1.0000   1.0000   1.0000   1.0000   1.0000
     0.0000   0.0000   0.0000   0.0000   0.0000   0.0000   0.0000   0.0000
     0.0000   0.0000

          k = 0.0000-1.3581 0.0000 ( 14046 PWs)   bands (ev):

   -13.2600 -13.2600 -13.2560 -13.2560 -13.2409 -13.2409 -13.2392 -13.2392
   -13.2298 -13.2298 -13.2263 -13.2263 -13.2094 -13.2094 -13.2047 -13.2047
   -13.1801 -13.1801 -13.1774 -13.1774  -4.6851  -4.6851  -4.6217  -4.6217
     0.3593   0.3593   1.0559   1.0559   4.4829   4.4829   5.8483   5.8483
     5.8635   5.8635   6.3753   6.3753   7.1064   7.1064   7.3065   7.3065
     9.1103   9.1103   9.5450   9.5450   9.8204   9.8204  10.6268  10.6268
    11.3363  11.3363

     occupation numbers 
     1.0000   1.0000   1.0000   1.0000   1.0000   1.0000   1.0000   1.0000
     1.0000   1.0000   1.0000   1.0000   1.0000   1.0000   1.0000   1.0000
     1.0000   1.0000   1.0000   1.0000   1.0000   1.0000   1.0000   1.0000
     1.0000   1.0000   1.0000   1.0000   1.0000   1.0000   1.0000   1.0000
     1.0000   1.0000   1.0000   1.0000   1.0000   1.0000   1.0000   1.0000
     0.0000   0.0000   0.0000   0.0000   0.0000   0.0000   0.0000   0.0000
     0.0000   0.0000

          k = 0.0000-1.3581 0.3202 ( 14028 PWs)   bands (ev):

   -13.2620 -13.2620 -13.2574 -13.2574 -13.2409 -13.2409 -13.2380 -13.2380
   -13.2296 -13.2296 -13.2255 -13.2255 -13.2100 -13.2100 -13.2034 -13.2034
   -13.1806 -13.1806 -13.1769 -13.1769  -4.6503  -4.6503  -4.5911  -4.5911
     0.4518   0.4518   1.1134   1.1134   4.4265   4.4265   4.9867   4.9867
     5.5627   5.5627   6.4635   6.4635   6.7102   6.7102   7.4336   7.4336
     8.9526   8.9526   9.7731   9.7731  10.6422  10.6422  11.3866  11.3866
    11.8555  11.8555

     occupation numbers 
     1.0000   1.0000   1.0000   1.0000   1.0000   1.0000   1.0000   1.0000
     1.0000   1.0000   1.0000   1.0000   1.0000   1.0000   1.0000   1.0000
     1.0000   1.0000   1.0000   1.0000   1.0000   1.0000   1.0000   1.0000
     1.0000   1.0000   1.0000   1.0000   1.0000   1.0000   1.0000   1.0000
     1.0000   1.0000   1.0000   1.0000   1.0000   1.0000   1.0000   1.0000
     0.0000   0.0000   0.0000   0.0000   0.0000   0.0000   0.0000   0.0000
     0.0000   0.0000

          k = 0.0000-1.3581 0.6403 ( 14066 PWs)   bands (ev):

   -13.2666 -13.2666 -13.2608 -13.2608 -13.2405 -13.2405 -13.2359 -13.2359
   -13.2290 -13.2290 -13.2238 -13.2238 -13.2105 -13.2105 -13.2013 -13.2013
   -13.1814 -13.1814 -13.1761 -13.1761  -4.5625  -4.5625  -4.5157  -4.5157
     0.7132   0.7132   1.2582   1.2582   3.9047   3.9047   4.2930   4.2930
     5.0676   5.0676   5.7322   5.7322   6.1378   6.1378   7.1989   7.1989
     9.4523   9.4523  11.0076  11.0076  11.9092  11.9092  12.2320  12.2320
    12.6159  12.6159

     occupation numbers 
     1.0000   1.0000   1.0000   1.0000   1.0000   1.0000   1.0000   1.0000
     1.0000   1.0000   1.0000   1.0000   1.0000   1.0000   1.0000   1.0000
     1.0000   1.0000   1.0000   1.0000   1.0000   1.0000   1.0000   1.0000
     1.0000   1.0000   1.0000   1.0000   1.0000   1.0000   1.0000   1.0000
     1.0000   1.0000   1.0000   1.0000   1.0000   1.0000   1.0000   1.0000
     0.0000   0.0000   0.0000   0.0000   0.0000   0.0000   0.0000   0.0000
     0.0000   0.0000

          k = 0.0000-1.3581 0.9605 ( 14086 PWs)   bands (ev):

   -13.2710 -13.2710 -13.2642 -13.2642 -13.2402 -13.2402 -13.2342 -13.2342
   -13.2283 -13.2283 -13.2226 -13.2226 -13.2103 -13.2103 -13.1996 -13.1996
   -13.1817 -13.1817 -13.1755 -13.1755  -4.4670  -4.4670  -4.4398  -4.4398
     1.0702   1.0702   1.4023   1.4023   3.2697   3.2697   3.8267   3.8267
     4.5570   4.5570   5.3420   5.3420   5.7133   5.7133   6.8216   6.8216
    10.2920  10.2920  11.5278  11.5278  12.6423  12.6423  12.8358  12.8358
    13.1696  13.1696

     occupation numbers 
     1.0000   1.0000   1.0000   1.0000   1.0000   1.0000   1.0000   1.0000
     1.0000   1.0000   1.0000   1.0000   1.0000   1.0000   1.0000   1.0000
     1.0000   1.0000   1.0000   1.0000   1.0000   1.0000   1.0000   1.0000
     1.0000   1.0000   1.0000   1.0000   1.0000   1.0000   1.0000   1.0000
     1.0000   1.0000   1.0000   1.0000   1.0000   1.0000   1.0000   1.0000
     0.0000   0.0000   0.0000   0.0000   0.0000   0.0000   0.0000   0.0000
     0.0000   0.0000

          k = 0.0000-1.3581-1.2807 ( 14104 PWs)   bands (ev):

   -13.2728 -13.2728 -13.2656 -13.2656 -13.2401 -13.2401 -13.2336 -13.2336
   -13.2279 -13.2279 -13.2222 -13.2222 -13.2100 -13.2100 -13.1990 -13.1990
   -13.1817 -13.1817 -13.1753 -13.1753  -4.4214  -4.4214  -4.4116  -4.4116
     1.2901   1.2901   1.4402   1.4402   3.0373   3.0373   3.5528   3.5528
     4.4675   4.4675   4.9487   4.9487   5.8000   5.8000   6.6411   6.6411
    10.8668  10.8668  11.1739  11.1739  12.8441  12.8441  12.9766  12.9766
    13.7121  13.7121

     occupation numbers 
     1.0000   1.0000   1.0000   1.0000   1.0000   1.0000   1.0000   1.0000
     1.0000   1.0000   1.0000   1.0000   1.0000   1.0000   1.0000   1.0000
     1.0000   1.0000   1.0000   1.0000   1.0000   1.0000   1.0000   1.0000
     1.0000   1.0000   1.0000   1.0000   1.0000   1.0000   1.0000   1.0000
     1.0000   1.0000   1.0000   1.0000   1.0000   1.0000   1.0000   1.0000
     0.0000   0.0000   0.0000   0.0000   0.0000   0.0000   0.0000   0.0000
     0.0000   0.0000

          k = 0.3333 0.0000 0.0000 ( 14127 PWs)   bands (ev):

   -13.2644 -13.2583 -13.2527 -13.2509 -13.2494 -13.2476 -13.2413 -13.2394
   -13.2332 -13.2331 -13.2330 -13.2286 -13.2171 -13.2137 -13.1965 -13.1941
   -13.1870 -13.1852 -13.1737 -13.1690  -5.6838  -5.5183  -4.5052  -4.2648
     0.9613   1.4153   2.9565   3.0516   3.5846   4.3858   4.7496   4.9333
     4.9843   5.3932   6.0547   6.1286   6.1485   6.3924   7.4739   7.5626
    10.0729  10.7130  10.8031  11.2447  11.5918  11.7133  12.0113  12.3242
    12.9918  13.0548

     occupation numbers 
     1.0000   1.0000   1.0000   1.0000   1.0000   1.0000   1.0000   1.0000
     1.0000   1.0000   1.0000   1.0000   1.0000   1.0000   1.0000   1.0000
     1.0000   1.0000   1.0000   1.0000   1.0000   1.0000   1.0000   1.0000
     1.0000   1.0000   1.0000   1.0000   1.0000   1.0000   1.0000   1.0000
     1.0000   1.0000   1.0000   1.0000   1.0000   1.0000   1.0000   1.0000
     0.0000   0.0000   0.0000   0.0000   0.0000   0.0000   0.0000   0.0000
     0.0000   0.0000

          k = 0.3333 0.0000 0.3202 ( 14117 PWs)   bands (ev):

   -13.2637 -13.2579 -13.2520 -13.2503 -13.2501 -13.2484 -13.2421 -13.2401
   -13.2326 -13.2319 -13.2312 -13.2285 -13.2169 -13.2139 -13.1965 -13.1939
   -13.1874 -13.1856 -13.1735 -13.1692  -5.6179  -5.4555  -4.5020  -4.2750
     0.7492   1.2344   2.5484   2.7666   3.6868   4.5700   4.8505   5.0808
     5.1475   5.5637   6.1138   6.2610   6.4352   6.6093   7.3667   7.5516
    10.0271  10.5411  10.9475  11.1488  11.1853  11.3811  11.5900  12.1838
    12.8258  12.9464

     occupation numbers 
     1.0000   1.0000   1.0000   1.0000   1.0000   1.0000   1.0000   1.0000
     1.0000   1.0000   1.0000   1.0000   1.0000   1.0000   1.0000   1.0000
     1.0000   1.0000   1.0000   1.0000   1.0000   1.0000   1.0000   1.0000
     1.0000   1.0000   1.0000   1.0000   1.0000   1.0000   1.0000   1.0000
     1.0000   1.0000   1.0000   1.0000   1.0000   1.0000   1.0000   1.0000
     0.0000   0.0000   0.0000   0.0000   0.0000   0.0000   0.0000   0.0000
     0.0000   0.0000

          k = 0.3333 0.0000 0.6403 ( 14108 PWs)   bands (ev):

   -13.2617 -13.2569 -13.2518 -13.2508 -13.2503 -13.2492 -13.2438 -13.2420
   -13.2315 -13.2284 -13.2281 -13.2270 -13.2167 -13.2147 -13.1963 -13.1935
   -13.1885 -13.1867 -13.1730 -13.1698  -5.4325  -5.2793  -4.5167  -4.3246
     0.3449   0.8277   1.8541   2.1865   3.9245   4.8989   5.1388   5.3542
     5.5858   5.8968   6.2459   6.5150   6.7717   7.0570   7.3340   7.6195
     9.7214  10.1139  10.3333  10.5288  10.7732  10.8050  11.2570  12.0403
    12.1235  12.5333

     occupation numbers 
     1.0000   1.0000   1.0000   1.0000   1.0000   1.0000   1.0000   1.0000
     1.0000   1.0000   1.0000   1.0000   1.0000   1.0000   1.0000   1.0000
     1.0000   1.0000   1.0000   1.0000   1.0000   1.0000   1.0000   1.0000
     1.0000   1.0000   1.0000   1.0000   1.0000   1.0000   1.0000   1.0000
     1.0000   1.0000   1.0000   1.0000   1.0000   1.0000   1.0000   1.0000
     0.0000   0.0000   0.0000   0.0000   0.0000   0.0000   0.0000   0.0000
     0.0000   0.0000

          k = 0.3333 0.0000 0.9605 ( 14102 PWs)   bands (ev):

   -13.2591 -13.2561 -13.2533 -13.2524 -13.2498 -13.2486 -13.2452 -13.2441
   -13.2303 -13.2285 -13.2233 -13.2224 -13.2172 -13.2162 -13.1955 -13.1934
   -13.1893 -13.1880 -13.1723 -13.1706  -5.1691  -5.0359  -4.5983  -4.4514
     0.0848   0.4164   1.3622   1.6218   4.3340   5.2098   5.5583   5.6118
     5.7407   6.2044   6.3041   6.4916   7.0316   7.1953   7.8024   7.9724
     9.1591   9.5159   9.7534  10.0292  10.0846  10.4845  10.8679  11.2981
    11.6470  11.7675

     occupation numbers 
     1.0000   1.0000   1.0000   1.0000   1.0000   1.0000   1.0000   1.0000
     1.0000   1.0000   1.0000   1.0000   1.0000   1.0000   1.0000   1.0000
     1.0000   1.0000   1.0000   1.0000   1.0000   1.0000   1.0000   1.0000
     1.0000   1.0000   1.0000   1.0000   1.0000   1.0000   1.0000   1.0000
     1.0000   1.0000   1.0000   1.0000   1.0000   1.0000   1.0000   1.0000
     0.0000   0.0000   0.0000   0.0000   0.0000   0.0000   0.0000   0.0000
     0.0000   0.0000

          k = 0.3333 0.0000-1.2807 ( 14126 PWs)   bands (ev):

   -13.2569 -13.2569 -13.2536 -13.2536 -13.2490 -13.2490 -13.2453 -13.2453
   -13.2292 -13.2292 -13.2192 -13.2192 -13.2187 -13.2187 -13.1943 -13.1943
   -13.1890 -13.1890 -13.1715 -13.1715  -4.9326  -4.9326  -4.6335  -4.6335
     0.1243   0.1243   1.2938   1.2938   4.8620   4.8620   5.9211   5.9211
     5.9369   5.9369   6.2897   6.2897   7.4880   7.4880   7.8281   7.8281
     9.2567   9.2567   9.6988   9.6988   9.8292   9.8292  11.1460  11.1460
    11.2302  11.2302

     occupation numbers 
     1.0000   1.0000   1.0000   1.0000   1.0000   1.0000   1.0000   1.0000
     1.0000   1.0000   1.0000   1.0000   1.0000   1.0000   1.0000   1.0000
     1.0000   1.0000   1.0000   1.0000   1.0000   1.0000   1.0000   1.0000
     1.0000   1.0000   1.0000   1.0000   1.0000   1.0000   1.0000   1.0000
     1.0000   1.0000   1.0000   1.0000   1.0000   1.0000   1.0000   1.0000
     0.0000   0.0000   0.0000   0.0000   0.0000   0.0000   0.0000   0.0000
     0.0000   0.0000

          k = 0.3333 0.3395 0.0000 ( 14103 PWs)   bands (ev):

   -13.2612 -13.2561 -13.2508 -13.2507 -13.2493 -13.2493 -13.2434 -13.2412
   -13.2352 -13.2318 -13.2302 -13.2298 -13.2157 -13.2137 -13.1952 -13.1940
   -13.1869 -13.1866 -13.1741 -13.1701  -5.6018  -5.4420  -4.4797  -4.2593
     0.8382   1.2682   2.6453   2.6587   3.6466   4.4773   4.6990   4.9823
     5.2109   5.5047   6.0515   6.1853   6.4020   6.4659   7.5225   7.5597
    10.1505  10.5902  10.9286  11.0241  11.2596  11.4531  11.5296  12.1895
    12.8250  13.1025

     occupation numbers 
     1.0000   1.0000   1.0000   1.0000   1.0000   1.0000   1.0000   1.0000
     1.0000   1.0000   1.0000   1.0000   1.0000   1.0000   1.0000   1.0000
     1.0000   1.0000   1.0000   1.0000   1.0000   1.0000   1.0000   1.0000
     1.0000   1.0000   1.0000   1.0000   1.0000   1.0000   1.0000   1.0000
     1.0000   1.0000   1.0000   1.0000   1.0000   1.0000   1.0000   1.0000
     0.0000   0.0000   0.0000   0.0000   0.0000   0.0000   0.0000   0.0000
     0.0000   0.0000

          k = 0.3333 0.3395 0.3202 ( 14099 PWs)   bands (ev):

   -13.2608 -13.2559 -13.2516 -13.2501 -13.2499 -13.2487 -13.2441 -13.2421
   -13.2347 -13.2310 -13.2290 -13.2287 -13.2157 -13.2138 -13.1952 -13.1937
   -13.1875 -13.1871 -13.1739 -13.1702  -5.5372  -5.3806  -4.4757  -4.2673
     0.6947   1.1606   2.3589   2.5018   3.7356   4.3550   4.6038   4.9379
     5.4540   5.8135   5.8909   6.0529   6.7980   7.0199   7.4310   7.5785
     9.9539  10.1124  10.5205  10.9573  11.1360  11.3800  11.7752  12.1905
    12.4154  12.7046

     occupation numbers 
     1.0000   1.0000   1.0000   1.0000   1.0000   1.0000   1.0000   1.0000
     1.0000   1.0000   1.0000   1.0000   1.0000   1.0000   1.0000   1.0000
     1.0000   1.0000   1.0000   1.0000   1.0000   1.0000   1.0000   1.0000
     1.0000   1.0000   1.0000   1.0000   1.0000   1.0000   1.0000   1.0000
     1.0000   1.0000   1.0000   1.0000   1.0000   1.0000   1.0000   1.0000
     0.0000   0.0000   0.0000   0.0000   0.0000   0.0000   0.0000   0.0000
     0.0000   0.0000

          k = 0.3333 0.3395 0.6403 ( 14103 PWs)   bands (ev):

   -13.2597 -13.2555 -13.2537 -13.2517 -13.2485 -13.2476 -13.2454 -13.2441
   -13.2334 -13.2304 -13.2257 -13.2251 -13.2158 -13.2141 -13.1950 -13.1930
   -13.1888 -13.1882 -13.1734 -13.1706  -5.3563  -5.2092  -4.4870  -4.3098
     0.3902   0.8648   1.8234   2.0992   3.9576   4.3293   4.5780   5.2596
     5.4034   5.7514   6.3100   6.4513   7.1554   7.2430   7.4162   7.5902
     9.5949   9.6825  10.1410  10.4804  10.7802  11.2047  11.6105  11.7232
    12.4015  12.5418

     occupation numbers 
     1.0000   1.0000   1.0000   1.0000   1.0000   1.0000   1.0000   1.0000
     1.0000   1.0000   1.0000   1.0000   1.0000   1.0000   1.0000   1.0000
     1.0000   1.0000   1.0000   1.0000   1.0000   1.0000   1.0000   1.0000
     1.0000   1.0000   1.0000   1.0000   1.0000   1.0000   1.0000   1.0000
     1.0000   1.0000   1.0000   1.0000   1.0000   1.0000   1.0000   1.0000
     0.0000   0.0000   0.0000   0.0000   0.0000   0.0000   0.0000   0.0000
     0.0000   0.0000

          k = 0.3333 0.3395 0.9605 ( 14120 PWs)   bands (ev):

   -13.2585 -13.2562 -13.2548 -13.2533 -13.2477 -13.2470 -13.2464 -13.2455
   -13.2321 -13.2305 -13.2216 -13.2208 -13.2164 -13.2150 -13.1941 -13.1922
   -13.1904 -13.1895 -13.1726 -13.1711  -5.1013  -4.9742  -4.5608  -4.4240
     0.1796   0.5031   1.4204   1.6494   4.2955   4.5889   4.8800   5.2979
     5.5517   5.7438   6.1144   6.5536   7.1160   7.2865   7.4840   7.5902
     9.4305   9.7737   9.8914  10.1512  10.6045  10.9835  11.0917  11.3456
    12.3065  12.4336

     occupation numbers 
     1.0000   1.0000   1.0000   1.0000   1.0000   1.0000   1.0000   1.0000
     1.0000   1.0000   1.0000   1.0000   1.0000   1.0000   1.0000   1.0000
     1.0000   1.0000   1.0000   1.0000   1.0000   1.0000   1.0000   1.0000
     1.0000   1.0000   1.0000   1.0000   1.0000   1.0000   1.0000   1.0000
     1.0000   1.0000   1.0000   1.0000   1.0000   1.0000   1.0000   1.0000
     0.0000   0.0000   0.0000   0.0000   0.0000   0.0000   0.0000   0.0000
     0.0000   0.0000

          k = 0.3333 0.3395-1.2807 ( 14120 PWs)   bands (ev):

   -13.2576 -13.2576 -13.2543 -13.2543 -13.2475 -13.2475 -13.2461 -13.2461
   -13.2311 -13.2311 -13.2187 -13.2187 -13.2167 -13.2167 -13.1928 -13.1928
   -13.1906 -13.1906 -13.1718 -13.1718  -4.8749  -4.8749  -4.5927  -4.5927
     0.2263   0.2263   1.3683   1.3683   4.6997   4.6997   5.1585   5.1585
     5.5478   5.5478   6.2259   6.2259   7.2131   7.2131   7.5424   7.5424
     9.5953   9.5953   9.9516   9.9516  10.6564  10.6564  11.2774  11.2774
    12.0570  12.0570

     occupation numbers 
     1.0000   1.0000   1.0000   1.0000   1.0000   1.0000   1.0000   1.0000
     1.0000   1.0000   1.0000   1.0000   1.0000   1.0000   1.0000   1.0000
     1.0000   1.0000   1.0000   1.0000   1.0000   1.0000   1.0000   1.0000
     1.0000   1.0000   1.0000   1.0000   1.0000   1.0000   1.0000   1.0000
     1.0000   1.0000   1.0000   1.0000   1.0000   1.0000   1.0000   1.0000
     0.0000   0.0000   0.0000   0.0000   0.0000   0.0000   0.0000   0.0000
     0.0000   0.0000

          k = 0.3333 0.6790 0.0000 ( 14099 PWs)   bands (ev):

   -13.2563 -13.2560 -13.2521 -13.2508 -13.2466 -13.2456 -13.2445 -13.2443
   -13.2361 -13.2333 -13.2281 -13.2259 -13.2140 -13.2130 -13.1960 -13.1943
   -13.1885 -13.1853 -13.1749 -13.1725  -5.3689  -5.2285  -4.4364  -4.2769
     0.5576   0.9372   1.8210   2.0060   3.8851   4.7499   4.8893   5.1270
     5.5233   5.7664   6.1779   6.3057   6.4679   6.7989   7.5026   7.7016
     9.3637  10.0133  10.3872  10.5538  10.7480  11.2859  11.3454  11.9449
    12.3031  12.3543

     occupation numbers 
     1.0000   1.0000   1.0000   1.0000   1.0000   1.0000   1.0000   1.0000
     1.0000   1.0000   1.0000   1.0000   1.0000   1.0000   1.0000   1.0000
     1.0000   1.0000   1.0000   1.0000   1.0000   1.0000   1.0000   1.0000
     1.0000   1.0000   1.0000   1.0000   1.0000   1.0000   1.0000   1.0000
     1.0000   1.0000   1.0000   1.0000   1.0000   1.0000   1.0000   1.0000
     0.0000   0.0000   0.0000   0.0000   0.0000   0.0000   0.0000   0.0000
     0.0000   0.0000

          k = 0.3333 0.6790 0.3202 ( 14106 PWs)   bands (ev):

   -13.2580 -13.2565 -13.2530 -13.2513 -13.2467 -13.2452 -13.2445 -13.2434
   -13.2356 -13.2331 -13.2269 -13.2248 -13.2144 -13.2126 -13.1959 -13.1944
   -13.1886 -13.1857 -13.1747 -13.1724  -5.3092  -5.1721  -4.4289  -4.2772
     0.5450   0.9548   1.7910   1.9245   3.9098   4.1940   4.5507   5.0453
     5.4613   5.7887   6.1731   6.2894   6.9114   7.0274   7.4732   7.5761
     9.4180   9.6073  10.2540  10.5199  10.8759  11.1732  11.5477  11.8697
    12.2308  12.6092

     occupation numbers 
     1.0000   1.0000   1.0000   1.0000   1.0000   1.0000   1.0000   1.0000
     1.0000   1.0000   1.0000   1.0000   1.0000   1.0000   1.0000   1.0000
     1.0000   1.0000   1.0000   1.0000   1.0000   1.0000   1.0000   1.0000
     1.0000   1.0000   1.0000   1.0000   1.0000   1.0000   1.0000   1.0000
     1.0000   1.0000   1.0000   1.0000   1.0000   1.0000   1.0000   1.0000
     0.0000   0.0000   0.0000   0.0000   0.0000   0.0000   0.0000   0.0000
     0.0000   0.0000

          k = 0.3333 0.6790 0.6403 ( 14109 PWs)   bands (ev):

   -13.2608 -13.2588 -13.2552 -13.2535 -13.2462 -13.2447 -13.2429 -13.2425
   -13.2344 -13.2328 -13.2239 -13.2220 -13.2145 -13.2123 -13.1956 -13.1944
   -13.1890 -13.1866 -13.1741 -13.1723  -5.1437  -5.0167  -4.4270  -4.2955
     0.4932   0.9297   1.6495   1.7870   3.7194   3.8357   4.3861   4.8511
     4.9664   5.5755   6.3135   6.5196   6.6036   6.6836   7.4463   7.6016
     9.5978   9.9752  10.1422  10.5111  10.8655  11.2936  11.5958  12.1438
    12.5387  12.9360

     occupation numbers 
     1.0000   1.0000   1.0000   1.0000   1.0000   1.0000   1.0000   1.0000
     1.0000   1.0000   1.0000   1.0000   1.0000   1.0000   1.0000   1.0000
     1.0000   1.0000   1.0000   1.0000   1.0000   1.0000   1.0000   1.0000
     1.0000   1.0000   1.0000   1.0000   1.0000   1.0000   1.0000   1.0000
     1.0000   1.0000   1.0000   1.0000   1.0000   1.0000   1.0000   1.0000
     0.0000   0.0000   0.0000   0.0000   0.0000   0.0000   0.0000   0.0000
     0.0000   0.0000

          k = 0.3333 0.6790 0.9605 ( 14099 PWs)   bands (ev):

   -13.2631 -13.2618 -13.2573 -13.2563 -13.2452 -13.2440 -13.2419 -13.2418
   -13.2333 -13.2326 -13.2207 -13.2194 -13.2138 -13.2123 -13.1952 -13.1945
   -13.1890 -13.1876 -13.1733 -13.1724  -4.9166  -4.8094  -4.4741  -4.3690
     0.4427   0.7355   1.5281   1.6563   3.6723   3.8180   4.4690   4.6073
     4.8104   5.4527   5.8616   6.1214   6.3297   6.4909   7.1289   7.3847
     9.8227  10.4108  10.6524  10.8624  11.3344  11.5418  11.7600  12.2099
    12.6663  12.9715

     occupation numbers 
     1.0000   1.0000   1.0000   1.0000   1.0000   1.0000   1.0000   1.0000
     1.0000   1.0000   1.0000   1.0000   1.0000   1.0000   1.0000   1.0000
     1.0000   1.0000   1.0000   1.0000   1.0000   1.0000   1.0000   1.0000
     1.0000   1.0000   1.0000   1.0000   1.0000   1.0000   1.0000   1.0000
     1.0000   1.0000   1.0000   1.0000   1.0000   1.0000   1.0000   1.0000
     0.0000   0.0000   0.0000   0.0000   0.0000   0.0000   0.0000   0.0000
     0.0000   0.0000

          k = 0.3333 0.6790-1.2807 ( 14116 PWs)   bands (ev):

   -13.2635 -13.2635 -13.2578 -13.2578 -13.2443 -13.2443 -13.2416 -13.2416
   -13.2327 -13.2327 -13.2189 -13.2189 -13.2128 -13.2128 -13.1947 -13.1947
   -13.1885 -13.1885 -13.1727 -13.1727  -4.7232  -4.7232  -4.4952  -4.4952
     0.5158   0.5158   1.5398   1.5398   3.9836   3.9836   4.2003   4.2003
     5.1938   5.1938   5.8277   5.8277   6.3217   6.3217   7.0440   7.0440
    10.2096  10.2096  11.2036  11.2036  11.4159  11.4159  12.1440  12.1440
    12.9369  12.9369

     occupation numbers 
     1.0000   1.0000   1.0000   1.0000   1.0000   1.0000   1.0000   1.0000
     1.0000   1.0000   1.0000   1.0000   1.0000   1.0000   1.0000   1.0000
     1.0000   1.0000   1.0000   1.0000   1.0000   1.0000   1.0000   1.0000
     1.0000   1.0000   1.0000   1.0000   1.0000   1.0000   1.0000   1.0000
     1.0000   1.0000   1.0000   1.0000   1.0000   1.0000   1.0000   1.0000
     0.0000   0.0000   0.0000   0.0000   0.0000   0.0000   0.0000   0.0000
     0.0000   0.0000

          k = 0.3333 1.0186 0.0000 ( 14078 PWs)   bands (ev):

   -13.2589 -13.2575 -13.2558 -13.2540 -13.2425 -13.2422 -13.2417 -13.2392
   -13.2336 -13.2330 -13.2269 -13.2233 -13.2134 -13.2099 -13.2008 -13.2007
   -13.1844 -13.1817 -13.1759 -13.1754  -5.0300  -4.9292  -4.4636  -4.3985
     0.3664   0.7196   1.0300   1.3260   4.3323   5.1989   5.2015   5.4582
     5.5959   6.0849   6.2504   6.2737   6.6860   6.7337   7.4793   7.6187
     9.0133   9.2584   9.9387   9.9861  10.5136  10.5382  10.6928  11.0712
    11.3443  12.0733

     occupation numbers 
     1.0000   1.0000   1.0000   1.0000   1.0000   1.0000   1.0000   1.0000
     1.0000   1.0000   1.0000   1.0000   1.0000   1.0000   1.0000   1.0000
     1.0000   1.0000   1.0000   1.0000   1.0000   1.0000   1.0000   1.0000
     1.0000   1.0000   1.0000   1.0000   1.0000   1.0000   1.0000   1.0000
     1.0000   1.0000   1.0000   1.0000   1.0000   1.0000   1.0000   1.0000
     0.0000   0.0000   0.0000   0.0000   0.0000   0.0000   0.0000   0.0000
     0.0000   0.0000

          k = 0.3333 1.0186 0.3202 ( 14080 PWs)   bands (ev):

   -13.2607 -13.2589 -13.2573 -13.2555 -13.2424 -13.2413 -13.2409 -13.2389
   -13.2328 -13.2326 -13.2261 -13.2229 -13.2130 -13.2098 -13.2007 -13.2003
   -13.1844 -13.1819 -13.1757 -13.1752  -4.9801  -4.8826  -4.4470  -4.3839
     0.4364   0.7936   1.0887   1.3442   4.2665   4.4027   4.8423   5.2182
     5.5508   5.7469   6.0561   6.4138   6.7034   6.8437   7.2021   7.3727
     9.4637   9.5400   9.7794   9.9314  10.8264  10.8488  11.2273  11.5105
    11.8851  12.4350

     occupation numbers 
     1.0000   1.0000   1.0000   1.0000   1.0000   1.0000   1.0000   1.0000
     1.0000   1.0000   1.0000   1.0000   1.0000   1.0000   1.0000   1.0000
     1.0000   1.0000   1.0000   1.0000   1.0000   1.0000   1.0000   1.0000
     1.0000   1.0000   1.0000   1.0000   1.0000   1.0000   1.0000   1.0000
     1.0000   1.0000   1.0000   1.0000   1.0000   1.0000   1.0000   1.0000
     0.0000   0.0000   0.0000   0.0000   0.0000   0.0000   0.0000   0.0000
     0.0000   0.0000

          k = 0.3333 1.0186 0.6403 ( 14089 PWs)   bands (ev):

   -13.2646 -13.2627 -13.2606 -13.2590 -13.2418 -13.2399 -13.2394 -13.2382
   -13.2317 -13.2314 -13.2243 -13.2218 -13.2118 -13.2095 -13.2002 -13.1996
   -13.1843 -13.1824 -13.1753 -13.1749  -4.8457  -4.7583  -4.4150  -4.3567
     0.6139   0.9626   1.2509   1.3870   3.6321   3.8352   4.5812   4.6453
     4.8043   5.3271   5.6351   6.0971   6.1642   6.6120   6.8865   7.3431
     9.6855  10.2691  10.4647  10.8681  11.1953  11.3688  12.0760  12.1740
    12.2566  12.5544

     occupation numbers 
     1.0000   1.0000   1.0000   1.0000   1.0000   1.0000   1.0000   1.0000
     1.0000   1.0000   1.0000   1.0000   1.0000   1.0000   1.0000   1.0000
     1.0000   1.0000   1.0000   1.0000   1.0000   1.0000   1.0000   1.0000
     1.0000   1.0000   1.0000   1.0000   1.0000   1.0000   1.0000   1.0000
     1.0000   1.0000   1.0000   1.0000   1.0000   1.0000   1.0000   1.0000
     0.0000   0.0000   0.0000   0.0000   0.0000   0.0000   0.0000   0.0000
     0.0000   0.0000

          k = 0.3333 1.0186 0.9605 ( 14110 PWs)   bands (ev):

   -13.2680 -13.2669 -13.2635 -13.2626 -13.2410 -13.2397 -13.2381 -13.2374
   -13.2306 -13.2303 -13.2224 -13.2210 -13.2101 -13.2090 -13.1994 -13.1990
   -13.1840 -13.1829 -13.1748 -13.1746  -4.6728  -4.6032  -4.4096  -4.3576
     0.8004   1.0221   1.4801   1.4995   3.2625   3.5146   3.9391   4.2925
     4.4061   4.8395   4.9988   5.5916   6.0125   6.4875   6.7078   6.9977
    10.0938  10.7191  11.0403  11.3912  11.5471  11.8698  12.6944  12.8055
    13.0918  13.2595

     occupation numbers 
     1.0000   1.0000   1.0000   1.0000   1.0000   1.0000   1.0000   1.0000
     1.0000   1.0000   1.0000   1.0000   1.0000   1.0000   1.0000   1.0000
     1.0000   1.0000   1.0000   1.0000   1.0000   1.0000   1.0000   1.0000
     1.0000   1.0000   1.0000   1.0000   1.0000   1.0000   1.0000   1.0000
     1.0000   1.0000   1.0000   1.0000   1.0000   1.0000   1.0000   1.0000
     0.0000   0.0000   0.0000   0.0000   0.0000   0.0000   0.0000   0.0000
     0.0000   0.0000

          k = 0.3333 1.0186-1.2807 ( 14104 PWs)   bands (ev):

   -13.2689 -13.2689 -13.2644 -13.2644 -13.2403 -13.2403 -13.2373 -13.2373
   -13.2300 -13.2300 -13.2212 -13.2212 -13.2090 -13.2090 -13.1989 -13.1989
   -13.1835 -13.1835 -13.1745 -13.1745  -4.5408  -4.5408  -4.4096  -4.4096
     0.9305   0.9305   1.6025   1.6025   3.3814   3.3814   3.6942   3.6942
     4.5296   4.5296   5.0580   5.0580   6.2045   6.2045   6.8051   6.8051
    10.3727  10.3727  11.2922  11.2922  12.4611  12.4611  12.5944  12.5944
    13.8765  13.8766

     occupation numbers 
     1.0000   1.0000   1.0000   1.0000   1.0000   1.0000   1.0000   1.0000
     1.0000   1.0000   1.0000   1.0000   1.0000   1.0000   1.0000   1.0000
     1.0000   1.0000   1.0000   1.0000   1.0000   1.0000   1.0000   1.0000
     1.0000   1.0000   1.0000   1.0000   1.0000   1.0000   1.0000   1.0000
     1.0000   1.0000   1.0000   1.0000   1.0000   1.0000   1.0000   1.0000
     0.0000   0.0000   0.0000   0.0000   0.0000   0.0000   0.0000   0.0000
     0.0000   0.0000

          k = 0.3333-1.3581 0.0000 ( 14072 PWs)   bands (ev):

   -13.2591 -13.2591 -13.2572 -13.2572 -13.2406 -13.2406 -13.2398 -13.2398
   -13.2287 -13.2287 -13.2270 -13.2270 -13.2082 -13.2082 -13.2058 -13.2058
   -13.1794 -13.1794 -13.1781 -13.1781  -4.6697  -4.6697  -4.6380  -4.6380
     0.5058   0.5058   0.8473   0.8473   4.8989   4.8989   5.6534   5.6534
     5.9018   5.9018   6.1146   6.1146   7.0124   7.0124   7.1680   7.1680
     9.3734   9.3734   9.6785   9.6785  10.0646  10.0646  10.4225  10.4225
    11.5378  11.5378

     occupation numbers 
     1.0000   1.0000   1.0000   1.0000   1.0000   1.0000   1.0000   1.0000
     1.0000   1.0000   1.0000   1.0000   1.0000   1.0000   1.0000   1.0000
     1.0000   1.0000   1.0000   1.0000   1.0000   1.0000   1.0000   1.0000
     1.0000   1.0000   1.0000   1.0000   1.0000   1.0000   1.0000   1.0000
     1.0000   1.0000   1.0000   1.0000   1.0000   1.0000   1.0000   1.0000
     0.0000   0.0000   0.0000   0.0000   0.0000   0.0000   0.0000   0.0000
     0.0000   0.0000

          k = 0.3333-1.3581 0.3202 ( 14046 PWs)   bands (ev):

   -13.2609 -13.2609 -13.2587 -13.2587 -13.2403 -13.2403 -13.2389 -13.2389
   -13.2285 -13.2285 -13.2264 -13.2264 -13.2083 -13.2083 -13.2050 -13.2050
   -13.1796 -13.1796 -13.1778 -13.1778  -4.6359  -4.6359  -4.6063  -4.6063
     0.5918   0.5918   0.9166   0.9166   4.7205   4.7205   5.0035   5.0035
     5.5529   5.5529   6.0969   6.0969   6.8271   6.8271   7.1323   7.1323
     9.4448   9.4448   9.7391   9.7391  10.8523  10.8523  11.2384  11.2384
    11.8487  11.8487

     occupation numbers 
     1.0000   1.0000   1.0000   1.0000   1.0000   1.0000   1.0000   1.0000
     1.0000   1.0000   1.0000   1.0000   1.0000   1.0000   1.0000   1.0000
     1.0000   1.0000   1.0000   1.0000   1.0000   1.0000   1.0000   1.0000
     1.0000   1.0000   1.0000   1.0000   1.0000   1.0000   1.0000   1.0000
     1.0000   1.0000   1.0000   1.0000   1.0000   1.0000   1.0000   1.0000
     0.0000   0.0000   0.0000   0.0000   0.0000   0.0000   0.0000   0.0000
     0.0000   0.0000

          k = 0.3333-1.3581 0.6403 ( 14088 PWs)   bands (ev):

   -13.2652 -13.2652 -13.2623 -13.2623 -13.2396 -13.2396 -13.2374 -13.2374
   -13.2277 -13.2277 -13.2253 -13.2253 -13.2079 -13.2079 -13.2034 -13.2034
   -13.1799 -13.1799 -13.1773 -13.1773  -4.5510  -4.5510  -4.5276  -4.5276
     0.8306   0.8306   1.0991   1.0991   4.0315   4.0315   4.2847   4.2847
     5.0576   5.0576   5.6395   5.6395   6.2832   6.2832   6.9204   6.9204
    10.0359  10.0359  10.8884  10.8884  11.4812  11.4812  11.8224  11.8224
    12.8091  12.8091

     occupation numbers 
     1.0000   1.0000   1.0000   1.0000   1.0000   1.0000   1.0000   1.0000
     1.0000   1.0000   1.0000   1.0000   1.0000   1.0000   1.0000   1.0000
     1.0000   1.0000   1.0000   1.0000   1.0000   1.0000   1.0000   1.0000
     1.0000   1.0000   1.0000   1.0000   1.0000   1.0000   1.0000   1.0000
     1.0000   1.0000   1.0000   1.0000   1.0000   1.0000   1.0000   1.0000
     0.0000   0.0000   0.0000   0.0000   0.0000   0.0000   0.0000   0.0000
     0.0000   0.0000

          k = 0.3333-1.3581 0.9605 ( 14106 PWs)   bands (ev):

   -13.2693 -13.2693 -13.2659 -13.2659 -13.2392 -13.2392 -13.2364 -13.2364
   -13.2267 -13.2267 -13.2242 -13.2242 -13.2071 -13.2071 -13.2020 -13.2020
   -13.1799 -13.1799 -13.1769 -13.1769  -4.4602  -4.4602  -4.4466  -4.4466
     1.1408   1.1408   1.3045   1.3045   3.4381   3.4381   3.8049   3.8049
     4.4396   4.4396   4.9479   4.9479   6.2261   6.2261   6.7843   6.7843
    10.4360  10.4360  11.0976  11.0976  12.3407  12.3407  12.4054  12.4054
    13.9347  13.9348

     occupation numbers 
     1.0000   1.0000   1.0000   1.0000   1.0000   1.0000   1.0000   1.0000
     1.0000   1.0000   1.0000   1.0000   1.0000   1.0000   1.0000   1.0000
     1.0000   1.0000   1.0000   1.0000   1.0000   1.0000   1.0000   1.0000
     1.0000   1.0000   1.0000   1.0000   1.0000   1.0000   1.0000   1.0000
     1.0000   1.0000   1.0000   1.0000   1.0000   1.0000   1.0000   1.0000
     0.0000   0.0000   0.0000   0.0000   0.0000   0.0000   0.0000   0.0000
     0.0000   0.0000

          k = 0.3333-1.3581-1.2807 ( 14092 PWs)   bands (ev):

   -13.2710 -13.2710 -13.2673 -13.2673 -13.2391 -13.2391 -13.2360 -13.2360
   -13.2263 -13.2263 -13.2238 -13.2238 -13.2066 -13.2066 -13.2014 -13.2014
   -13.1799 -13.1799 -13.1767 -13.1767  -4.4190  -4.4190  -4.4141  -4.4141
     1.3139   1.3139   1.3877   1.3877   3.2434   3.2434   3.6128   3.6128
     4.1997   4.1997   4.5803   4.5803   6.3018   6.3018   6.7193   6.7193
    10.6047  10.6047  10.8278  10.8278  12.8406  12.8406  12.8647  12.8647
    14.4531  14.4531

     occupation numbers 
     1.0000   1.0000   1.0000   1.0000   1.0000   1.0000   1.0000   1.0000
     1.0000   1.0000   1.0000   1.0000   1.0000   1.0000   1.0000   1.0000
     1.0000   1.0000   1.0000   1.0000   1.0000   1.0000   1.0000   1.0000
     1.0000   1.0000   1.0000   1.0000   1.0000   1.0000   1.0000   1.0000
     1.0000   1.0000   1.0000   1.0000   1.0000   1.0000   1.0000   1.0000
     0.0000   0.0000   0.0000   0.0000   0.0000   0.0000   0.0000   0.0000
     0.0000   0.0000

     highest occupied, lowest unoccupied level (ev):     8.0305    8.8494

!    total energy              =    -827.74617541 Ry
     estimated scf accuracy    <          9.9E-10 Ry

     The total energy is the sum of the following terms:
     one-electron contribution =    -257.00699792 Ry
     hartree contribution      =     179.10720788 Ry
     xc contribution           =    -309.11953581 Ry
     ewald contribution        =    -440.60481620 Ry
     DFT-D3 Dispersion         =      -0.12203337 Ry

     convergence has been achieved in   9 iterations

     Forces acting on atoms (cartesian axes, Ry/au):

     atom    1 type  2   force =     0.00781671    0.00000000    0.00014158
     atom    2 type  1   force =    -0.00860326    0.00000000   -0.00053365
     atom    3 type  2   force =    -0.00781671    0.00000000    0.00014158
     atom    4 type  1   force =     0.00860326    0.00000000   -0.00053365
     atom    5 type  2   force =     0.00781671    0.00000000   -0.00014158
     atom    6 type  1   force =    -0.00860326    0.00000000    0.00053365
     atom    7 type  2   force =    -0.00781671   -0.00000000   -0.00014158
     atom    8 type  1   force =     0.00860326   -0.00000000    0.00053365
     The non-local contrib.  to forces
     atom    1 type  2   force =    -0.11465160    0.00000000    0.09757713
     atom    2 type  1   force =     0.36489656    0.00000000    0.26963069
     atom    3 type  2   force =     0.11465160    0.00000000    0.09757713
     atom    4 type  1   force =    -0.36489656    0.00000000    0.26963069
     atom    5 type  2   force =    -0.11465160    0.00000000   -0.09757713
     atom    6 type  1   force =     0.36489656    0.00000000   -0.26963069
     atom    7 type  2   force =     0.11465160    0.00000000   -0.09757713
     atom    8 type  1   force =    -0.36489656    0.00000000   -0.26963069
     The ionic contribution  to forces
     atom    1 type  2   force =     1.53473235    0.00000000   -1.05154455
     atom    2 type  1   force =    -1.03769718    0.00000000   -0.57506129
     atom    3 type  2   force =    -1.53473235   -0.00000000   -1.05154455
     atom    4 type  1   force =     1.03769718   -0.00000000   -0.57506129
     atom    5 type  2   force =     1.53473235    0.00000000    1.05154455
     atom    6 type  1   force =    -1.03769718    0.00000000    0.57506129
     atom    7 type  2   force =    -1.53473235    0.00000000    1.05154455
     atom    8 type  1   force =     1.03769718    0.00000000    0.57506129
     The local contribution  to forces
     atom    1 type  2   force =    -1.42405569    0.00000000    0.96370721
     atom    2 type  1   force =     0.67029594   -0.00000000    0.30843317
     atom    3 type  2   force =     1.42405569   -0.00000000    0.96370721
     atom    4 type  1   force =    -0.67029594    0.00000000    0.30843317
     atom    5 type  2   force =    -1.42405569    0.00000000   -0.96370721
     atom    6 type  1   force =     0.67029594   -0.00000000   -0.30843317
     atom    7 type  2   force =     1.42405569    0.00000000   -0.96370721
     atom    8 type  1   force =    -0.67029594   -0.00000000   -0.30843317
     The core correction contribution to forces
     atom    1 type  2   force =     0.01254917   -0.00000000   -0.01079248
     atom    2 type  1   force =    -0.00549389    0.00000000   -0.00446232
     atom    3 type  2   force =    -0.01254917   -0.00000000   -0.01079248
     atom    4 type  1   force =     0.00549389   -0.00000000   -0.00446232
     atom    5 type  2   force =     0.01254917   -0.00000000    0.01079248
     atom    6 type  1   force =    -0.00549389    0.00000000    0.00446232
     atom    7 type  2   force =    -0.01254917   -0.00000000    0.01079248
     atom    8 type  1   force =     0.00549389   -0.00000000    0.00446232
     The Hubbard contrib.    to forces
     atom    1 type  2   force =     0.00000000    0.00000000    0.00000000
     atom    2 type  1   force =     0.00000000    0.00000000    0.00000000
     atom    3 type  2   force =     0.00000000    0.00000000    0.00000000
     atom    4 type  1   force =     0.00000000    0.00000000    0.00000000
     atom    5 type  2   force =     0.00000000    0.00000000    0.00000000
     atom    6 type  1   force =     0.00000000    0.00000000    0.00000000
     atom    7 type  2   force =     0.00000000    0.00000000    0.00000000
     atom    8 type  1   force =     0.00000000    0.00000000    0.00000000
     The SCF correction term to forces
     atom    1 type  2   force =     0.00002710    0.00000000    0.00000059
     atom    2 type  1   force =    -0.00004966    0.00000000    0.00003128
     atom    3 type  2   force =    -0.00002710    0.00000000    0.00000059
     atom    4 type  1   force =     0.00004966    0.00000000    0.00003128
     atom    5 type  2   force =     0.00002710   -0.00000000   -0.00000059
     atom    6 type  1   force =    -0.00004966    0.00000000   -0.00003128
     atom    7 type  2   force =    -0.00002710   -0.00000000   -0.00000059
     atom    8 type  1   force =     0.00004966   -0.00000000   -0.00003128

     DFT-D3 dispersion contribution to forces:
     atom    1 type  2   force =    -0.00078462   -0.00000000    0.00119368
     atom    2 type  1   force =    -0.00055504    0.00000000    0.00089483
     atom    3 type  2   force =     0.00078462    0.00000000    0.00119368
     atom    4 type  1   force =     0.00055504   -0.00000000    0.00089483
     atom    5 type  2   force =    -0.00078462   -0.00000000   -0.00119368
     atom    6 type  1   force =    -0.00055504   -0.00000000   -0.00089483
     atom    7 type  2   force =     0.00078462    0.00000000   -0.00119368
     atom    8 type  1   force =     0.00055504    0.00000000   -0.00089483

     Total force =     0.023274     Total SCF correction =     0.000129

     DFT-D3 dispersion Force =     0.003549

     Writing output data file ./tmp/SnSe_pnma.save/

     init_run     :     22.18s CPU     25.27s WALL (       1 calls)
     electrons    :    576.75s CPU    648.05s WALL (       1 calls)
     forces       :     18.58s CPU     19.96s WALL (       1 calls)

     Called by init_run:
     wfcinit      :     14.65s CPU     16.54s WALL (       1 calls)
     wfcinit:atom :      0.12s CPU      0.10s WALL (      17 calls)
     wfcinit:wfcr :     13.74s CPU     15.75s WALL (      17 calls)
     potinit      :      1.98s CPU      2.14s WALL (       1 calls)
     hinit0       :      3.05s CPU      3.11s WALL (       1 calls)

     Called by electrons:
     c_bands      :    480.99s CPU    539.49s WALL (       9 calls)
     sum_band     :     67.36s CPU     72.23s WALL (       9 calls)
     v_of_rho     :      5.85s CPU      6.85s WALL (      10 calls)
     v_h          :      0.47s CPU      0.54s WALL (      10 calls)
     v_xc         :      5.95s CPU      6.96s WALL (      11 calls)
     newd         :     23.05s CPU     30.96s WALL (      10 calls)
     mix_rho      :      1.08s CPU      1.13s WALL (       9 calls)

     Called by c_bands:
     init_us_2    :      3.56s CPU      3.20s WALL (     340 calls)
     cegterg      :    379.59s CPU    440.16s WALL (     153 calls)

     Called by sum_band:
     sum_band:wei :      0.02s CPU      0.03s WALL (       9 calls)
     sum_band:loo :     53.61s CPU     56.53s WALL (       9 calls)
     sum_band:buf :      0.41s CPU      0.35s WALL (     153 calls)
     sum_band:ini :      1.62s CPU      1.42s WALL (     153 calls)
     sum_band:cal :     14.73s CPU     18.70s WALL (     153 calls)
     sum_band:bec :      0.02s CPU      0.02s WALL (     153 calls)
     addusdens    :     10.88s CPU     12.89s WALL (       9 calls)
     addusd:skk   :      0.03s CPU      0.06s WALL (      18 calls)
     addusd:dgemm :      3.23s CPU      3.90s WALL (      18 calls)
     addusd:qvan2 :      6.87s CPU      7.16s WALL (      18 calls)

     Called by *egterg:
     cdiaghg      :     22.77s CPU     53.04s WALL (     679 calls)
     cegterg:over :     51.55s CPU     73.75s WALL (     526 calls)
     cegterg:upda :      9.31s CPU      5.77s WALL (     526 calls)
     cegterg:last :     16.43s CPU      7.31s WALL (     322 calls)
     h_psi        :    235.76s CPU    244.86s WALL (     696 calls)
     s_psi        :     17.56s CPU      7.25s WALL (     696 calls)
     g_psi        :      1.19s CPU      1.03s WALL (     526 calls)

     Called by h_psi:
     h_psi:calbec :     42.79s CPU     59.64s WALL (     696 calls)
     vloc_psi     :    173.65s CPU    176.40s WALL (     696 calls)
     add_vuspsi   :     18.30s CPU      7.71s WALL (     696 calls)

     General routines
     calbec       :     60.49s CPU     81.80s WALL (     917 calls)
     fft          :      5.55s CPU      6.03s WALL (     139 calls)
     ffts         :      0.22s CPU      0.22s WALL (      19 calls)
     fftw         :    173.25s CPU    175.47s WALL (   49458 calls)
     interpolate  :      0.60s CPU      0.62s WALL (      10 calls)

     Parallel routines
     fft_scatt_xy :     44.12s CPU     43.90s WALL (   49616 calls)
     fft_scatt_yz :     32.98s CPU     35.88s WALL (   49616 calls)

     PWSCF        :  10m17.89s CPU  11m34.06s WALL


   This run was terminated on:  23:11:12  18May2026            

=------------------------------------------------------------------------------=
   JOB DONE.
=------------------------------------------------------------------------------=
