
     Program PWSCF v.6.7MaX starts on 19May2026 at  8:34:49 

     This program is part of the open-source Quantum ESPRESSO suite
     for quantum simulation of materials; please cite
         "P. Giannozzi et al., J. Phys.:Condens. Matter 21 395502 (2009);
         "P. Giannozzi et al., J. Phys.:Condens. Matter 29 465901 (2017);
          URL http://www.quantum-espresso.org", 
     in publications or presentations arising from this work. More details at
     http://www.quantum-espresso.org/quote

     Parallel version (MPI), running on     6 processors

     MPI processes distributed on     1 nodes
     K-points division:     npool     =       3
     R & G space division:  proc/nbgrp/npool/nimage =       2
     Waiting for input...
     Reading input from standard input

     Current dimensions of program PWSCF are:
     Max number of different atomic species (ntypx) = 10
     Max number of k-points (npk) =  40000
     Max angular momentum in pseudopotentials (lmaxx) =  3

     --------------------------------------------
     Parameters for DFT-D3 Dispersion Correction:
     --------------------------------------------
       Reference C6 values for interpolation: 

         atom   Coordination number   C6
         Se         0.000           427.35
         Se         0.990           427.57
         Se         1.981           421.05
         Sn         0.000          1255.14
         Sn         0.951          1084.09
         Sn         1.950          1010.83
         Sn         2.926           818.29
         Sn         3.912           672.20

       Values used:

         atom   Coordination number  R0_AB[au]  C6      C8
         Se         3.637            3.332    421.05  29958.36
         Sn         4.405            3.957    672.26  84376.19
         Se         3.637            3.332    421.05  29958.36
         Sn         4.405            3.957    672.26  84376.19
         Se         3.637            3.332    421.05  29958.36
         Sn         4.405            3.957    672.26  84376.19
         Se         3.637            3.332    421.05  29958.36
         Sn         4.405            3.957    672.26  84376.19

         Molecular C6 ( Ry / a.u.^6 ) =     34497.83


     Subspace diagonalization in iterative solution of the eigenvalue problem:
     a serial algorithm will be used


     Parallelization info
     --------------------
     sticks:   dense  smooth     PW     G-vecs:    dense   smooth      PW
     Min        1355     543    173                34027     8618    1547
     Max        1356     544    174                34028     8619    1548
     Sum        2711    1087    347                68055    17237    3095



     bravais-lattice index     =            8
     lattice parameter (alat)  =      21.4862  a.u.
     unit-cell volume          =    1425.7436 (a.u.)^3
     number of atoms/cell      =            8
     number of atomic types    =            2
     number of electrons       =        80.00
     number of Kohn-Sham states=           50
     kinetic-energy cutoff     =      20.0000  Ry
     charge density cutoff     =     200.0000  Ry
     scf convergence threshold =      1.0E-08
     mixing beta               =       0.7000
     number of iterations used =            8  plain     mixing
     Exchange-correlation= SLA  PW   PBE  PBE
                           (   1   4   3   4   0   0   0)

     celldm(1)=  21.486186  celldm(2)=   0.368162  celldm(3)=   0.390413
     celldm(4)=   0.000000  celldm(5)=   0.000000  celldm(6)=   0.000000

     crystal axes: (cart. coord. in units of alat)
               a(1) = (   1.000000   0.000000   0.000000 )  
               a(2) = (   0.000000   0.368162   0.000000 )  
               a(3) = (   0.000000   0.000000   0.390413 )  

     reciprocal axes: (cart. coord. in units 2 pi/alat)
               b(1) = (  1.000000  0.000000  0.000000 )  
               b(2) = (  0.000000  2.716197  0.000000 )  
               b(3) = (  0.000000  0.000000  2.561388 )  


     PseudoPot. # 1 for Sn read from file:
     ../pseudo/Sn_pbe_v1.uspp.F.UPF
     MD5 check sum: 4cf58ce39ec5d5d420df3dd08604eb00
     Pseudo is Ultrasoft + core correction, Zval = 14.0
     Generated by new atomic code, or converted to UPF format
     Using radial grid of  891 points,  6 beta functions with: 
                l(1) =   0
                l(2) =   0
                l(3) =   1
                l(4) =   1
                l(5) =   2
                l(6) =   2
     Q(r) pseudized with  6 coefficients,  rinner =    1.200   1.200   1.200
                                                       1.200   1.200

     PseudoPot. # 2 for Se read from file:
     ../pseudo/Se_pbe_v1.uspp.F.UPF
     MD5 check sum: 1b3568f3a8ae88f9a2a0ad0698632c85
     Pseudo is Ultrasoft + core correction, Zval =  6.0
     Generated by new atomic code, or converted to UPF format
     Using radial grid of  877 points,  6 beta functions with: 
                l(1) =   0
                l(2) =   0
                l(3) =   1
                l(4) =   1
                l(5) =   2
                l(6) =   2
     Q(r) pseudized with  8 coefficients,  rinner =    1.300   1.300   1.300
                                                       1.300   1.300

     atomic species   valence    mass     pseudopotential
        Sn            14.00   118.71000     Sn( 1.00)
        Se             6.00    78.97100     Se( 1.00)

      8 Sym. Ops., with inversion, found ( 6 have fractional translation)


                                    s                        frac. trans.

      isym =  1     identity                                     

 cryst.   s( 1) = (     1          0          0      )
                  (     0          1          0      )
                  (     0          0          1      )

 cart.    s( 1) = (  1.0000000  0.0000000  0.0000000 )
                  (  0.0000000  1.0000000  0.0000000 )
                  (  0.0000000  0.0000000  1.0000000 )


      isym =  2     180 deg rotation - cart. axis [0,0,1]        

 cryst.   s( 2) = (    -1          0          0      )    f =(  0.5000000 )
                  (     0         -1          0      )       (  0.0000000 )
                  (     0          0          1      )       (  0.5000000 )

 cart.    s( 2) = ( -1.0000000  0.0000000  0.0000000 )    f =(  0.5000000 )
                  (  0.0000000 -1.0000000  0.0000000 )       (  0.0000000 )
                  (  0.0000000  0.0000000  1.0000000 )       (  0.1952067 )


      isym =  3     180 deg rotation - cart. axis [0,1,0]        

 cryst.   s( 3) = (    -1          0          0      )    f =( -0.0000000 )
                  (     0          1          0      )       ( -0.5000000 )
                  (     0          0         -1      )       (  0.0000000 )

 cart.    s( 3) = ( -1.0000000  0.0000000  0.0000000 )    f =( -0.0000000 )
                  (  0.0000000  1.0000000  0.0000000 )       ( -0.1840809 )
                  (  0.0000000  0.0000000 -1.0000000 )       (  0.0000000 )


      isym =  4     180 deg rotation - cart. axis [1,0,0]        

 cryst.   s( 4) = (     1          0          0      )    f =(  0.5000000 )
                  (     0         -1          0      )       (  0.5000000 )
                  (     0          0         -1      )       (  0.5000000 )

 cart.    s( 4) = (  1.0000000  0.0000000  0.0000000 )    f =(  0.5000000 )
                  (  0.0000000 -1.0000000  0.0000000 )       (  0.1840809 )
                  (  0.0000000  0.0000000 -1.0000000 )       (  0.1952067 )


      isym =  5     inversion                                    

 cryst.   s( 5) = (    -1          0          0      )
                  (     0         -1          0      )
                  (     0          0         -1      )

 cart.    s( 5) = ( -1.0000000  0.0000000  0.0000000 )
                  (  0.0000000 -1.0000000  0.0000000 )
                  (  0.0000000  0.0000000 -1.0000000 )


      isym =  6     inv. 180 deg rotation - cart. axis [0,0,1]   

 cryst.   s( 6) = (     1          0          0      )    f =(  0.5000000 )
                  (     0          1          0      )       (  0.0000000 )
                  (     0          0         -1      )       (  0.5000000 )

 cart.    s( 6) = (  1.0000000  0.0000000  0.0000000 )    f =(  0.5000000 )
                  (  0.0000000  1.0000000  0.0000000 )       (  0.0000000 )
                  (  0.0000000  0.0000000 -1.0000000 )       (  0.1952067 )


      isym =  7     inv. 180 deg rotation - cart. axis [0,1,0]   

 cryst.   s( 7) = (     1          0          0      )    f =(  0.0000000 )
                  (     0         -1          0      )       (  0.5000000 )
                  (     0          0          1      )       (  0.0000000 )

 cart.    s( 7) = (  1.0000000  0.0000000  0.0000000 )    f =(  0.0000000 )
                  (  0.0000000 -1.0000000  0.0000000 )       (  0.1840809 )
                  (  0.0000000  0.0000000  1.0000000 )       (  0.0000000 )


      isym =  8     inv. 180 deg rotation - cart. axis [1,0,0]   

 cryst.   s( 8) = (    -1          0          0      )    f =(  0.5000000 )
                  (     0          1          0      )       ( -0.5000000 )
                  (     0          0          1      )       (  0.5000000 )

 cart.    s( 8) = ( -1.0000000  0.0000000  0.0000000 )    f =(  0.5000000 )
                  (  0.0000000  1.0000000  0.0000000 )       ( -0.1840809 )
                  (  0.0000000  0.0000000  1.0000000 )       (  0.1952067 )


     point group D_2h (mmm) 
     there are  8 classes
     the character table:

       E     C2    C2'   C2''  i     s_v   s_v'  s_v''
A_g    1.00  1.00  1.00  1.00  1.00  1.00  1.00  1.00
B_1g   1.00  1.00 -1.00 -1.00  1.00  1.00 -1.00 -1.00
B_2g   1.00 -1.00  1.00 -1.00  1.00 -1.00  1.00 -1.00
B_3g   1.00 -1.00 -1.00  1.00  1.00 -1.00 -1.00  1.00
A_u    1.00  1.00  1.00  1.00 -1.00 -1.00 -1.00 -1.00
B_1u   1.00  1.00 -1.00 -1.00 -1.00 -1.00  1.00  1.00
B_2u   1.00 -1.00  1.00 -1.00 -1.00  1.00 -1.00  1.00
B_3u   1.00 -1.00 -1.00  1.00 -1.00  1.00  1.00 -1.00

     the symmetry operations in each class and the name of the first element:

     E        1
          identity                                               
     C2       2
          180 deg rotation - cart. axis [0,0,1]                  
     C2'      4
          180 deg rotation - cart. axis [1,0,0]                  
     C2''     3
          180 deg rotation - cart. axis [0,1,0]                  
     i        5
          inversion                                              
     s_v      6
          inv. 180 deg rotation - cart. axis [0,0,1]             
     s_v'     8
          inv. 180 deg rotation - cart. axis [1,0,0]             
     s_v''    7
          inv. 180 deg rotation - cart. axis [0,1,0]             

   Cartesian axes

     site n.     atom                  positions (alat units)
         1           Se  tau(   1) = (   0.8555000   0.0920405   0.1884916  )
         2           Sn  tau(   2) = (   0.1187000   0.0920405   0.0385728  )
         3           Se  tau(   3) = (   0.6445000   0.2761214   0.3836983  )
         4           Sn  tau(   4) = (   0.3813000   0.2761214   0.2337795  )
         5           Se  tau(   5) = (   0.3555000   0.0920405   0.0067151  )
         6           Sn  tau(   6) = (   0.6187000   0.0920405   0.1566338  )
         7           Se  tau(   7) = (   0.1445000   0.2761214   0.2019218  )
         8           Sn  tau(   8) = (   0.8813000   0.2761214   0.3518405  )

   Crystallographic axes

     site n.     atom                  positions (cryst. coord.)
         1           Se  tau(   1) = (  0.8555000  0.2500000  0.4828000  )
         2           Sn  tau(   2) = (  0.1187000  0.2500000  0.0988000  )
         3           Se  tau(   3) = (  0.6445000  0.7500000  0.9828000  )
         4           Sn  tau(   4) = (  0.3813000  0.7500000  0.5988000  )
         5           Se  tau(   5) = (  0.3555000  0.2500000  0.0172000  )
         6           Sn  tau(   6) = (  0.6187000  0.2500000  0.4012000  )
         7           Se  tau(   7) = (  0.1445000  0.7500000  0.5172000  )
         8           Sn  tau(   8) = (  0.8813000  0.7500000  0.9012000  )

     number of k points=    50
                       cart. coord. in units 2pi/alat
        k(    1) = (   0.0000000   0.0000000   0.0000000), wk =   0.0104167
        k(    2) = (   0.0000000   0.0000000   0.3201735), wk =   0.0208333
        k(    3) = (   0.0000000   0.0000000   0.6403469), wk =   0.0208333
        k(    4) = (   0.0000000   0.0000000   0.9605204), wk =   0.0208333
        k(    5) = (   0.0000000   0.0000000  -1.2806938), wk =   0.0104167
        k(    6) = (   0.0000000   0.3395246   0.0000000), wk =   0.0208333
        k(    7) = (   0.0000000   0.3395246   0.3201735), wk =   0.0416667
        k(    8) = (   0.0000000   0.3395246   0.6403469), wk =   0.0416667
        k(    9) = (   0.0000000   0.3395246   0.9605204), wk =   0.0416667
        k(   10) = (   0.0000000   0.3395246  -1.2806938), wk =   0.0208333
        k(   11) = (   0.0000000   0.6790492   0.0000000), wk =   0.0208333
        k(   12) = (   0.0000000   0.6790492   0.3201735), wk =   0.0416667
        k(   13) = (   0.0000000   0.6790492   0.6403469), wk =   0.0416667
        k(   14) = (   0.0000000   0.6790492   0.9605204), wk =   0.0416667
        k(   15) = (   0.0000000   0.6790492  -1.2806938), wk =   0.0208333
        k(   16) = (   0.0000000   1.0185738   0.0000000), wk =   0.0208333
        k(   17) = (   0.0000000   1.0185738   0.3201735), wk =   0.0416667
        k(   18) = (   0.0000000   1.0185738   0.6403469), wk =   0.0416667
        k(   19) = (   0.0000000   1.0185738   0.9605204), wk =   0.0416667
        k(   20) = (   0.0000000   1.0185738  -1.2806938), wk =   0.0208333
        k(   21) = (   0.0000000  -1.3580984   0.0000000), wk =   0.0104167
        k(   22) = (   0.0000000  -1.3580984   0.3201735), wk =   0.0208333
        k(   23) = (   0.0000000  -1.3580984   0.6403469), wk =   0.0208333
        k(   24) = (   0.0000000  -1.3580984   0.9605204), wk =   0.0208333
        k(   25) = (   0.0000000  -1.3580984  -1.2806938), wk =   0.0104167
        k(   26) = (   0.3333333   0.0000000   0.0000000), wk =   0.0208333
        k(   27) = (   0.3333333   0.0000000   0.3201735), wk =   0.0416667
        k(   28) = (   0.3333333   0.0000000   0.6403469), wk =   0.0416667
        k(   29) = (   0.3333333   0.0000000   0.9605204), wk =   0.0416667
        k(   30) = (   0.3333333   0.0000000  -1.2806938), wk =   0.0208333
        k(   31) = (   0.3333333   0.3395246   0.0000000), wk =   0.0416667
        k(   32) = (   0.3333333   0.3395246   0.3201735), wk =   0.0833333
        k(   33) = (   0.3333333   0.3395246   0.6403469), wk =   0.0833333
        k(   34) = (   0.3333333   0.3395246   0.9605204), wk =   0.0833333
        k(   35) = (   0.3333333   0.3395246  -1.2806938), wk =   0.0416667
        k(   36) = (   0.3333333   0.6790492   0.0000000), wk =   0.0416667
        k(   37) = (   0.3333333   0.6790492   0.3201735), wk =   0.0833333
        k(   38) = (   0.3333333   0.6790492   0.6403469), wk =   0.0833333
        k(   39) = (   0.3333333   0.6790492   0.9605204), wk =   0.0833333
        k(   40) = (   0.3333333   0.6790492  -1.2806938), wk =   0.0416667
        k(   41) = (   0.3333333   1.0185738   0.0000000), wk =   0.0416667
        k(   42) = (   0.3333333   1.0185738   0.3201735), wk =   0.0833333
        k(   43) = (   0.3333333   1.0185738   0.6403469), wk =   0.0833333
        k(   44) = (   0.3333333   1.0185738   0.9605204), wk =   0.0833333
        k(   45) = (   0.3333333   1.0185738  -1.2806938), wk =   0.0416667
        k(   46) = (   0.3333333  -1.3580984   0.0000000), wk =   0.0208333
        k(   47) = (   0.3333333  -1.3580984   0.3201735), wk =   0.0416667
        k(   48) = (   0.3333333  -1.3580984   0.6403469), wk =   0.0416667
        k(   49) = (   0.3333333  -1.3580984   0.9605204), wk =   0.0416667
        k(   50) = (   0.3333333  -1.3580984  -1.2806938), wk =   0.0208333

                       cryst. coord.
        k(    1) = (   0.0000000   0.0000000   0.0000000), wk =   0.0104167
        k(    2) = (   0.0000000   0.0000000   0.1250000), wk =   0.0208333
        k(    3) = (   0.0000000   0.0000000   0.2500000), wk =   0.0208333
        k(    4) = (   0.0000000   0.0000000   0.3750000), wk =   0.0208333
        k(    5) = (   0.0000000   0.0000000  -0.5000000), wk =   0.0104167
        k(    6) = (   0.0000000   0.1250000   0.0000000), wk =   0.0208333
        k(    7) = (   0.0000000   0.1250000   0.1250000), wk =   0.0416667
        k(    8) = (   0.0000000   0.1250000   0.2500000), wk =   0.0416667
        k(    9) = (   0.0000000   0.1250000   0.3750000), wk =   0.0416667
        k(   10) = (   0.0000000   0.1250000  -0.5000000), wk =   0.0208333
        k(   11) = (   0.0000000   0.2500000   0.0000000), wk =   0.0208333
        k(   12) = (   0.0000000   0.2500000   0.1250000), wk =   0.0416667
        k(   13) = (   0.0000000   0.2500000   0.2500000), wk =   0.0416667
        k(   14) = (   0.0000000   0.2500000   0.3750000), wk =   0.0416667
        k(   15) = (   0.0000000   0.2500000  -0.5000000), wk =   0.0208333
        k(   16) = (   0.0000000   0.3750000   0.0000000), wk =   0.0208333
        k(   17) = (   0.0000000   0.3750000   0.1250000), wk =   0.0416667
        k(   18) = (   0.0000000   0.3750000   0.2500000), wk =   0.0416667
        k(   19) = (   0.0000000   0.3750000   0.3750000), wk =   0.0416667
        k(   20) = (   0.0000000   0.3750000  -0.5000000), wk =   0.0208333
        k(   21) = (   0.0000000  -0.5000000   0.0000000), wk =   0.0104167
        k(   22) = (   0.0000000  -0.5000000   0.1250000), wk =   0.0208333
        k(   23) = (   0.0000000  -0.5000000   0.2500000), wk =   0.0208333
        k(   24) = (   0.0000000  -0.5000000   0.3750000), wk =   0.0208333
        k(   25) = (   0.0000000  -0.5000000  -0.5000000), wk =   0.0104167
        k(   26) = (   0.3333333   0.0000000   0.0000000), wk =   0.0208333
        k(   27) = (   0.3333333   0.0000000   0.1250000), wk =   0.0416667
        k(   28) = (   0.3333333   0.0000000   0.2500000), wk =   0.0416667
        k(   29) = (   0.3333333   0.0000000   0.3750000), wk =   0.0416667
        k(   30) = (   0.3333333   0.0000000  -0.5000000), wk =   0.0208333
        k(   31) = (   0.3333333   0.1250000   0.0000000), wk =   0.0416667
        k(   32) = (   0.3333333   0.1250000   0.1250000), wk =   0.0833333
        k(   33) = (   0.3333333   0.1250000   0.2500000), wk =   0.0833333
        k(   34) = (   0.3333333   0.1250000   0.3750000), wk =   0.0833333
        k(   35) = (   0.3333333   0.1250000  -0.5000000), wk =   0.0416667
        k(   36) = (   0.3333333   0.2500000   0.0000000), wk =   0.0416667
        k(   37) = (   0.3333333   0.2500000   0.1250000), wk =   0.0833333
        k(   38) = (   0.3333333   0.2500000   0.2500000), wk =   0.0833333
        k(   39) = (   0.3333333   0.2500000   0.3750000), wk =   0.0833333
        k(   40) = (   0.3333333   0.2500000  -0.5000000), wk =   0.0416667
        k(   41) = (   0.3333333   0.3750000   0.0000000), wk =   0.0416667
        k(   42) = (   0.3333333   0.3750000   0.1250000), wk =   0.0833333
        k(   43) = (   0.3333333   0.3750000   0.2500000), wk =   0.0833333
        k(   44) = (   0.3333333   0.3750000   0.3750000), wk =   0.0833333
        k(   45) = (   0.3333333   0.3750000  -0.5000000), wk =   0.0416667
        k(   46) = (   0.3333333  -0.5000000   0.0000000), wk =   0.0208333
        k(   47) = (   0.3333333  -0.5000000   0.1250000), wk =   0.0416667
        k(   48) = (   0.3333333  -0.5000000   0.2500000), wk =   0.0416667
        k(   49) = (   0.3333333  -0.5000000   0.3750000), wk =   0.0416667
        k(   50) = (   0.3333333  -0.5000000  -0.5000000), wk =   0.0208333

     Dense  grid:    68055 G-vectors     FFT dimensions: ( 100,  36,  40)

     Smooth grid:    17237 G-vectors     FFT dimensions: (  64,  24,  24)

     Dynamical RAM for                 wfc:       0.82 MB

     Dynamical RAM for     wfc (w. buffer):      14.78 MB

     Dynamical RAM for           str. fact:       1.04 MB

     Dynamical RAM for           local pot:       0.00 MB

     Dynamical RAM for          nlocal pot:       2.36 MB

     Dynamical RAM for                qrad:       2.27 MB

     Dynamical RAM for          rho,v,vnew:       3.21 MB

     Dynamical RAM for               rhoin:       1.07 MB

     Dynamical RAM for            rho*nmix:       8.31 MB

     Dynamical RAM for           G-vectors:       2.01 MB

     Dynamical RAM for          h,s,v(r/c):       0.46 MB

     Dynamical RAM for          <psi|beta>:       0.11 MB

     Dynamical RAM for                 psi:       1.64 MB

     Dynamical RAM for                hpsi:       1.64 MB

     Dynamical RAM for                spsi:       1.64 MB

     Dynamical RAM for      wfcinit/wfcrot:       1.77 MB

     Dynamical RAM for           addusdens:      33.23 MB

     Dynamical RAM for          addusforce:      34.20 MB

     Estimated static dynamical RAM per process >      39.35 MB

     Estimated max dynamical RAM per process >      73.55 MB

     Estimated total dynamical RAM >     441.28 MB

     Initial potential from superposition of free atoms

     starting charge   75.99954, renormalised to   80.00000
     Starting wfcs are   52 randomized atomic wfcs

     total cpu time spent up to now is        4.0 secs

     Self-consistent Calculation

     iteration #  1     ecut=    20.00 Ry     beta= 0.70
     Davidson diagonalization with overlap
     ethr =  1.00E-02,  avg # of iterations =  3.9

     total cpu time spent up to now is       25.2 secs

     total energy              =    -826.36104678 Ry
     estimated scf accuracy    <       2.79036614 Ry

     iteration #  2     ecut=    20.00 Ry     beta= 0.70
     Davidson diagonalization with overlap
     ethr =  3.49E-03,  avg # of iterations =  2.0

     total cpu time spent up to now is       39.8 secs

     total energy              =    -827.19697437 Ry
     estimated scf accuracy    <       1.10791885 Ry

     iteration #  3     ecut=    20.00 Ry     beta= 0.70
     Davidson diagonalization with overlap
     ethr =  1.38E-03,  avg # of iterations =  2.0

     total cpu time spent up to now is       50.4 secs

     total energy              =    -827.48081760 Ry
     estimated scf accuracy    <       0.06613486 Ry

     iteration #  4     ecut=    20.00 Ry     beta= 0.70
     Davidson diagonalization with overlap
     ethr =  8.27E-05,  avg # of iterations =  2.9

     total cpu time spent up to now is       66.3 secs

     total energy              =    -827.49208303 Ry
     estimated scf accuracy    <       0.00296787 Ry

     iteration #  5     ecut=    20.00 Ry     beta= 0.70
     Davidson diagonalization with overlap
     ethr =  3.71E-06,  avg # of iterations =  5.9

     total cpu time spent up to now is       96.3 secs

     total energy              =    -827.49279330 Ry
     estimated scf accuracy    <       0.00068631 Ry

     iteration #  6     ecut=    20.00 Ry     beta= 0.70
     Davidson diagonalization with overlap
     ethr =  8.58E-07,  avg # of iterations =  2.0

     total cpu time spent up to now is      108.8 secs

     total energy              =    -827.49294352 Ry
     estimated scf accuracy    <       0.00005778 Ry

     iteration #  7     ecut=    20.00 Ry     beta= 0.70
     Davidson diagonalization with overlap
     ethr =  7.22E-08,  avg # of iterations =  4.0

     total cpu time spent up to now is      123.2 secs

     total energy              =    -827.49295404 Ry
     estimated scf accuracy    <       0.00000405 Ry

     iteration #  8     ecut=    20.00 Ry     beta= 0.70
     Davidson diagonalization with overlap
     ethr =  5.07E-09,  avg # of iterations =  2.1

     total cpu time spent up to now is      136.5 secs

     total energy              =    -827.49295521 Ry
     estimated scf accuracy    <       0.00000054 Ry

     iteration #  9     ecut=    20.00 Ry     beta= 0.70
     Davidson diagonalization with overlap
     ethr =  6.81E-10,  avg # of iterations =  2.0

     total cpu time spent up to now is      148.4 secs

     End of self-consistent calculation

          k = 0.0000 0.0000 0.0000 (  2147 PWs)   bands (ev):

   -13.4405 -13.4306 -13.4202 -13.4109 -13.4090 -13.4059 -13.4034 -13.3979
   -13.3893 -13.3860 -13.3827 -13.3815 -13.3696 -13.3662 -13.3658 -13.3560
   -13.3408 -13.3403 -13.3262 -13.3237  -5.7384  -5.3890  -4.6528  -4.1527
     0.8089   1.9471   2.5392   3.0742   3.2358   4.6725   4.7114   4.7855
     5.1910   5.2468   5.8191   6.3207   6.5451   6.9911   7.4023   7.5744
     8.8621  10.9608  11.1046  11.1362  11.3662  11.4645  12.3401  12.6378
    12.7195  12.7537

     occupation numbers 
     1.0000   1.0000   1.0000   1.0000   1.0000   1.0000   1.0000   1.0000
     1.0000   1.0000   1.0000   1.0000   1.0000   1.0000   1.0000   1.0000
     1.0000   1.0000   1.0000   1.0000   1.0000   1.0000   1.0000   1.0000
     1.0000   1.0000   1.0000   1.0000   1.0000   1.0000   1.0000   1.0000
     1.0000   1.0000   1.0000   1.0000   1.0000   1.0000   1.0000   1.0000
     0.0000   0.0000   0.0000   0.0000   0.0000   0.0000   0.0000   0.0000
     0.0000   0.0000

          k = 0.0000 0.0000 0.3202 (  2166 PWs)   bands (ev):

   -13.4407 -13.4320 -13.4249 -13.4163 -13.4145 -13.4118 -13.4096 -13.4048
   -13.4025 -13.4023 -13.3956 -13.3917 -13.3733 -13.3667 -13.3644 -13.3627
   -13.3506 -13.3430 -13.3265 -13.3257  -5.6716  -5.3267  -4.6439  -4.1700
     0.5819   1.8042   2.1919   2.8139   3.2073   4.7419   4.7743   5.1592
     5.2829   5.7003   5.8876   6.3993   6.5784   7.2162   7.2728   7.6009
     8.9139  10.4121  11.0100  11.1447  11.1719  11.3562  12.2029  12.3261
    12.4712  12.7001

     occupation numbers 
     1.0000   1.0000   1.0000   1.0000   1.0000   1.0000   1.0000   1.0000
     1.0000   1.0000   1.0000   1.0000   1.0000   1.0000   1.0000   1.0000
     1.0000   1.0000   1.0000   1.0000   1.0000   1.0000   1.0000   1.0000
     1.0000   1.0000   1.0000   1.0000   1.0000   1.0000   1.0000   1.0000
     1.0000   1.0000   1.0000   1.0000   1.0000   1.0000   1.0000   1.0000
     0.0000   0.0000   0.0000   0.0000   0.0000   0.0000   0.0000   0.0000
     0.0000   0.0000

          k = 0.0000 0.0000 0.6403 (  2152 PWs)   bands (ev):

   -13.4343 -13.4300 -13.4242 -13.4162 -13.4155 -13.4100 -13.4021 -13.3982
   -13.3970 -13.3927 -13.3912 -13.3858 -13.3765 -13.3721 -13.3568 -13.3506
   -13.3457 -13.3411 -13.3267 -13.3171  -5.4816  -5.1521  -4.6427  -4.2349
     0.1677   1.3523   1.5082   2.3522   3.3787   5.0112   5.0678   5.5458
     5.7307   6.0468   6.1842   6.6329   6.8831   7.0165   7.5293   7.8418
     9.2268   9.4604  10.1853  10.2370  10.9611  11.2453  11.4663  11.5965
    12.6163  12.7623

     occupation numbers 
     1.0000   1.0000   1.0000   1.0000   1.0000   1.0000   1.0000   1.0000
     1.0000   1.0000   1.0000   1.0000   1.0000   1.0000   1.0000   1.0000
     1.0000   1.0000   1.0000   1.0000   1.0000   1.0000   1.0000   1.0000
     1.0000   1.0000   1.0000   1.0000   1.0000   1.0000   1.0000   1.0000
     1.0000   1.0000   1.0000   1.0000   1.0000   1.0000   1.0000   1.0000
     0.0000   0.0000   0.0000   0.0000   0.0000   0.0000   0.0000   0.0000
     0.0000   0.0000

          k = 0.0000 0.0000 0.9605 (  2168 PWs)   bands (ev):

   -13.4386 -13.4297 -13.4263 -13.4257 -13.4226 -13.4185 -13.4167 -13.4023
   -13.3943 -13.3931 -13.3918 -13.3851 -13.3819 -13.3771 -13.3603 -13.3550
   -13.3533 -13.3422 -13.3230 -13.3200  -5.2080  -4.8979  -4.7213  -4.3834
    -0.0675   0.5725   1.3324   1.8114   3.8190   4.9327   5.4990   5.9245
     6.1359   6.3193   6.4683   6.5726   6.9198   7.4312   7.8049   8.0343
     9.0079   9.3300   9.6189   9.7949  10.1868  10.2909  10.8552  11.1406
    11.6739  11.8509

     occupation numbers 
     1.0000   1.0000   1.0000   1.0000   1.0000   1.0000   1.0000   1.0000
     1.0000   1.0000   1.0000   1.0000   1.0000   1.0000   1.0000   1.0000
     1.0000   1.0000   1.0000   1.0000   1.0000   1.0000   1.0000   1.0000
     1.0000   1.0000   1.0000   1.0000   1.0000   1.0000   1.0000   1.0000
     1.0000   1.0000   1.0000   1.0000   1.0000   1.0000   1.0000   1.0000
     0.0000   0.0000   0.0000   0.0000   0.0000   0.0000   0.0000   0.0000
     0.0000   0.0000

          k = 0.0000 0.0000-1.2807 (  2160 PWs)   bands (ev):

   -13.4298 -13.4298 -13.4247 -13.4247 -13.4129 -13.4129 -13.3997 -13.3997
   -13.3903 -13.3903 -13.3888 -13.3888 -13.3755 -13.3755 -13.3569 -13.3569
   -13.3500 -13.3500 -13.3224 -13.3224  -4.9236  -4.9236  -4.6188  -4.6188
     0.0644   0.0644   1.4334   1.4334   4.3974   4.3974   5.9351   5.9351
     6.3124   6.3124   6.6845   6.6845   7.2662   7.2662   7.7971   7.7971
     9.3301   9.3301   9.6640   9.6640   9.7960   9.7960  10.7710  10.7710
    11.2412  11.2412

     occupation numbers 
     1.0000   1.0000   1.0000   1.0000   1.0000   1.0000   1.0000   1.0000
     1.0000   1.0000   1.0000   1.0000   1.0000   1.0000   1.0000   1.0000
     1.0000   1.0000   1.0000   1.0000   1.0000   1.0000   1.0000   1.0000
     1.0000   1.0000   1.0000   1.0000   1.0000   1.0000   1.0000   1.0000
     1.0000   1.0000   1.0000   1.0000   1.0000   1.0000   1.0000   1.0000
     0.0000   0.0000   0.0000   0.0000   0.0000   0.0000   0.0000   0.0000
     0.0000   0.0000

          k = 0.0000 0.3395 0.0000 (  2153 PWs)   bands (ev):

   -13.4335 -13.4192 -13.4154 -13.4145 -13.4133 -13.4090 -13.4067 -13.3964
   -13.3958 -13.3896 -13.3836 -13.3795 -13.3701 -13.3659 -13.3644 -13.3604
   -13.3547 -13.3412 -13.3360 -13.3288  -5.6547  -5.3170  -4.6157  -4.1564
     0.6901   1.7065   2.4607   2.6212   3.2191   4.6051   4.8909   4.9914
     5.1731   5.3385   6.0254   6.3689   6.5276   7.2466   7.4129   7.4982
     8.9918  10.3862  10.9856  11.3251  11.3535  11.3785  11.9532  12.1145
    12.5188  12.9460

     occupation numbers 
     1.0000   1.0000   1.0000   1.0000   1.0000   1.0000   1.0000   1.0000
     1.0000   1.0000   1.0000   1.0000   1.0000   1.0000   1.0000   1.0000
     1.0000   1.0000   1.0000   1.0000   1.0000   1.0000   1.0000   1.0000
     1.0000   1.0000   1.0000   1.0000   1.0000   1.0000   1.0000   1.0000
     1.0000   1.0000   1.0000   1.0000   1.0000   1.0000   1.0000   1.0000
     0.0000   0.0000   0.0000   0.0000   0.0000   0.0000   0.0000   0.0000
     0.0000   0.0000

          k = 0.0000 0.3395 0.3202 (  2156 PWs)   bands (ev):

   -13.4379 -13.4204 -13.4178 -13.4161 -13.4140 -13.4128 -13.4072 -13.4056
   -13.4025 -13.3900 -13.3868 -13.3845 -13.3707 -13.3662 -13.3636 -13.3575
   -13.3479 -13.3393 -13.3339 -13.3206  -5.5887  -5.2565  -4.6058  -4.1705
     0.5315   1.6530   2.1163   2.5394   3.2434   4.3378   4.5296   5.5094
     5.5134   5.7109   5.7521   6.3856   6.8231   7.2449   7.5470   7.5568
     9.0508   9.9605  10.5611  10.8455  11.1513  11.4895  11.8693  12.1192
    12.5339  12.9986

     occupation numbers 
     1.0000   1.0000   1.0000   1.0000   1.0000   1.0000   1.0000   1.0000
     1.0000   1.0000   1.0000   1.0000   1.0000   1.0000   1.0000   1.0000
     1.0000   1.0000   1.0000   1.0000   1.0000   1.0000   1.0000   1.0000
     1.0000   1.0000   1.0000   1.0000   1.0000   1.0000   1.0000   1.0000
     1.0000   1.0000   1.0000   1.0000   1.0000   1.0000   1.0000   1.0000
     0.0000   0.0000   0.0000   0.0000   0.0000   0.0000   0.0000   0.0000
     0.0000   0.0000

          k = 0.0000 0.3395 0.6403 (  2164 PWs)   bands (ev):

   -13.4314 -13.4240 -13.4218 -13.4212 -13.4182 -13.4168 -13.4133 -13.4089
   -13.4058 -13.3900 -13.3891 -13.3862 -13.3786 -13.3753 -13.3572 -13.3529
   -13.3493 -13.3446 -13.3365 -13.3262  -5.4036  -5.0874  -4.6033  -4.2273
     0.2144   1.3772   1.5030   2.2333   3.4712   4.2760   4.4590   5.5598
     5.7818   5.9568   6.2960   6.3565   7.0784   7.2796   7.5959   7.7042
     9.3135   9.6194   9.8825   9.8828  11.0650  11.0795  11.5381  12.0784
    12.6394  12.8114

     occupation numbers 
     1.0000   1.0000   1.0000   1.0000   1.0000   1.0000   1.0000   1.0000
     1.0000   1.0000   1.0000   1.0000   1.0000   1.0000   1.0000   1.0000
     1.0000   1.0000   1.0000   1.0000   1.0000   1.0000   1.0000   1.0000
     1.0000   1.0000   1.0000   1.0000   1.0000   1.0000   1.0000   1.0000
     1.0000   1.0000   1.0000   1.0000   1.0000   1.0000   1.0000   1.0000
     0.0000   0.0000   0.0000   0.0000   0.0000   0.0000   0.0000   0.0000
     0.0000   0.0000

          k = 0.0000 0.3395 0.9605 (  2166 PWs)   bands (ev):

   -13.4270 -13.4252 -13.4249 -13.4190 -13.4175 -13.4149 -13.4110 -13.4057
   -13.4015 -13.3936 -13.3925 -13.3883 -13.3833 -13.3769 -13.3569 -13.3543
   -13.3537 -13.3445 -13.3329 -13.3267  -5.1384  -4.8428  -4.6746  -4.3605
     0.0299   0.6552   1.3967   1.8170   3.8933   4.5053   4.6651   5.5531
     5.6700   5.7783   6.3530   6.6632   7.2844   7.2967   7.6440   7.6564
     9.2403   9.4998   9.5459   9.9047  10.6777  10.8141  11.1124  11.8090
    12.2295  12.5234

     occupation numbers 
     1.0000   1.0000   1.0000   1.0000   1.0000   1.0000   1.0000   1.0000
     1.0000   1.0000   1.0000   1.0000   1.0000   1.0000   1.0000   1.0000
     1.0000   1.0000   1.0000   1.0000   1.0000   1.0000   1.0000   1.0000
     1.0000   1.0000   1.0000   1.0000   1.0000   1.0000   1.0000   1.0000
     1.0000   1.0000   1.0000   1.0000   1.0000   1.0000   1.0000   1.0000
     0.0000   0.0000   0.0000   0.0000   0.0000   0.0000   0.0000   0.0000
     0.0000   0.0000

          k = 0.0000 0.3395-1.2807 (  2178 PWs)   bands (ev):

   -13.4316 -13.4316 -13.4240 -13.4240 -13.4197 -13.4197 -13.4125 -13.4125
   -13.4017 -13.4017 -13.3901 -13.3901 -13.3838 -13.3838 -13.3566 -13.3566
   -13.3497 -13.3497 -13.3348 -13.3348  -4.8664  -4.8664  -4.5789  -4.5789
     0.1698   0.1698   1.4957   1.4957   4.3741   4.3741   5.1584   5.1584
     5.5854   5.5854   6.5076   6.5076   7.4194   7.4194   7.6398   7.6398
     9.2141   9.2141   9.6837   9.6837  10.9129  10.9129  11.2725  11.2725
    11.9766  11.9766

     occupation numbers 
     1.0000   1.0000   1.0000   1.0000   1.0000   1.0000   1.0000   1.0000
     1.0000   1.0000   1.0000   1.0000   1.0000   1.0000   1.0000   1.0000
     1.0000   1.0000   1.0000   1.0000   1.0000   1.0000   1.0000   1.0000
     1.0000   1.0000   1.0000   1.0000   1.0000   1.0000   1.0000   1.0000
     1.0000   1.0000   1.0000   1.0000   1.0000   1.0000   1.0000   1.0000
     0.0000   0.0000   0.0000   0.0000   0.0000   0.0000   0.0000   0.0000
     0.0000   0.0000

          k = 0.0000 0.6790 0.0000 (  2153 PWs)   bands (ev):

   -13.4226 -13.4196 -13.4148 -13.4130 -13.4126 -13.4094 -13.4063 -13.4016
   -13.3980 -13.3964 -13.3951 -13.3783 -13.3711 -13.3636 -13.3630 -13.3590
   -13.3528 -13.3420 -13.3357 -13.3346  -5.4146  -5.1183  -4.5361  -4.2027
     0.4175   1.2423   1.7295   2.0609   3.4168   4.7996   5.1943   5.2579
     5.2722   5.5824   6.3372   6.4390   6.6268   7.2729   7.3974   7.8484
     9.0677   9.3052  10.4065  10.5730  10.6084  11.2011  11.2177  11.9076
    12.6367  12.7856

     occupation numbers 
     1.0000   1.0000   1.0000   1.0000   1.0000   1.0000   1.0000   1.0000
     1.0000   1.0000   1.0000   1.0000   1.0000   1.0000   1.0000   1.0000
     1.0000   1.0000   1.0000   1.0000   1.0000   1.0000   1.0000   1.0000
     1.0000   1.0000   1.0000   1.0000   1.0000   1.0000   1.0000   1.0000
     1.0000   1.0000   1.0000   1.0000   1.0000   1.0000   1.0000   1.0000
     0.0000   0.0000   0.0000   0.0000   0.0000   0.0000   0.0000   0.0000
     0.0000   0.0000

          k = 0.0000 0.6790 0.3202 (  2155 PWs)   bands (ev):

   -13.4267 -13.4233 -13.4153 -13.4136 -13.4092 -13.4085 -13.4000 -13.3994
   -13.3980 -13.3969 -13.3918 -13.3863 -13.3717 -13.3665 -13.3596 -13.3579
   -13.3515 -13.3419 -13.3358 -13.3309  -5.3536  -5.0635  -4.5240  -4.2063
     0.3925   1.2975   1.6973   1.9541   3.4996   4.1268   4.4442   5.3050
     5.8043   5.9355   6.0038   6.3412   6.9766   7.3088   7.4240   7.6302
     9.3144   9.4215   9.8004   9.9493  11.0972  11.1217  11.7258  12.0613
    12.6852  12.8265

     occupation numbers 
     1.0000   1.0000   1.0000   1.0000   1.0000   1.0000   1.0000   1.0000
     1.0000   1.0000   1.0000   1.0000   1.0000   1.0000   1.0000   1.0000
     1.0000   1.0000   1.0000   1.0000   1.0000   1.0000   1.0000   1.0000
     1.0000   1.0000   1.0000   1.0000   1.0000   1.0000   1.0000   1.0000
     1.0000   1.0000   1.0000   1.0000   1.0000   1.0000   1.0000   1.0000
     0.0000   0.0000   0.0000   0.0000   0.0000   0.0000   0.0000   0.0000
     0.0000   0.0000

          k = 0.0000 0.6790 0.6403 (  2155 PWs)   bands (ev):

   -13.4230 -13.4211 -13.4175 -13.4152 -13.4131 -13.4115 -13.4062 -13.4029
   -13.3963 -13.3959 -13.3859 -13.3816 -13.3799 -13.3692 -13.3595 -13.3546
   -13.3502 -13.3426 -13.3292 -13.3238  -5.1836  -4.9117  -4.5130  -4.2331
     0.3263   1.3814   1.4211   1.8487   3.6395   3.7392   3.9180   5.0099
     5.2001   6.0364   6.0473   6.5453   6.7397   7.1509   7.2664   7.4723
     9.0727   9.5955  10.2971  10.6422  10.8383  11.3164  11.5681  12.6127
    13.0187  13.0395

     occupation numbers 
     1.0000   1.0000   1.0000   1.0000   1.0000   1.0000   1.0000   1.0000
     1.0000   1.0000   1.0000   1.0000   1.0000   1.0000   1.0000   1.0000
     1.0000   1.0000   1.0000   1.0000   1.0000   1.0000   1.0000   1.0000
     1.0000   1.0000   1.0000   1.0000   1.0000   1.0000   1.0000   1.0000
     1.0000   1.0000   1.0000   1.0000   1.0000   1.0000   1.0000   1.0000
     0.0000   0.0000   0.0000   0.0000   0.0000   0.0000   0.0000   0.0000
     0.0000   0.0000

          k = 0.0000 0.6790 0.9605 (  2162 PWs)   bands (ev):

   -13.4296 -13.4257 -13.4234 -13.4214 -13.4138 -13.4129 -13.4094 -13.4092
   -13.3987 -13.3978 -13.3853 -13.3851 -13.3739 -13.3712 -13.3539 -13.3538
   -13.3474 -13.3463 -13.3306 -13.3305  -4.9461  -4.6997  -4.5618  -4.3187
     0.3042   0.8732   1.5284   1.7567   3.6044   3.8724   4.0449   4.6989
     4.8955   5.5900   5.6052   6.2689   6.4263   6.9433   7.0792   7.4852
     9.0044  10.2628  10.4662  11.3467  11.4255  11.5973  11.8854  12.8263
    12.8879  13.1674

     occupation numbers 
     1.0000   1.0000   1.0000   1.0000   1.0000   1.0000   1.0000   1.0000
     1.0000   1.0000   1.0000   1.0000   1.0000   1.0000   1.0000   1.0000
     1.0000   1.0000   1.0000   1.0000   1.0000   1.0000   1.0000   1.0000
     1.0000   1.0000   1.0000   1.0000   1.0000   1.0000   1.0000   1.0000
     1.0000   1.0000   1.0000   1.0000   1.0000   1.0000   1.0000   1.0000
     0.0000   0.0000   0.0000   0.0000   0.0000   0.0000   0.0000   0.0000
     0.0000   0.0000

          k = 0.0000 0.6790-1.2807 (  2144 PWs)   bands (ev):

   -13.4226 -13.4226 -13.4133 -13.4133 -13.4104 -13.4104 -13.4050 -13.4050
   -13.3934 -13.3934 -13.3828 -13.3828 -13.3687 -13.3687 -13.3480 -13.3480
   -13.3406 -13.3406 -13.3247 -13.3247  -4.7138  -4.7138  -4.4816  -4.4816
     0.4729   0.4729   1.6282   1.6282   3.9418   3.9418   4.2069   4.2069
     5.0491   5.0491   5.7366   5.7366   6.6178   6.6178   7.2110   7.2110
     9.6286   9.6286  11.0662  11.0662  12.0566  12.0566  12.5725  12.5725
    12.8686  12.8686

     occupation numbers 
     1.0000   1.0000   1.0000   1.0000   1.0000   1.0000   1.0000   1.0000
     1.0000   1.0000   1.0000   1.0000   1.0000   1.0000   1.0000   1.0000
     1.0000   1.0000   1.0000   1.0000   1.0000   1.0000   1.0000   1.0000
     1.0000   1.0000   1.0000   1.0000   1.0000   1.0000   1.0000   1.0000
     1.0000   1.0000   1.0000   1.0000   1.0000   1.0000   1.0000   1.0000
     0.0000   0.0000   0.0000   0.0000   0.0000   0.0000   0.0000   0.0000
     0.0000   0.0000

          k = 0.0000 1.0186 0.0000 (  2142 PWs)   bands (ev):

   -13.4266 -13.4257 -13.4231 -13.4228 -13.4024 -13.4007 -13.3981 -13.3939
   -13.3922 -13.3908 -13.3839 -13.3722 -13.3718 -13.3626 -13.3597 -13.3583
   -13.3457 -13.3364 -13.3357 -13.3332  -5.0610  -4.8491  -4.5026  -4.3647
     0.2249   0.8954   0.9593   1.4887   3.8889   4.9688   5.3908   5.5707
     5.7080   5.8517   6.2786   6.5785   6.9926   7.2236   7.2778   7.6334
     8.8575   9.5747   9.5898   9.6713   9.9373  10.3570  10.5440  11.2766
    11.6091  12.0052

     occupation numbers 
     1.0000   1.0000   1.0000   1.0000   1.0000   1.0000   1.0000   1.0000
     1.0000   1.0000   1.0000   1.0000   1.0000   1.0000   1.0000   1.0000
     1.0000   1.0000   1.0000   1.0000   1.0000   1.0000   1.0000   1.0000
     1.0000   1.0000   1.0000   1.0000   1.0000   1.0000   1.0000   1.0000
     1.0000   1.0000   1.0000   1.0000   1.0000   1.0000   1.0000   1.0000
     0.0000   0.0000   0.0000   0.0000   0.0000   0.0000   0.0000   0.0000
     0.0000   0.0000

          k = 0.0000 1.0186 0.3202 (  2146 PWs)   bands (ev):

   -13.4281 -13.4238 -13.4231 -13.4224 -13.4051 -13.4047 -13.3975 -13.3962
   -13.3948 -13.3843 -13.3825 -13.3769 -13.3768 -13.3654 -13.3590 -13.3579
   -13.3457 -13.3361 -13.3314 -13.3284  -5.0097  -4.8047  -4.4850  -4.3507
     0.2912   0.9653   1.0417   1.4808   3.9542   4.3234   4.6455   5.4263
     5.6655   5.6910   6.3400   6.4316   6.7098   7.1252   7.3428   7.4694
     9.1977   9.2073   9.4484   9.8105  10.8277  10.9306  11.1921  11.4058
    12.2116  12.6620

     occupation numbers 
     1.0000   1.0000   1.0000   1.0000   1.0000   1.0000   1.0000   1.0000
     1.0000   1.0000   1.0000   1.0000   1.0000   1.0000   1.0000   1.0000
     1.0000   1.0000   1.0000   1.0000   1.0000   1.0000   1.0000   1.0000
     1.0000   1.0000   1.0000   1.0000   1.0000   1.0000   1.0000   1.0000
     1.0000   1.0000   1.0000   1.0000   1.0000   1.0000   1.0000   1.0000
     0.0000   0.0000   0.0000   0.0000   0.0000   0.0000   0.0000   0.0000
     0.0000   0.0000

          k = 0.0000 1.0186 0.6403 (  2154 PWs)   bands (ev):

   -13.4300 -13.4269 -13.4194 -13.4136 -13.4057 -13.4057 -13.3997 -13.3982
   -13.3926 -13.3867 -13.3866 -13.3767 -13.3749 -13.3690 -13.3616 -13.3597
   -13.3456 -13.3412 -13.3329 -13.3324  -4.8709  -4.6856  -4.4509  -4.3251
     0.4670   1.1267   1.2654   1.4451   3.5268   3.9460   4.1017   4.6131
     4.9650   5.6274   5.6734   5.9907   6.4003   6.5303   7.0811   7.4402
     8.9010  10.2558  10.2906  10.9887  11.3514  11.6901  12.2817  12.4665
    12.6703  12.7731

     occupation numbers 
     1.0000   1.0000   1.0000   1.0000   1.0000   1.0000   1.0000   1.0000
     1.0000   1.0000   1.0000   1.0000   1.0000   1.0000   1.0000   1.0000
     1.0000   1.0000   1.0000   1.0000   1.0000   1.0000   1.0000   1.0000
     1.0000   1.0000   1.0000   1.0000   1.0000   1.0000   1.0000   1.0000
     1.0000   1.0000   1.0000   1.0000   1.0000   1.0000   1.0000   1.0000
     0.0000   0.0000   0.0000   0.0000   0.0000   0.0000   0.0000   0.0000
     0.0000   0.0000

          k = 0.0000 1.0186 0.9605 (  2151 PWs)   bands (ev):

   -13.4281 -13.4269 -13.4253 -13.4179 -13.4090 -13.4024 -13.3984 -13.3974
   -13.3943 -13.3861 -13.3819 -13.3809 -13.3718 -13.3649 -13.3572 -13.3539
   -13.3412 -13.3383 -13.3297 -13.3265  -4.6890  -4.5310  -4.4510  -4.3288
     0.6891   1.1164   1.5220   1.5333   3.1357   3.5919   3.8264   4.0945
     4.6796   5.0262   5.0763   5.6644   5.9469   6.1605   6.9271   6.9596
     9.5140  10.9722  11.2540  11.3630  12.3216  12.3825  12.6350  12.9628
    13.1038  13.2723

     occupation numbers 
     1.0000   1.0000   1.0000   1.0000   1.0000   1.0000   1.0000   1.0000
     1.0000   1.0000   1.0000   1.0000   1.0000   1.0000   1.0000   1.0000
     1.0000   1.0000   1.0000   1.0000   1.0000   1.0000   1.0000   1.0000
     1.0000   1.0000   1.0000   1.0000   1.0000   1.0000   1.0000   1.0000
     1.0000   1.0000   1.0000   1.0000   1.0000   1.0000   1.0000   1.0000
     0.0000   0.0000   0.0000   0.0000   0.0000   0.0000   0.0000   0.0000
     0.0000   0.0000

          k = 0.0000 1.0186-1.2807 (  2150 PWs)   bands (ev):

   -13.4312 -13.4312 -13.4256 -13.4256 -13.4034 -13.4034 -13.3956 -13.3956
   -13.3912 -13.3912 -13.3796 -13.3796 -13.3672 -13.3672 -13.3509 -13.3509
   -13.3402 -13.3402 -13.3269 -13.3269  -4.5311  -4.5311  -4.3978  -4.3978
     0.9107   0.9107   1.6403   1.6403   3.2640   3.2640   3.7522   3.7522
     4.5902   4.5902   5.3451   5.3451   5.8477   5.8477   6.8343   6.8343
    10.2769  10.2769  11.6753  11.6753  12.7768  12.7768  13.0195  13.0195
    13.2280  13.2280

     occupation numbers 
     1.0000   1.0000   1.0000   1.0000   1.0000   1.0000   1.0000   1.0000
     1.0000   1.0000   1.0000   1.0000   1.0000   1.0000   1.0000   1.0000
     1.0000   1.0000   1.0000   1.0000   1.0000   1.0000   1.0000   1.0000
     1.0000   1.0000   1.0000   1.0000   1.0000   1.0000   1.0000   1.0000
     1.0000   1.0000   1.0000   1.0000   1.0000   1.0000   1.0000   1.0000
     0.0000   0.0000   0.0000   0.0000   0.0000   0.0000   0.0000   0.0000
     0.0000   0.0000

          k = 0.0000-1.3581 0.0000 (  2156 PWs)   bands (ev):

   -13.4350 -13.4350 -13.4258 -13.4258 -13.4063 -13.4063 -13.3993 -13.3993
   -13.3987 -13.3987 -13.3811 -13.3811 -13.3661 -13.3661 -13.3626 -13.3626
   -13.3382 -13.3382 -13.3372 -13.3372  -4.6746  -4.6746  -4.6103  -4.6103
     0.3575   0.3575   1.0550   1.0550   4.4927   4.4927   5.8564   5.8564
     5.8716   5.8716   6.3816   6.3816   7.1134   7.1134   7.3093   7.3093
     9.1201   9.1201   9.5471   9.5471   9.8335   9.8335  10.6387  10.6387
    11.3472  11.3472

     occupation numbers 
     1.0000   1.0000   1.0000   1.0000   1.0000   1.0000   1.0000   1.0000
     1.0000   1.0000   1.0000   1.0000   1.0000   1.0000   1.0000   1.0000
     1.0000   1.0000   1.0000   1.0000   1.0000   1.0000   1.0000   1.0000
     1.0000   1.0000   1.0000   1.0000   1.0000   1.0000   1.0000   1.0000
     1.0000   1.0000   1.0000   1.0000   1.0000   1.0000   1.0000   1.0000
     0.0000   0.0000   0.0000   0.0000   0.0000   0.0000   0.0000   0.0000
     0.0000   0.0000

          k = 0.0000-1.3581 0.3202 (  2126 PWs)   bands (ev):

   -13.4280 -13.4280 -13.4180 -13.4180 -13.3974 -13.3974 -13.3890 -13.3890
   -13.3863 -13.3863 -13.3789 -13.3789 -13.3593 -13.3593 -13.3530 -13.3530
   -13.3278 -13.3278 -13.3228 -13.3228  -4.6390  -4.6390  -4.5791  -4.5791
     0.4512   0.4512   1.1129   1.1129   4.4374   4.4374   4.9953   4.9953
     5.5711   5.5711   6.4709   6.4709   6.7160   6.7160   7.4392   7.4392
     8.9614   8.9614   9.7836   9.7836  10.6524  10.6524  11.3990  11.3990
    11.8683  11.8683

     occupation numbers 
     1.0000   1.0000   1.0000   1.0000   1.0000   1.0000   1.0000   1.0000
     1.0000   1.0000   1.0000   1.0000   1.0000   1.0000   1.0000   1.0000
     1.0000   1.0000   1.0000   1.0000   1.0000   1.0000   1.0000   1.0000
     1.0000   1.0000   1.0000   1.0000   1.0000   1.0000   1.0000   1.0000
     1.0000   1.0000   1.0000   1.0000   1.0000   1.0000   1.0000   1.0000
     0.0000   0.0000   0.0000   0.0000   0.0000   0.0000   0.0000   0.0000
     0.0000   0.0000

          k = 0.0000-1.3581 0.6403 (  2140 PWs)   bands (ev):

   -13.4240 -13.4240 -13.4181 -13.4181 -13.4030 -13.4030 -13.3960 -13.3960
   -13.3888 -13.3888 -13.3796 -13.3796 -13.3632 -13.3632 -13.3533 -13.3533
   -13.3318 -13.3318 -13.3263 -13.3263  -4.5512  -4.5512  -4.5045  -4.5045
     0.7120   0.7120   1.2576   1.2576   3.9143   3.9143   4.3026   4.3026
     5.0771   5.0771   5.7377   5.7377   6.1478   6.1478   7.2029   7.2029
     9.4619   9.4619  11.0190  11.0190  11.9206  11.9206  12.2436  12.2436
    12.6249  12.6249

     occupation numbers 
     1.0000   1.0000   1.0000   1.0000   1.0000   1.0000   1.0000   1.0000
     1.0000   1.0000   1.0000   1.0000   1.0000   1.0000   1.0000   1.0000
     1.0000   1.0000   1.0000   1.0000   1.0000   1.0000   1.0000   1.0000
     1.0000   1.0000   1.0000   1.0000   1.0000   1.0000   1.0000   1.0000
     1.0000   1.0000   1.0000   1.0000   1.0000   1.0000   1.0000   1.0000
     0.0000   0.0000   0.0000   0.0000   0.0000   0.0000   0.0000   0.0000
     0.0000   0.0000

          k = 0.0000-1.3581 0.9605 (  2150 PWs)   bands (ev):

   -13.4237 -13.4237 -13.4202 -13.4202 -13.4062 -13.4062 -13.4017 -13.4017
   -13.3861 -13.3861 -13.3826 -13.3826 -13.3647 -13.3647 -13.3536 -13.3536
   -13.3384 -13.3384 -13.3276 -13.3276  -4.4561  -4.4561  -4.4285  -4.4285
     1.0683   1.0683   1.4014   1.4014   3.2792   3.2792   3.8352   3.8352
     4.5668   4.5668   5.3514   5.3514   5.7211   5.7211   6.8258   6.8258
    10.3019  10.3019  11.5383  11.5383  12.6489  12.6489  12.8442  12.8442
    13.1830  13.1830

     occupation numbers 
     1.0000   1.0000   1.0000   1.0000   1.0000   1.0000   1.0000   1.0000
     1.0000   1.0000   1.0000   1.0000   1.0000   1.0000   1.0000   1.0000
     1.0000   1.0000   1.0000   1.0000   1.0000   1.0000   1.0000   1.0000
     1.0000   1.0000   1.0000   1.0000   1.0000   1.0000   1.0000   1.0000
     1.0000   1.0000   1.0000   1.0000   1.0000   1.0000   1.0000   1.0000
     0.0000   0.0000   0.0000   0.0000   0.0000   0.0000   0.0000   0.0000
     0.0000   0.0000

          k = 0.0000-1.3581-1.2807 (  2172 PWs)   bands (ev):

   -13.4403 -13.4403 -13.4286 -13.4286 -13.4059 -13.4059 -13.4052 -13.4052
   -13.3906 -13.3906 -13.3845 -13.3845 -13.3715 -13.3715 -13.3613 -13.3613
   -13.3391 -13.3391 -13.3366 -13.3366  -4.4110  -4.4110  -4.4013  -4.4013
     1.2874   1.2874   1.4389   1.4389   3.0457   3.0457   3.5606   3.5606
     4.4767   4.4767   4.9590   4.9590   5.8076   5.8076   6.6451   6.6451
    10.8779  10.8779  11.1820  11.1820  12.8440  12.8440  12.9861  12.9861
    13.7287  13.7287

     occupation numbers 
     1.0000   1.0000   1.0000   1.0000   1.0000   1.0000   1.0000   1.0000
     1.0000   1.0000   1.0000   1.0000   1.0000   1.0000   1.0000   1.0000
     1.0000   1.0000   1.0000   1.0000   1.0000   1.0000   1.0000   1.0000
     1.0000   1.0000   1.0000   1.0000   1.0000   1.0000   1.0000   1.0000
     1.0000   1.0000   1.0000   1.0000   1.0000   1.0000   1.0000   1.0000
     0.0000   0.0000   0.0000   0.0000   0.0000   0.0000   0.0000   0.0000
     0.0000   0.0000

          k = 0.3333 0.0000 0.0000 (  2156 PWs)   bands (ev):

   -13.4331 -13.4294 -13.4156 -13.4133 -13.4132 -13.4083 -13.4080 -13.4023
   -13.4017 -13.3976 -13.3878 -13.3837 -13.3754 -13.3723 -13.3615 -13.3607
   -13.3471 -13.3445 -13.3318 -13.3290  -5.6742  -5.5089  -4.4954  -4.2547
     0.9587   1.4133   2.9551   3.0518   3.5937   4.3953   4.7596   4.9410
     4.9943   5.4007   6.0655   6.1394   6.1564   6.4036   7.4798   7.5692
    10.0823  10.7184  10.8087  11.2541  11.6047  11.7272  12.0240  12.3378
    12.9978  13.0661

     occupation numbers 
     1.0000   1.0000   1.0000   1.0000   1.0000   1.0000   1.0000   1.0000
     1.0000   1.0000   1.0000   1.0000   1.0000   1.0000   1.0000   1.0000
     1.0000   1.0000   1.0000   1.0000   1.0000   1.0000   1.0000   1.0000
     1.0000   1.0000   1.0000   1.0000   1.0000   1.0000   1.0000   1.0000
     1.0000   1.0000   1.0000   1.0000   1.0000   1.0000   1.0000   1.0000
     0.0000   0.0000   0.0000   0.0000   0.0000   0.0000   0.0000   0.0000
     0.0000   0.0000

          k = 0.3333 0.0000 0.3202 (  2143 PWs)   bands (ev):

   -13.4293 -13.4274 -13.4144 -13.4115 -13.4086 -13.4058 -13.4039 -13.3997
   -13.3953 -13.3899 -13.3872 -13.3848 -13.3775 -13.3724 -13.3573 -13.3516
   -13.3432 -13.3324 -13.3284 -13.3159  -5.6078  -5.4455  -4.4917  -4.2647
     0.7470   1.2326   2.5487   2.7676   3.6958   4.5783   4.8611   5.0912
     5.1562   5.5709   6.1242   6.2706   6.4460   6.6162   7.3728   7.5582
    10.0363  10.5515  10.9558  11.1615  11.1945  11.3949  11.6022  12.1966
    12.8329  12.9610

     occupation numbers 
     1.0000   1.0000   1.0000   1.0000   1.0000   1.0000   1.0000   1.0000
     1.0000   1.0000   1.0000   1.0000   1.0000   1.0000   1.0000   1.0000
     1.0000   1.0000   1.0000   1.0000   1.0000   1.0000   1.0000   1.0000
     1.0000   1.0000   1.0000   1.0000   1.0000   1.0000   1.0000   1.0000
     1.0000   1.0000   1.0000   1.0000   1.0000   1.0000   1.0000   1.0000
     0.0000   0.0000   0.0000   0.0000   0.0000   0.0000   0.0000   0.0000
     0.0000   0.0000

          k = 0.3333 0.0000 0.6403 (  2158 PWs)   bands (ev):

   -13.4295 -13.4246 -13.4232 -13.4191 -13.4179 -13.4136 -13.4031 -13.4016
   -13.3957 -13.3920 -13.3883 -13.3881 -13.3829 -13.3807 -13.3617 -13.3600
   -13.3470 -13.3362 -13.3311 -13.3247  -5.4225  -5.2692  -4.5062  -4.3140
     0.3428   0.8259   1.8546   2.1870   3.9329   4.9060   5.1488   5.3641
     5.5958   5.9044   6.2553   6.5245   6.7769   7.0617   7.3398   7.6246
     9.7305  10.1228  10.3448  10.5386  10.7849  10.8165  11.2684  12.0534
    12.1332  12.5471

     occupation numbers 
     1.0000   1.0000   1.0000   1.0000   1.0000   1.0000   1.0000   1.0000
     1.0000   1.0000   1.0000   1.0000   1.0000   1.0000   1.0000   1.0000
     1.0000   1.0000   1.0000   1.0000   1.0000   1.0000   1.0000   1.0000
     1.0000   1.0000   1.0000   1.0000   1.0000   1.0000   1.0000   1.0000
     1.0000   1.0000   1.0000   1.0000   1.0000   1.0000   1.0000   1.0000
     0.0000   0.0000   0.0000   0.0000   0.0000   0.0000   0.0000   0.0000
     0.0000   0.0000

          k = 0.3333 0.0000 0.9605 (  2169 PWs)   bands (ev):

   -13.4321 -13.4265 -13.4264 -13.4232 -13.4222 -13.4191 -13.4127 -13.4023
   -13.3987 -13.3959 -13.3903 -13.3875 -13.3815 -13.3796 -13.3614 -13.3580
   -13.3522 -13.3392 -13.3339 -13.3277  -5.1588  -5.0259  -4.5872  -4.4401
     0.0826   0.4144   1.3621   1.6223   4.3424   5.2165   5.5670   5.6225
     5.7491   6.2135   6.3117   6.4996   7.0352   7.1983   7.8023   7.9742
     9.1700   9.5281   9.7648  10.0378  10.0953  10.4964  10.8764  11.3104
    11.6608  11.7745

     occupation numbers 
     1.0000   1.0000   1.0000   1.0000   1.0000   1.0000   1.0000   1.0000
     1.0000   1.0000   1.0000   1.0000   1.0000   1.0000   1.0000   1.0000
     1.0000   1.0000   1.0000   1.0000   1.0000   1.0000   1.0000   1.0000
     1.0000   1.0000   1.0000   1.0000   1.0000   1.0000   1.0000   1.0000
     1.0000   1.0000   1.0000   1.0000   1.0000   1.0000   1.0000   1.0000
     0.0000   0.0000   0.0000   0.0000   0.0000   0.0000   0.0000   0.0000
     0.0000   0.0000

          k = 0.3333 0.0000-1.2807 (  2178 PWs)   bands (ev):

   -13.4337 -13.4337 -13.4307 -13.4307 -13.4234 -13.4234 -13.4134 -13.4134
   -13.3965 -13.3965 -13.3861 -13.3861 -13.3848 -13.3848 -13.3587 -13.3587
   -13.3453 -13.3453 -13.3322 -13.3322  -4.9219  -4.9219  -4.6226  -4.6226
     0.1220   0.1220   1.2937   1.2937   4.8702   4.8702   5.9298   5.9298
     5.9442   5.9442   6.2975   6.2975   7.4929   7.4929   7.8259   7.8259
     9.2660   9.2660   9.7087   9.7087   9.8419   9.8419  11.1594  11.1594
    11.2365  11.2365

     occupation numbers 
     1.0000   1.0000   1.0000   1.0000   1.0000   1.0000   1.0000   1.0000
     1.0000   1.0000   1.0000   1.0000   1.0000   1.0000   1.0000   1.0000
     1.0000   1.0000   1.0000   1.0000   1.0000   1.0000   1.0000   1.0000
     1.0000   1.0000   1.0000   1.0000   1.0000   1.0000   1.0000   1.0000
     1.0000   1.0000   1.0000   1.0000   1.0000   1.0000   1.0000   1.0000
     0.0000   0.0000   0.0000   0.0000   0.0000   0.0000   0.0000   0.0000
     0.0000   0.0000

          k = 0.3333 0.3395 0.0000 (  2141 PWs)   bands (ev):

   -13.4256 -13.4208 -13.4132 -13.4109 -13.4070 -13.4067 -13.4043 -13.3994
   -13.3984 -13.3973 -13.3806 -13.3796 -13.3732 -13.3662 -13.3573 -13.3573
   -13.3438 -13.3364 -13.3297 -13.3255  -5.5918  -5.4321  -4.4693  -4.2489
     0.8362   1.2665   2.6462   2.6579   3.6561   4.4869   4.7090   4.9919
     5.2195   5.5135   6.0613   6.1962   6.4117   6.4738   7.5286   7.5662
    10.1609  10.5994  10.9376  11.0340  11.2689  11.4676  11.5404  12.2027
    12.8354  13.1123

     occupation numbers 
     1.0000   1.0000   1.0000   1.0000   1.0000   1.0000   1.0000   1.0000
     1.0000   1.0000   1.0000   1.0000   1.0000   1.0000   1.0000   1.0000
     1.0000   1.0000   1.0000   1.0000   1.0000   1.0000   1.0000   1.0000
     1.0000   1.0000   1.0000   1.0000   1.0000   1.0000   1.0000   1.0000
     1.0000   1.0000   1.0000   1.0000   1.0000   1.0000   1.0000   1.0000
     0.0000   0.0000   0.0000   0.0000   0.0000   0.0000   0.0000   0.0000
     0.0000   0.0000

          k = 0.3333 0.3395 0.3202 (  2152 PWs)   bands (ev):

   -13.4262 -13.4228 -13.4163 -13.4152 -13.4111 -13.4080 -13.4072 -13.4016
   -13.4009 -13.3944 -13.3865 -13.3842 -13.3764 -13.3729 -13.3587 -13.3556
   -13.3466 -13.3411 -13.3297 -13.3282  -5.5274  -5.3707  -4.4652  -4.2569
     0.6924   1.1585   2.3586   2.5023   3.7444   4.3646   4.6119   4.9469
     5.4638   5.8224   5.9003   6.0622   6.8065   7.0273   7.4364   7.5843
     9.9650  10.1221  10.5330  10.9670  11.1450  11.3901  11.7878  12.2022
    12.4274  12.7125

     occupation numbers 
     1.0000   1.0000   1.0000   1.0000   1.0000   1.0000   1.0000   1.0000
     1.0000   1.0000   1.0000   1.0000   1.0000   1.0000   1.0000   1.0000
     1.0000   1.0000   1.0000   1.0000   1.0000   1.0000   1.0000   1.0000
     1.0000   1.0000   1.0000   1.0000   1.0000   1.0000   1.0000   1.0000
     1.0000   1.0000   1.0000   1.0000   1.0000   1.0000   1.0000   1.0000
     0.0000   0.0000   0.0000   0.0000   0.0000   0.0000   0.0000   0.0000
     0.0000   0.0000

          k = 0.3333 0.3395 0.6403 (  2162 PWs)   bands (ev):

   -13.4277 -13.4249 -13.4223 -13.4199 -13.4169 -13.4142 -13.4114 -13.4073
   -13.4004 -13.3923 -13.3900 -13.3870 -13.3809 -13.3778 -13.3578 -13.3553
   -13.3489 -13.3456 -13.3286 -13.3254  -5.3465  -5.1990  -4.4764  -4.2993
     0.3875   0.8630   1.8234   2.0996   3.9662   4.3384   4.5865   5.2680
     5.4132   5.7602   6.3197   6.4597   7.1613   7.2472   7.4190   7.5949
     9.6064   9.6923  10.1528  10.4893  10.7930  11.2148  11.6203  11.7334
    12.4132  12.5508

     occupation numbers 
     1.0000   1.0000   1.0000   1.0000   1.0000   1.0000   1.0000   1.0000
     1.0000   1.0000   1.0000   1.0000   1.0000   1.0000   1.0000   1.0000
     1.0000   1.0000   1.0000   1.0000   1.0000   1.0000   1.0000   1.0000
     1.0000   1.0000   1.0000   1.0000   1.0000   1.0000   1.0000   1.0000
     1.0000   1.0000   1.0000   1.0000   1.0000   1.0000   1.0000   1.0000
     0.0000   0.0000   0.0000   0.0000   0.0000   0.0000   0.0000   0.0000
     0.0000   0.0000

          k = 0.3333 0.3395 0.9605 (  2163 PWs)   bands (ev):

   -13.4292 -13.4259 -13.4239 -13.4197 -13.4168 -13.4154 -13.4098 -13.4072
   -13.3970 -13.3925 -13.3888 -13.3872 -13.3825 -13.3766 -13.3581 -13.3540
   -13.3471 -13.3452 -13.3300 -13.3263  -5.0908  -4.9639  -4.5495  -4.4133
     0.1774   0.5010   1.4201   1.6495   4.3040   4.5976   4.8885   5.3068
     5.5605   5.7527   6.1223   6.5620   7.1194   7.2886   7.4873   7.5943
     9.4408   9.7851   9.9021  10.1654  10.6131  10.9950  11.1000  11.3567
    12.3188  12.4446

     occupation numbers 
     1.0000   1.0000   1.0000   1.0000   1.0000   1.0000   1.0000   1.0000
     1.0000   1.0000   1.0000   1.0000   1.0000   1.0000   1.0000   1.0000
     1.0000   1.0000   1.0000   1.0000   1.0000   1.0000   1.0000   1.0000
     1.0000   1.0000   1.0000   1.0000   1.0000   1.0000   1.0000   1.0000
     1.0000   1.0000   1.0000   1.0000   1.0000   1.0000   1.0000   1.0000
     0.0000   0.0000   0.0000   0.0000   0.0000   0.0000   0.0000   0.0000
     0.0000   0.0000

          k = 0.3333 0.3395-1.2807 (  2156 PWs)   bands (ev):

   -13.4237 -13.4237 -13.4212 -13.4212 -13.4131 -13.4131 -13.4052 -13.4052
   -13.3931 -13.3931 -13.3870 -13.3870 -13.3809 -13.3809 -13.3522 -13.3522
   -13.3443 -13.3443 -13.3232 -13.3232  -4.8638  -4.8638  -4.5816  -4.5816
     0.2243   0.2243   1.3682   1.3682   4.7083   4.7083   5.1667   5.1667
     5.5572   5.5572   6.2334   6.2334   7.2147   7.2147   7.5473   7.5473
     9.6057   9.6057   9.9641   9.9641  10.6656  10.6656  11.2896  11.2896
    12.0695  12.0695

     occupation numbers 
     1.0000   1.0000   1.0000   1.0000   1.0000   1.0000   1.0000   1.0000
     1.0000   1.0000   1.0000   1.0000   1.0000   1.0000   1.0000   1.0000
     1.0000   1.0000   1.0000   1.0000   1.0000   1.0000   1.0000   1.0000
     1.0000   1.0000   1.0000   1.0000   1.0000   1.0000   1.0000   1.0000
     1.0000   1.0000   1.0000   1.0000   1.0000   1.0000   1.0000   1.0000
     0.0000   0.0000   0.0000   0.0000   0.0000   0.0000   0.0000   0.0000
     0.0000   0.0000

          k = 0.3333 0.6790 0.0000 (  2141 PWs)   bands (ev):

   -13.4203 -13.4188 -13.4164 -13.4141 -13.4040 -13.4030 -13.4030 -13.4018
   -13.4010 -13.3982 -13.3781 -13.3773 -13.3703 -13.3672 -13.3575 -13.3543
   -13.3416 -13.3410 -13.3333 -13.3258  -5.3586  -5.2180  -4.4258  -4.2664
     0.5562   0.9357   1.8216   2.0054   3.8942   4.7593   4.8986   5.1358
     5.5325   5.7750   6.1867   6.3147   6.4762   6.8066   7.5077   7.7058
     9.3729  10.0223  10.3961  10.5648  10.7617  11.2955  11.3561  11.9606
    12.3146  12.3668

     occupation numbers 
     1.0000   1.0000   1.0000   1.0000   1.0000   1.0000   1.0000   1.0000
     1.0000   1.0000   1.0000   1.0000   1.0000   1.0000   1.0000   1.0000
     1.0000   1.0000   1.0000   1.0000   1.0000   1.0000   1.0000   1.0000
     1.0000   1.0000   1.0000   1.0000   1.0000   1.0000   1.0000   1.0000
     1.0000   1.0000   1.0000   1.0000   1.0000   1.0000   1.0000   1.0000
     0.0000   0.0000   0.0000   0.0000   0.0000   0.0000   0.0000   0.0000
     0.0000   0.0000

          k = 0.3333 0.6790 0.3202 (  2148 PWs)   bands (ev):

   -13.4222 -13.4212 -13.4158 -13.4116 -13.4086 -13.4066 -13.4035 -13.4015
   -13.3997 -13.3964 -13.3838 -13.3823 -13.3735 -13.3686 -13.3619 -13.3534
   -13.3434 -13.3407 -13.3335 -13.3258  -5.2991  -5.1614  -4.4184  -4.2666
     0.5431   0.9532   1.7909   1.9242   3.9193   4.2042   4.5590   5.0544
     5.4710   5.7973   6.1820   6.2982   6.9182   7.0338   7.4771   7.5800
     9.4285   9.6177  10.2651  10.5292  10.8878  11.1852  11.5600  11.8787
    12.2429  12.6191

     occupation numbers 
     1.0000   1.0000   1.0000   1.0000   1.0000   1.0000   1.0000   1.0000
     1.0000   1.0000   1.0000   1.0000   1.0000   1.0000   1.0000   1.0000
     1.0000   1.0000   1.0000   1.0000   1.0000   1.0000   1.0000   1.0000
     1.0000   1.0000   1.0000   1.0000   1.0000   1.0000   1.0000   1.0000
     1.0000   1.0000   1.0000   1.0000   1.0000   1.0000   1.0000   1.0000
     0.0000   0.0000   0.0000   0.0000   0.0000   0.0000   0.0000   0.0000
     0.0000   0.0000

          k = 0.3333 0.6790 0.6403 (  2151 PWs)   bands (ev):

   -13.4246 -13.4227 -13.4164 -13.4142 -13.4110 -13.4080 -13.4030 -13.4018
   -13.3977 -13.3961 -13.3842 -13.3821 -13.3745 -13.3732 -13.3566 -13.3526
   -13.3488 -13.3428 -13.3287 -13.3241  -5.1333  -5.0061  -4.4161  -4.2849
     0.4911   0.9276   1.6489   1.7868   3.7291   3.8451   4.3943   4.8615
     4.9763   5.5841   6.3222   6.5259   6.6102   6.6890   7.4507   7.6054
     9.6068   9.9876  10.1534  10.5252  10.8744  11.3014  11.6075  12.1552
    12.5515  12.9480

     occupation numbers 
     1.0000   1.0000   1.0000   1.0000   1.0000   1.0000   1.0000   1.0000
     1.0000   1.0000   1.0000   1.0000   1.0000   1.0000   1.0000   1.0000
     1.0000   1.0000   1.0000   1.0000   1.0000   1.0000   1.0000   1.0000
     1.0000   1.0000   1.0000   1.0000   1.0000   1.0000   1.0000   1.0000
     1.0000   1.0000   1.0000   1.0000   1.0000   1.0000   1.0000   1.0000
     0.0000   0.0000   0.0000   0.0000   0.0000   0.0000   0.0000   0.0000
     0.0000   0.0000

          k = 0.3333 0.6790 0.9605 (  2160 PWs)   bands (ev):

   -13.4273 -13.4246 -13.4229 -13.4198 -13.4120 -13.4087 -13.4076 -13.4050
   -13.4016 -13.3993 -13.3885 -13.3842 -13.3774 -13.3766 -13.3537 -13.3531
   -13.3466 -13.3442 -13.3267 -13.3260  -4.9061  -4.7989  -4.4633  -4.3580
     0.4401   0.7333   1.5272   1.6559   3.6817   3.8273   4.4774   4.6167
     4.8196   5.4620   5.8674   6.1294   6.3357   6.4961   7.1344   7.3894
     9.8317  10.4222  10.6601  10.8729  11.3440  11.5535  11.7713  12.2200
    12.6782  12.9827

     occupation numbers 
     1.0000   1.0000   1.0000   1.0000   1.0000   1.0000   1.0000   1.0000
     1.0000   1.0000   1.0000   1.0000   1.0000   1.0000   1.0000   1.0000
     1.0000   1.0000   1.0000   1.0000   1.0000   1.0000   1.0000   1.0000
     1.0000   1.0000   1.0000   1.0000   1.0000   1.0000   1.0000   1.0000
     1.0000   1.0000   1.0000   1.0000   1.0000   1.0000   1.0000   1.0000
     0.0000   0.0000   0.0000   0.0000   0.0000   0.0000   0.0000   0.0000
     0.0000   0.0000

          k = 0.3333 0.6790-1.2807 (  2168 PWs)   bands (ev):

   -13.4273 -13.4273 -13.4213 -13.4213 -13.4103 -13.4103 -13.4067 -13.4067
   -13.4017 -13.4017 -13.3872 -13.3872 -13.3811 -13.3811 -13.3559 -13.3559
   -13.3520 -13.3520 -13.3343 -13.3343  -4.7125  -4.7125  -4.4848  -4.4848
     0.5134   0.5134   1.5388   1.5388   3.9926   3.9926   4.2090   4.2090
     5.2022   5.2022   5.8357   5.8357   6.3262   6.3262   7.0498   7.0498
    10.2176  10.2176  11.2139  11.2139  11.4261  11.4261  12.1538  12.1538
    12.9477  12.9477

     occupation numbers 
     1.0000   1.0000   1.0000   1.0000   1.0000   1.0000   1.0000   1.0000
     1.0000   1.0000   1.0000   1.0000   1.0000   1.0000   1.0000   1.0000
     1.0000   1.0000   1.0000   1.0000   1.0000   1.0000   1.0000   1.0000
     1.0000   1.0000   1.0000   1.0000   1.0000   1.0000   1.0000   1.0000
     1.0000   1.0000   1.0000   1.0000   1.0000   1.0000   1.0000   1.0000
     0.0000   0.0000   0.0000   0.0000   0.0000   0.0000   0.0000   0.0000
     0.0000   0.0000

          k = 0.3333 1.0186 0.0000 (  2133 PWs)   bands (ev):

   -13.4270 -13.4234 -13.4215 -13.4165 -13.3994 -13.3957 -13.3934 -13.3919
   -13.3870 -13.3862 -13.3813 -13.3767 -13.3635 -13.3625 -13.3589 -13.3565
   -13.3378 -13.3355 -13.3321 -13.3306  -5.0193  -4.9176  -4.4523  -4.3872
     0.3649   0.7189   1.0301   1.3260   4.3418   5.2075   5.2110   5.4671
     5.6050   6.0928   6.2584   6.2821   6.6924   6.7411   7.4823   7.6219
     9.0224   9.2684   9.9485   9.9941  10.5268  10.5487  10.7043  11.0848
    11.3574  12.0835

     occupation numbers 
     1.0000   1.0000   1.0000   1.0000   1.0000   1.0000   1.0000   1.0000
     1.0000   1.0000   1.0000   1.0000   1.0000   1.0000   1.0000   1.0000
     1.0000   1.0000   1.0000   1.0000   1.0000   1.0000   1.0000   1.0000
     1.0000   1.0000   1.0000   1.0000   1.0000   1.0000   1.0000   1.0000
     1.0000   1.0000   1.0000   1.0000   1.0000   1.0000   1.0000   1.0000
     0.0000   0.0000   0.0000   0.0000   0.0000   0.0000   0.0000   0.0000
     0.0000   0.0000

          k = 0.3333 1.0186 0.3202 (  2142 PWs)   bands (ev):

   -13.4269 -13.4230 -13.4213 -13.4186 -13.4043 -13.4014 -13.3952 -13.3940
   -13.3883 -13.3852 -13.3826 -13.3781 -13.3703 -13.3655 -13.3616 -13.3577
   -13.3443 -13.3382 -13.3301 -13.3290  -4.9693  -4.8712  -4.4358  -4.3730
     0.4349   0.7925   1.0886   1.3438   4.2759   4.4122   4.8511   5.2275
     5.5599   5.7556   6.0645   6.4224   6.7086   6.8494   7.2055   7.3769
     9.4715   9.5504   9.7895   9.9424  10.8389  10.8598  11.2383  11.5192
    11.8962  12.4460

     occupation numbers 
     1.0000   1.0000   1.0000   1.0000   1.0000   1.0000   1.0000   1.0000
     1.0000   1.0000   1.0000   1.0000   1.0000   1.0000   1.0000   1.0000
     1.0000   1.0000   1.0000   1.0000   1.0000   1.0000   1.0000   1.0000
     1.0000   1.0000   1.0000   1.0000   1.0000   1.0000   1.0000   1.0000
     1.0000   1.0000   1.0000   1.0000   1.0000   1.0000   1.0000   1.0000
     0.0000   0.0000   0.0000   0.0000   0.0000   0.0000   0.0000   0.0000
     0.0000   0.0000

          k = 0.3333 1.0186 0.6403 (  2146 PWs)   bands (ev):

   -13.4291 -13.4251 -13.4203 -13.4117 -13.4056 -13.4021 -13.3977 -13.3952
   -13.3895 -13.3857 -13.3826 -13.3773 -13.3726 -13.3681 -13.3594 -13.3565
   -13.3440 -13.3374 -13.3312 -13.3217  -4.8349  -4.7474  -4.4036  -4.3458
     0.6123   0.9610   1.2504   1.3865   3.6421   3.8448   4.5906   4.6544
     4.8139   5.3362   5.6416   6.1049   6.1712   6.6181   6.8919   7.3476
     9.6950  10.2789  10.4747  10.8776  11.2063  11.3779  12.0879  12.1854
    12.2673  12.5647

     occupation numbers 
     1.0000   1.0000   1.0000   1.0000   1.0000   1.0000   1.0000   1.0000
     1.0000   1.0000   1.0000   1.0000   1.0000   1.0000   1.0000   1.0000
     1.0000   1.0000   1.0000   1.0000   1.0000   1.0000   1.0000   1.0000
     1.0000   1.0000   1.0000   1.0000   1.0000   1.0000   1.0000   1.0000
     1.0000   1.0000   1.0000   1.0000   1.0000   1.0000   1.0000   1.0000
     0.0000   0.0000   0.0000   0.0000   0.0000   0.0000   0.0000   0.0000
     0.0000   0.0000

          k = 0.3333 1.0186 0.9605 (  2150 PWs)   bands (ev):

   -13.4314 -13.4260 -13.4237 -13.4160 -13.4072 -13.4042 -13.4022 -13.4007
   -13.3883 -13.3832 -13.3814 -13.3794 -13.3693 -13.3680 -13.3567 -13.3554
   -13.3409 -13.3368 -13.3278 -13.3241  -4.6619  -4.5923  -4.3987  -4.3469
     0.7978   1.0201   1.4792   1.4987   3.2721   3.5238   3.9478   4.3015
     4.4157   4.8495   5.0064   5.6007   6.0191   6.4937   6.7147   7.0037
    10.1028  10.7268  11.0486  11.3998  11.5588  11.8802  12.7061  12.8183
    13.1036  13.2715

     occupation numbers 
     1.0000   1.0000   1.0000   1.0000   1.0000   1.0000   1.0000   1.0000
     1.0000   1.0000   1.0000   1.0000   1.0000   1.0000   1.0000   1.0000
     1.0000   1.0000   1.0000   1.0000   1.0000   1.0000   1.0000   1.0000
     1.0000   1.0000   1.0000   1.0000   1.0000   1.0000   1.0000   1.0000
     1.0000   1.0000   1.0000   1.0000   1.0000   1.0000   1.0000   1.0000
     0.0000   0.0000   0.0000   0.0000   0.0000   0.0000   0.0000   0.0000
     0.0000   0.0000

          k = 0.3333 1.0186-1.2807 (  2154 PWs)   bands (ev):

   -13.4281 -13.4281 -13.4264 -13.4264 -13.4069 -13.4069 -13.4025 -13.4025
   -13.3852 -13.3852 -13.3821 -13.3821 -13.3706 -13.3706 -13.3567 -13.3567
   -13.3384 -13.3384 -13.3255 -13.3255  -4.5301  -4.5301  -4.3990  -4.3990
     0.9281   0.9281   1.6015   1.6015   3.3904   3.3904   3.7029   3.7029
     4.5385   4.5385   5.0676   5.0676   6.2108   6.2108   6.8120   6.8120
    10.3809  10.3809  11.3000  11.3000  12.4723  12.4723  12.6059  12.6059
    13.8883  13.8886

     occupation numbers 
     1.0000   1.0000   1.0000   1.0000   1.0000   1.0000   1.0000   1.0000
     1.0000   1.0000   1.0000   1.0000   1.0000   1.0000   1.0000   1.0000
     1.0000   1.0000   1.0000   1.0000   1.0000   1.0000   1.0000   1.0000
     1.0000   1.0000   1.0000   1.0000   1.0000   1.0000   1.0000   1.0000
     1.0000   1.0000   1.0000   1.0000   1.0000   1.0000   1.0000   1.0000
     0.0000   0.0000   0.0000   0.0000   0.0000   0.0000   0.0000   0.0000
     0.0000   0.0000

          k = 0.3333-1.3581 0.0000 (  2140 PWs)   bands (ev):

   -13.4261 -13.4261 -13.4252 -13.4252 -13.3964 -13.3964 -13.3910 -13.3910
   -13.3851 -13.3851 -13.3845 -13.3845 -13.3641 -13.3641 -13.3572 -13.3572
   -13.3370 -13.3370 -13.3360 -13.3360  -4.6585  -4.6585  -4.6264  -4.6264
     0.5051   0.5051   0.8464   0.8464   4.9085   4.9085   5.6624   5.6624
     5.9098   5.9098   6.1219   6.1219   7.0176   7.0176   7.1718   7.1718
     9.3815   9.3815   9.6836   9.6836  10.0791  10.0791  10.4361  10.4361
    11.5488  11.5488

     occupation numbers 
     1.0000   1.0000   1.0000   1.0000   1.0000   1.0000   1.0000   1.0000
     1.0000   1.0000   1.0000   1.0000   1.0000   1.0000   1.0000   1.0000
     1.0000   1.0000   1.0000   1.0000   1.0000   1.0000   1.0000   1.0000
     1.0000   1.0000   1.0000   1.0000   1.0000   1.0000   1.0000   1.0000
     1.0000   1.0000   1.0000   1.0000   1.0000   1.0000   1.0000   1.0000
     0.0000   0.0000   0.0000   0.0000   0.0000   0.0000   0.0000   0.0000
     0.0000   0.0000

          k = 0.3333-1.3581 0.3202 (  2162 PWs)   bands (ev):

   -13.4309 -13.4309 -13.4250 -13.4250 -13.4038 -13.4038 -13.4018 -13.4018
   -13.3901 -13.3901 -13.3855 -13.3855 -13.3703 -13.3703 -13.3666 -13.3666
   -13.3442 -13.3442 -13.3406 -13.3406  -4.6253  -4.6253  -4.5952  -4.5952
     0.5906   0.5906   0.9155   0.9155   4.7300   4.7300   5.0120   5.0120
     5.5605   5.5605   6.1050   6.1050   6.8312   6.8312   7.1367   7.1367
     9.4532   9.4532   9.7477   9.7477  10.8623  10.8623  11.2485  11.2485
    11.8592  11.8592

     occupation numbers 
     1.0000   1.0000   1.0000   1.0000   1.0000   1.0000   1.0000   1.0000
     1.0000   1.0000   1.0000   1.0000   1.0000   1.0000   1.0000   1.0000
     1.0000   1.0000   1.0000   1.0000   1.0000   1.0000   1.0000   1.0000
     1.0000   1.0000   1.0000   1.0000   1.0000   1.0000   1.0000   1.0000
     1.0000   1.0000   1.0000   1.0000   1.0000   1.0000   1.0000   1.0000
     0.0000   0.0000   0.0000   0.0000   0.0000   0.0000   0.0000   0.0000
     0.0000   0.0000

          k = 0.3333-1.3581 0.6403 (  2142 PWs)   bands (ev):

   -13.4244 -13.4244 -13.4221 -13.4221 -13.4020 -13.4020 -13.3966 -13.3966
   -13.3827 -13.3827 -13.3764 -13.3764 -13.3625 -13.3625 -13.3575 -13.3575
   -13.3358 -13.3358 -13.3321 -13.3321  -4.5399  -4.5399  -4.5164  -4.5164
     0.8296   0.8296   1.0984   1.0984   4.0407   4.0407   4.2939   4.2939
     5.0662   5.0662   5.6484   5.6484   6.2893   6.2893   6.9258   6.9258
    10.0457  10.0457  10.8976  10.8976  11.4917  11.4917  11.8328  11.8328
    12.8197  12.8197

     occupation numbers 
     1.0000   1.0000   1.0000   1.0000   1.0000   1.0000   1.0000   1.0000
     1.0000   1.0000   1.0000   1.0000   1.0000   1.0000   1.0000   1.0000
     1.0000   1.0000   1.0000   1.0000   1.0000   1.0000   1.0000   1.0000
     1.0000   1.0000   1.0000   1.0000   1.0000   1.0000   1.0000   1.0000
     1.0000   1.0000   1.0000   1.0000   1.0000   1.0000   1.0000   1.0000
     0.0000   0.0000   0.0000   0.0000   0.0000   0.0000   0.0000   0.0000
     0.0000   0.0000

          k = 0.3333-1.3581 0.9605 (  2138 PWs)   bands (ev):

   -13.4222 -13.4222 -13.4204 -13.4204 -13.4044 -13.4044 -13.3992 -13.3992
   -13.3763 -13.3763 -13.3740 -13.3740 -13.3620 -13.3620 -13.3550 -13.3550
   -13.3323 -13.3323 -13.3262 -13.3262  -4.4488  -4.4488  -4.4354  -4.4354
     1.1397   1.1397   1.3037   1.3037   3.4474   3.4474   3.8132   3.8132
     4.4491   4.4491   4.9573   4.9573   6.2335   6.2335   6.7908   6.7908
    10.4454  10.4454  11.1053  11.1053  12.3527  12.3527  12.4169  12.4169
    13.9477  13.9477

     occupation numbers 
     1.0000   1.0000   1.0000   1.0000   1.0000   1.0000   1.0000   1.0000
     1.0000   1.0000   1.0000   1.0000   1.0000   1.0000   1.0000   1.0000
     1.0000   1.0000   1.0000   1.0000   1.0000   1.0000   1.0000   1.0000
     1.0000   1.0000   1.0000   1.0000   1.0000   1.0000   1.0000   1.0000
     1.0000   1.0000   1.0000   1.0000   1.0000   1.0000   1.0000   1.0000
     0.0000   0.0000   0.0000   0.0000   0.0000   0.0000   0.0000   0.0000
     0.0000   0.0000

          k = 0.3333-1.3581-1.2807 (  2156 PWs)   bands (ev):

   -13.4310 -13.4310 -13.4281 -13.4281 -13.4070 -13.4070 -13.4023 -13.4023
   -13.3818 -13.3818 -13.3803 -13.3803 -13.3653 -13.3653 -13.3567 -13.3567
   -13.3351 -13.3351 -13.3317 -13.3317  -4.4082  -4.4082  -4.4033  -4.4033
     1.3121   1.3121   1.3865   1.3865   3.2520   3.2520   3.6201   3.6201
     4.2099   4.2099   4.5903   4.5903   6.3094   6.3094   6.7253   6.7253
    10.6127  10.6127  10.8348  10.8348  12.8517  12.8517  12.8765  12.8765
    14.4658  14.4658

     occupation numbers 
     1.0000   1.0000   1.0000   1.0000   1.0000   1.0000   1.0000   1.0000
     1.0000   1.0000   1.0000   1.0000   1.0000   1.0000   1.0000   1.0000
     1.0000   1.0000   1.0000   1.0000   1.0000   1.0000   1.0000   1.0000
     1.0000   1.0000   1.0000   1.0000   1.0000   1.0000   1.0000   1.0000
     1.0000   1.0000   1.0000   1.0000   1.0000   1.0000   1.0000   1.0000
     0.0000   0.0000   0.0000   0.0000   0.0000   0.0000   0.0000   0.0000
     0.0000   0.0000

     highest occupied, lowest unoccupied level (ev):     8.0343    8.8575

!    total energy              =    -827.49295531 Ry
     estimated scf accuracy    <          2.5E-09 Ry

     The total energy is the sum of the following terms:
     one-electron contribution =    -256.28936060 Ry
     hartree contribution      =     178.40526212 Ry
     xc contribution           =    -308.88200726 Ry
     ewald contribution        =    -440.60481620 Ry
     DFT-D3 Dispersion         =      -0.12203337 Ry

     convergence has been achieved in   9 iterations

     Forces acting on atoms (cartesian axes, Ry/au):

     atom    1 type  2   force =     0.00821243    0.00000000   -0.00075134
     atom    2 type  1   force =    -0.00887742   -0.00000000   -0.00119016
     atom    3 type  2   force =    -0.00821243    0.00000000   -0.00075134
     atom    4 type  1   force =     0.00887742    0.00000000   -0.00119016
     atom    5 type  2   force =     0.00821243    0.00000000    0.00075134
     atom    6 type  1   force =    -0.00887742   -0.00000000    0.00119016
     atom    7 type  2   force =    -0.00821243   -0.00000000    0.00075134
     atom    8 type  1   force =     0.00887742    0.00000000    0.00119016
     The non-local contrib.  to forces
     atom    1 type  2   force =    -0.11559328    0.00000000    0.09594215
     atom    2 type  1   force =     0.36636778    0.00000000    0.27054485
     atom    3 type  2   force =     0.11559328    0.00000000    0.09594215
     atom    4 type  1   force =    -0.36636778    0.00000000    0.27054485
     atom    5 type  2   force =    -0.11559328    0.00000000   -0.09594215
     atom    6 type  1   force =     0.36636778    0.00000000   -0.27054485
     atom    7 type  2   force =     0.11559328    0.00000000   -0.09594215
     atom    8 type  1   force =    -0.36636778    0.00000000   -0.27054485
     The ionic contribution  to forces
     atom    1 type  2   force =     1.53473235    0.00000000   -1.05154455
     atom    2 type  1   force =    -1.03769718    0.00000000   -0.57506129
     atom    3 type  2   force =    -1.53473235   -0.00000000   -1.05154455
     atom    4 type  1   force =     1.03769718   -0.00000000   -0.57506129
     atom    5 type  2   force =     1.53473235    0.00000000    1.05154455
     atom    6 type  1   force =    -1.03769718    0.00000000    0.57506129
     atom    7 type  2   force =    -1.53473235   -0.00000000    1.05154455
     atom    8 type  1   force =     1.03769718    0.00000000    0.57506129
     The local contribution  to forces
     atom    1 type  2   force =    -1.42314200   -0.00000000    0.96428033
     atom    2 type  1   force =     0.66913226   -0.00000000    0.30731127
     atom    3 type  2   force =     1.42314200   -0.00000000    0.96428033
     atom    4 type  1   force =    -0.66913226    0.00000000    0.30731127
     atom    5 type  2   force =    -1.42314200    0.00000000   -0.96428033
     atom    6 type  1   force =     0.66913226   -0.00000000   -0.30731127
     atom    7 type  2   force =     1.42314200    0.00000000   -0.96428033
     atom    8 type  1   force =    -0.66913226   -0.00000000   -0.30731127
     The core correction contribution to forces
     atom    1 type  2   force =     0.01297915   -0.00000000   -0.01062472
     atom    2 type  1   force =    -0.00604388   -0.00000000   -0.00487124
     atom    3 type  2   force =    -0.01297915    0.00000000   -0.01062472
     atom    4 type  1   force =     0.00604388   -0.00000000   -0.00487124
     atom    5 type  2   force =     0.01297915   -0.00000000    0.01062472
     atom    6 type  1   force =    -0.00604388   -0.00000000    0.00487124
     atom    7 type  2   force =    -0.01297915   -0.00000000    0.01062472
     atom    8 type  1   force =     0.00604388   -0.00000000    0.00487124
     The Hubbard contrib.    to forces
     atom    1 type  2   force =     0.00000000    0.00000000    0.00000000
     atom    2 type  1   force =     0.00000000    0.00000000    0.00000000
     atom    3 type  2   force =     0.00000000    0.00000000    0.00000000
     atom    4 type  1   force =     0.00000000    0.00000000    0.00000000
     atom    5 type  2   force =     0.00000000    0.00000000    0.00000000
     atom    6 type  1   force =     0.00000000    0.00000000    0.00000000
     atom    7 type  2   force =     0.00000000    0.00000000    0.00000000
     atom    8 type  1   force =     0.00000000    0.00000000    0.00000000
     The SCF correction term to forces
     atom    1 type  2   force =     0.00002083    0.00000000    0.00000177
     atom    2 type  1   force =    -0.00008136    0.00000000   -0.00000858
     atom    3 type  2   force =    -0.00002083    0.00000000    0.00000177
     atom    4 type  1   force =     0.00008136    0.00000000   -0.00000858
     atom    5 type  2   force =     0.00002083   -0.00000000   -0.00000177
     atom    6 type  1   force =    -0.00008136    0.00000000    0.00000858
     atom    7 type  2   force =    -0.00002083   -0.00000000   -0.00000177
     atom    8 type  1   force =     0.00008136   -0.00000000    0.00000858

     DFT-D3 dispersion contribution to forces:
     atom    1 type  2   force =    -0.00078462   -0.00000000    0.00119368
     atom    2 type  1   force =    -0.00055504    0.00000000    0.00089483
     atom    3 type  2   force =     0.00078462    0.00000000    0.00119368
     atom    4 type  1   force =     0.00055504   -0.00000000    0.00089483
     atom    5 type  2   force =    -0.00078462   -0.00000000   -0.00119368
     atom    6 type  1   force =    -0.00055504   -0.00000000   -0.00089483
     atom    7 type  2   force =     0.00078462    0.00000000   -0.00119368
     atom    8 type  1   force =     0.00055504    0.00000000   -0.00089483

     Total force =     0.024350     Total SCF correction =     0.000169

     DFT-D3 dispersion Force =     0.003549

     Writing output data file ./tmp/SnSe_pnma.save/

     init_run     :      2.78s CPU      3.46s WALL (       1 calls)
     electrons    :    110.95s CPU    144.39s WALL (       1 calls)
     forces       :      2.84s CPU      3.34s WALL (       1 calls)

     Called by init_run:
     wfcinit      :      1.68s CPU      2.10s WALL (       1 calls)
     wfcinit:atom :      0.01s CPU      0.01s WALL (      17 calls)
     wfcinit:wfcr :      1.56s CPU      1.99s WALL (      17 calls)
     potinit      :      0.29s CPU      0.32s WALL (       1 calls)
     hinit0       :      0.61s CPU      0.62s WALL (       1 calls)

     Called by electrons:
     c_bands      :     99.17s CPU    131.07s WALL (       9 calls)
     sum_band     :      7.73s CPU      8.32s WALL (       9 calls)
     v_of_rho     :      0.83s CPU      0.82s WALL (      10 calls)
     v_h          :      0.04s CPU      0.05s WALL (      10 calls)
     v_xc         :      0.84s CPU      0.83s WALL (      11 calls)
     newd         :      2.92s CPU      4.10s WALL (      10 calls)
     mix_rho      :      0.10s CPU      0.10s WALL (       9 calls)

     Called by c_bands:
     init_us_2    :      0.49s CPU      0.44s WALL (     340 calls)
     cegterg      :     59.58s CPU     93.65s WALL (     153 calls)

     Called by sum_band:
     sum_band:wei :      0.00s CPU      0.00s WALL (       9 calls)
     sum_band:loo :      5.17s CPU      6.21s WALL (       9 calls)
     sum_band:buf :      0.04s CPU      0.03s WALL (     153 calls)
     sum_band:ini :      0.20s CPU      0.19s WALL (     153 calls)
     sum_band:cal :      2.06s CPU      3.15s WALL (     153 calls)
     sum_band:bec :      0.01s CPU      0.02s WALL (     153 calls)
     addusdens    :      1.64s CPU      1.26s WALL (       9 calls)
     addusd:skk   :      0.01s CPU      0.02s WALL (      18 calls)
     addusd:dgemm :      0.86s CPU      0.47s WALL (      18 calls)
     addusd:qvan2 :      0.64s CPU      0.62s WALL (      18 calls)

     Called by *egterg:
     cdiaghg      :     16.15s CPU     40.41s WALL (     607 calls)
     cegterg:over :      8.90s CPU     13.47s WALL (     454 calls)
     cegterg:upda :      1.67s CPU      3.16s WALL (     454 calls)
     cegterg:last :      2.38s CPU      3.20s WALL (     308 calls)
     h_psi        :     23.56s CPU     25.73s WALL (     624 calls)
     s_psi        :      2.75s CPU      2.61s WALL (     624 calls)
     g_psi        :      0.14s CPU      0.13s WALL (     454 calls)

     Called by h_psi:
     h_psi:calbec :      6.62s CPU      9.94s WALL (     624 calls)
     vloc_psi     :     14.14s CPU     13.11s WALL (     624 calls)
     add_vuspsi   :      2.72s CPU      2.60s WALL (     624 calls)

     General routines
     calbec       :      9.43s CPU     14.40s WALL (     845 calls)
     fft          :      0.52s CPU      0.53s WALL (     139 calls)
     ffts         :      0.01s CPU      0.01s WALL (      19 calls)
     fftw         :     14.68s CPU     13.75s WALL (   47408 calls)
     interpolate  :      0.05s CPU      0.05s WALL (      10 calls)

     Parallel routines
     fft_scatt_xy :      2.29s CPU      2.15s WALL (   47566 calls)
     fft_scatt_yz :      4.26s CPU      4.09s WALL (   47566 calls)

     PWSCF        :   1m57.23s CPU   2m31.91s WALL


   This run was terminated on:   8:37:21  19May2026            

=------------------------------------------------------------------------------=
   JOB DONE.
=------------------------------------------------------------------------------=
