
     Program PWSCF v.6.7MaX starts on 18May2026 at 21:23: 3 

     This program is part of the open-source Quantum ESPRESSO suite
     for quantum simulation of materials; please cite
         "P. Giannozzi et al., J. Phys.:Condens. Matter 21 395502 (2009);
         "P. Giannozzi et al., J. Phys.:Condens. Matter 29 465901 (2017);
          URL http://www.quantum-espresso.org", 
     in publications or presentations arising from this work. More details at
     http://www.quantum-espresso.org/quote

     Parallel version (MPI), running on     6 processors

     MPI processes distributed on     1 nodes
     K-points division:     npool     =       3
     R & G space division:  proc/nbgrp/npool/nimage =       2
     Waiting for input...
     Reading input from standard input

     Current dimensions of program PWSCF are:
     Max number of different atomic species (ntypx) = 10
     Max number of k-points (npk) =  40000
     Max angular momentum in pseudopotentials (lmaxx) =  3

     --------------------------------------------
     Parameters for DFT-D3 Dispersion Correction:
     --------------------------------------------
       Reference C6 values for interpolation: 

         atom   Coordination number   C6
         Se         0.000           427.35
         Se         0.990           427.57
         Se         1.981           421.05
         Sn         0.000          1255.14
         Sn         0.951          1084.09
         Sn         1.950          1010.83
         Sn         2.926           818.29
         Sn         3.912           672.20

       Values used:

         atom   Coordination number  R0_AB[au]  C6      C8
         Se         3.637            3.332    421.05  29958.36
         Sn         4.405            3.957    672.26  84376.19
         Se         3.637            3.332    421.05  29958.36
         Sn         4.405            3.957    672.26  84376.19
         Se         3.637            3.332    421.05  29958.36
         Sn         4.405            3.957    672.26  84376.19
         Se         3.637            3.332    421.05  29958.36
         Sn         4.405            3.957    672.26  84376.19

         Molecular C6 ( Ry / a.u.^6 ) =     34497.83


     Subspace diagonalization in iterative solution of the eigenvalue problem:
     a serial algorithm will be used


     Parallelization info
     --------------------
     sticks:   dense  smooth     PW     G-vecs:    dense   smooth      PW
     Min        4055    1619    470               176845    44761    6897
     Max        4056    1620    471               176846    44762    6898
     Sum        8111    3239    941               353691    89523   13795



     bravais-lattice index     =            8
     lattice parameter (alat)  =      21.4862  a.u.
     unit-cell volume          =    1425.7436 (a.u.)^3
     number of atoms/cell      =            8
     number of atomic types    =            2
     number of electrons       =        80.00
     number of Kohn-Sham states=           50
     kinetic-energy cutoff     =      60.0000  Ry
     charge density cutoff     =     600.0000  Ry
     scf convergence threshold =      1.0E-08
     mixing beta               =       0.7000
     number of iterations used =            8  plain     mixing
     Exchange-correlation= SLA  PW   PBE  PBE
                           (   1   4   3   4   0   0   0)

     celldm(1)=  21.486186  celldm(2)=   0.368162  celldm(3)=   0.390413
     celldm(4)=   0.000000  celldm(5)=   0.000000  celldm(6)=   0.000000

     crystal axes: (cart. coord. in units of alat)
               a(1) = (   1.000000   0.000000   0.000000 )  
               a(2) = (   0.000000   0.368162   0.000000 )  
               a(3) = (   0.000000   0.000000   0.390413 )  

     reciprocal axes: (cart. coord. in units 2 pi/alat)
               b(1) = (  1.000000  0.000000  0.000000 )  
               b(2) = (  0.000000  2.716197  0.000000 )  
               b(3) = (  0.000000  0.000000  2.561388 )  


     PseudoPot. # 1 for Sn read from file:
     ../pseudo/Sn_pbe_v1.uspp.F.UPF
     MD5 check sum: 4cf58ce39ec5d5d420df3dd08604eb00
     Pseudo is Ultrasoft + core correction, Zval = 14.0
     Generated by new atomic code, or converted to UPF format
     Using radial grid of  891 points,  6 beta functions with: 
                l(1) =   0
                l(2) =   0
                l(3) =   1
                l(4) =   1
                l(5) =   2
                l(6) =   2
     Q(r) pseudized with  6 coefficients,  rinner =    1.200   1.200   1.200
                                                       1.200   1.200

     PseudoPot. # 2 for Se read from file:
     ../pseudo/Se_pbe_v1.uspp.F.UPF
     MD5 check sum: 1b3568f3a8ae88f9a2a0ad0698632c85
     Pseudo is Ultrasoft + core correction, Zval =  6.0
     Generated by new atomic code, or converted to UPF format
     Using radial grid of  877 points,  6 beta functions with: 
                l(1) =   0
                l(2) =   0
                l(3) =   1
                l(4) =   1
                l(5) =   2
                l(6) =   2
     Q(r) pseudized with  8 coefficients,  rinner =    1.300   1.300   1.300
                                                       1.300   1.300

     atomic species   valence    mass     pseudopotential
        Sn            14.00   118.71000     Sn( 1.00)
        Se             6.00    78.97100     Se( 1.00)

      8 Sym. Ops., with inversion, found ( 6 have fractional translation)


                                    s                        frac. trans.

      isym =  1     identity                                     

 cryst.   s( 1) = (     1          0          0      )
                  (     0          1          0      )
                  (     0          0          1      )

 cart.    s( 1) = (  1.0000000  0.0000000  0.0000000 )
                  (  0.0000000  1.0000000  0.0000000 )
                  (  0.0000000  0.0000000  1.0000000 )


      isym =  2     180 deg rotation - cart. axis [0,0,1]        

 cryst.   s( 2) = (    -1          0          0      )    f =(  0.5000000 )
                  (     0         -1          0      )       (  0.0000000 )
                  (     0          0          1      )       (  0.5000000 )

 cart.    s( 2) = ( -1.0000000  0.0000000  0.0000000 )    f =(  0.5000000 )
                  (  0.0000000 -1.0000000  0.0000000 )       (  0.0000000 )
                  (  0.0000000  0.0000000  1.0000000 )       (  0.1952067 )


      isym =  3     180 deg rotation - cart. axis [0,1,0]        

 cryst.   s( 3) = (    -1          0          0      )    f =( -0.0000000 )
                  (     0          1          0      )       ( -0.5000000 )
                  (     0          0         -1      )       (  0.0000000 )

 cart.    s( 3) = ( -1.0000000  0.0000000  0.0000000 )    f =( -0.0000000 )
                  (  0.0000000  1.0000000  0.0000000 )       ( -0.1840809 )
                  (  0.0000000  0.0000000 -1.0000000 )       (  0.0000000 )


      isym =  4     180 deg rotation - cart. axis [1,0,0]        

 cryst.   s( 4) = (     1          0          0      )    f =(  0.5000000 )
                  (     0         -1          0      )       (  0.5000000 )
                  (     0          0         -1      )       (  0.5000000 )

 cart.    s( 4) = (  1.0000000  0.0000000  0.0000000 )    f =(  0.5000000 )
                  (  0.0000000 -1.0000000  0.0000000 )       (  0.1840809 )
                  (  0.0000000  0.0000000 -1.0000000 )       (  0.1952067 )


      isym =  5     inversion                                    

 cryst.   s( 5) = (    -1          0          0      )
                  (     0         -1          0      )
                  (     0          0         -1      )

 cart.    s( 5) = ( -1.0000000  0.0000000  0.0000000 )
                  (  0.0000000 -1.0000000  0.0000000 )
                  (  0.0000000  0.0000000 -1.0000000 )


      isym =  6     inv. 180 deg rotation - cart. axis [0,0,1]   

 cryst.   s( 6) = (     1          0          0      )    f =(  0.5000000 )
                  (     0          1          0      )       (  0.0000000 )
                  (     0          0         -1      )       (  0.5000000 )

 cart.    s( 6) = (  1.0000000  0.0000000  0.0000000 )    f =(  0.5000000 )
                  (  0.0000000  1.0000000  0.0000000 )       (  0.0000000 )
                  (  0.0000000  0.0000000 -1.0000000 )       (  0.1952067 )


      isym =  7     inv. 180 deg rotation - cart. axis [0,1,0]   

 cryst.   s( 7) = (     1          0          0      )    f =(  0.0000000 )
                  (     0         -1          0      )       (  0.5000000 )
                  (     0          0          1      )       (  0.0000000 )

 cart.    s( 7) = (  1.0000000  0.0000000  0.0000000 )    f =(  0.0000000 )
                  (  0.0000000 -1.0000000  0.0000000 )       (  0.1840809 )
                  (  0.0000000  0.0000000  1.0000000 )       (  0.0000000 )


      isym =  8     inv. 180 deg rotation - cart. axis [1,0,0]   

 cryst.   s( 8) = (    -1          0          0      )    f =(  0.5000000 )
                  (     0          1          0      )       ( -0.5000000 )
                  (     0          0          1      )       (  0.5000000 )

 cart.    s( 8) = ( -1.0000000  0.0000000  0.0000000 )    f =(  0.5000000 )
                  (  0.0000000  1.0000000  0.0000000 )       ( -0.1840809 )
                  (  0.0000000  0.0000000  1.0000000 )       (  0.1952067 )


     point group D_2h (mmm) 
     there are  8 classes
     the character table:

       E     C2    C2'   C2''  i     s_v   s_v'  s_v''
A_g    1.00  1.00  1.00  1.00  1.00  1.00  1.00  1.00
B_1g   1.00  1.00 -1.00 -1.00  1.00  1.00 -1.00 -1.00
B_2g   1.00 -1.00  1.00 -1.00  1.00 -1.00  1.00 -1.00
B_3g   1.00 -1.00 -1.00  1.00  1.00 -1.00 -1.00  1.00
A_u    1.00  1.00  1.00  1.00 -1.00 -1.00 -1.00 -1.00
B_1u   1.00  1.00 -1.00 -1.00 -1.00 -1.00  1.00  1.00
B_2u   1.00 -1.00  1.00 -1.00 -1.00  1.00 -1.00  1.00
B_3u   1.00 -1.00 -1.00  1.00 -1.00  1.00  1.00 -1.00

     the symmetry operations in each class and the name of the first element:

     E        1
          identity                                               
     C2       2
          180 deg rotation - cart. axis [0,0,1]                  
     C2'      4
          180 deg rotation - cart. axis [1,0,0]                  
     C2''     3
          180 deg rotation - cart. axis [0,1,0]                  
     i        5
          inversion                                              
     s_v      6
          inv. 180 deg rotation - cart. axis [0,0,1]             
     s_v'     8
          inv. 180 deg rotation - cart. axis [1,0,0]             
     s_v''    7
          inv. 180 deg rotation - cart. axis [0,1,0]             

   Cartesian axes

     site n.     atom                  positions (alat units)
         1           Se  tau(   1) = (   0.8555000   0.0920405   0.1884916  )
         2           Sn  tau(   2) = (   0.1187000   0.0920405   0.0385728  )
         3           Se  tau(   3) = (   0.6445000   0.2761214   0.3836983  )
         4           Sn  tau(   4) = (   0.3813000   0.2761214   0.2337795  )
         5           Se  tau(   5) = (   0.3555000   0.0920405   0.0067151  )
         6           Sn  tau(   6) = (   0.6187000   0.0920405   0.1566338  )
         7           Se  tau(   7) = (   0.1445000   0.2761214   0.2019218  )
         8           Sn  tau(   8) = (   0.8813000   0.2761214   0.3518405  )

   Crystallographic axes

     site n.     atom                  positions (cryst. coord.)
         1           Se  tau(   1) = (  0.8555000  0.2500000  0.4828000  )
         2           Sn  tau(   2) = (  0.1187000  0.2500000  0.0988000  )
         3           Se  tau(   3) = (  0.6445000  0.7500000  0.9828000  )
         4           Sn  tau(   4) = (  0.3813000  0.7500000  0.5988000  )
         5           Se  tau(   5) = (  0.3555000  0.2500000  0.0172000  )
         6           Sn  tau(   6) = (  0.6187000  0.2500000  0.4012000  )
         7           Se  tau(   7) = (  0.1445000  0.7500000  0.5172000  )
         8           Sn  tau(   8) = (  0.8813000  0.7500000  0.9012000  )

     number of k points=    50
                       cart. coord. in units 2pi/alat
        k(    1) = (   0.0000000   0.0000000   0.0000000), wk =   0.0104167
        k(    2) = (   0.0000000   0.0000000   0.3201735), wk =   0.0208333
        k(    3) = (   0.0000000   0.0000000   0.6403469), wk =   0.0208333
        k(    4) = (   0.0000000   0.0000000   0.9605204), wk =   0.0208333
        k(    5) = (   0.0000000   0.0000000  -1.2806938), wk =   0.0104167
        k(    6) = (   0.0000000   0.3395246   0.0000000), wk =   0.0208333
        k(    7) = (   0.0000000   0.3395246   0.3201735), wk =   0.0416667
        k(    8) = (   0.0000000   0.3395246   0.6403469), wk =   0.0416667
        k(    9) = (   0.0000000   0.3395246   0.9605204), wk =   0.0416667
        k(   10) = (   0.0000000   0.3395246  -1.2806938), wk =   0.0208333
        k(   11) = (   0.0000000   0.6790492   0.0000000), wk =   0.0208333
        k(   12) = (   0.0000000   0.6790492   0.3201735), wk =   0.0416667
        k(   13) = (   0.0000000   0.6790492   0.6403469), wk =   0.0416667
        k(   14) = (   0.0000000   0.6790492   0.9605204), wk =   0.0416667
        k(   15) = (   0.0000000   0.6790492  -1.2806938), wk =   0.0208333
        k(   16) = (   0.0000000   1.0185738   0.0000000), wk =   0.0208333
        k(   17) = (   0.0000000   1.0185738   0.3201735), wk =   0.0416667
        k(   18) = (   0.0000000   1.0185738   0.6403469), wk =   0.0416667
        k(   19) = (   0.0000000   1.0185738   0.9605204), wk =   0.0416667
        k(   20) = (   0.0000000   1.0185738  -1.2806938), wk =   0.0208333
        k(   21) = (   0.0000000  -1.3580984   0.0000000), wk =   0.0104167
        k(   22) = (   0.0000000  -1.3580984   0.3201735), wk =   0.0208333
        k(   23) = (   0.0000000  -1.3580984   0.6403469), wk =   0.0208333
        k(   24) = (   0.0000000  -1.3580984   0.9605204), wk =   0.0208333
        k(   25) = (   0.0000000  -1.3580984  -1.2806938), wk =   0.0104167
        k(   26) = (   0.3333333   0.0000000   0.0000000), wk =   0.0208333
        k(   27) = (   0.3333333   0.0000000   0.3201735), wk =   0.0416667
        k(   28) = (   0.3333333   0.0000000   0.6403469), wk =   0.0416667
        k(   29) = (   0.3333333   0.0000000   0.9605204), wk =   0.0416667
        k(   30) = (   0.3333333   0.0000000  -1.2806938), wk =   0.0208333
        k(   31) = (   0.3333333   0.3395246   0.0000000), wk =   0.0416667
        k(   32) = (   0.3333333   0.3395246   0.3201735), wk =   0.0833333
        k(   33) = (   0.3333333   0.3395246   0.6403469), wk =   0.0833333
        k(   34) = (   0.3333333   0.3395246   0.9605204), wk =   0.0833333
        k(   35) = (   0.3333333   0.3395246  -1.2806938), wk =   0.0416667
        k(   36) = (   0.3333333   0.6790492   0.0000000), wk =   0.0416667
        k(   37) = (   0.3333333   0.6790492   0.3201735), wk =   0.0833333
        k(   38) = (   0.3333333   0.6790492   0.6403469), wk =   0.0833333
        k(   39) = (   0.3333333   0.6790492   0.9605204), wk =   0.0833333
        k(   40) = (   0.3333333   0.6790492  -1.2806938), wk =   0.0416667
        k(   41) = (   0.3333333   1.0185738   0.0000000), wk =   0.0416667
        k(   42) = (   0.3333333   1.0185738   0.3201735), wk =   0.0833333
        k(   43) = (   0.3333333   1.0185738   0.6403469), wk =   0.0833333
        k(   44) = (   0.3333333   1.0185738   0.9605204), wk =   0.0833333
        k(   45) = (   0.3333333   1.0185738  -1.2806938), wk =   0.0416667
        k(   46) = (   0.3333333  -1.3580984   0.0000000), wk =   0.0208333
        k(   47) = (   0.3333333  -1.3580984   0.3201735), wk =   0.0416667
        k(   48) = (   0.3333333  -1.3580984   0.6403469), wk =   0.0416667
        k(   49) = (   0.3333333  -1.3580984   0.9605204), wk =   0.0416667
        k(   50) = (   0.3333333  -1.3580984  -1.2806938), wk =   0.0208333

                       cryst. coord.
        k(    1) = (   0.0000000   0.0000000   0.0000000), wk =   0.0104167
        k(    2) = (   0.0000000   0.0000000   0.1250000), wk =   0.0208333
        k(    3) = (   0.0000000   0.0000000   0.2500000), wk =   0.0208333
        k(    4) = (   0.0000000   0.0000000   0.3750000), wk =   0.0208333
        k(    5) = (   0.0000000   0.0000000  -0.5000000), wk =   0.0104167
        k(    6) = (   0.0000000   0.1250000   0.0000000), wk =   0.0208333
        k(    7) = (   0.0000000   0.1250000   0.1250000), wk =   0.0416667
        k(    8) = (   0.0000000   0.1250000   0.2500000), wk =   0.0416667
        k(    9) = (   0.0000000   0.1250000   0.3750000), wk =   0.0416667
        k(   10) = (   0.0000000   0.1250000  -0.5000000), wk =   0.0208333
        k(   11) = (   0.0000000   0.2500000   0.0000000), wk =   0.0208333
        k(   12) = (   0.0000000   0.2500000   0.1250000), wk =   0.0416667
        k(   13) = (   0.0000000   0.2500000   0.2500000), wk =   0.0416667
        k(   14) = (   0.0000000   0.2500000   0.3750000), wk =   0.0416667
        k(   15) = (   0.0000000   0.2500000  -0.5000000), wk =   0.0208333
        k(   16) = (   0.0000000   0.3750000   0.0000000), wk =   0.0208333
        k(   17) = (   0.0000000   0.3750000   0.1250000), wk =   0.0416667
        k(   18) = (   0.0000000   0.3750000   0.2500000), wk =   0.0416667
        k(   19) = (   0.0000000   0.3750000   0.3750000), wk =   0.0416667
        k(   20) = (   0.0000000   0.3750000  -0.5000000), wk =   0.0208333
        k(   21) = (   0.0000000  -0.5000000   0.0000000), wk =   0.0104167
        k(   22) = (   0.0000000  -0.5000000   0.1250000), wk =   0.0208333
        k(   23) = (   0.0000000  -0.5000000   0.2500000), wk =   0.0208333
        k(   24) = (   0.0000000  -0.5000000   0.3750000), wk =   0.0208333
        k(   25) = (   0.0000000  -0.5000000  -0.5000000), wk =   0.0104167
        k(   26) = (   0.3333333   0.0000000   0.0000000), wk =   0.0208333
        k(   27) = (   0.3333333   0.0000000   0.1250000), wk =   0.0416667
        k(   28) = (   0.3333333   0.0000000   0.2500000), wk =   0.0416667
        k(   29) = (   0.3333333   0.0000000   0.3750000), wk =   0.0416667
        k(   30) = (   0.3333333   0.0000000  -0.5000000), wk =   0.0208333
        k(   31) = (   0.3333333   0.1250000   0.0000000), wk =   0.0416667
        k(   32) = (   0.3333333   0.1250000   0.1250000), wk =   0.0833333
        k(   33) = (   0.3333333   0.1250000   0.2500000), wk =   0.0833333
        k(   34) = (   0.3333333   0.1250000   0.3750000), wk =   0.0833333
        k(   35) = (   0.3333333   0.1250000  -0.5000000), wk =   0.0416667
        k(   36) = (   0.3333333   0.2500000   0.0000000), wk =   0.0416667
        k(   37) = (   0.3333333   0.2500000   0.1250000), wk =   0.0833333
        k(   38) = (   0.3333333   0.2500000   0.2500000), wk =   0.0833333
        k(   39) = (   0.3333333   0.2500000   0.3750000), wk =   0.0833333
        k(   40) = (   0.3333333   0.2500000  -0.5000000), wk =   0.0416667
        k(   41) = (   0.3333333   0.3750000   0.0000000), wk =   0.0416667
        k(   42) = (   0.3333333   0.3750000   0.1250000), wk =   0.0833333
        k(   43) = (   0.3333333   0.3750000   0.2500000), wk =   0.0833333
        k(   44) = (   0.3333333   0.3750000   0.3750000), wk =   0.0833333
        k(   45) = (   0.3333333   0.3750000  -0.5000000), wk =   0.0416667
        k(   46) = (   0.3333333  -0.5000000   0.0000000), wk =   0.0208333
        k(   47) = (   0.3333333  -0.5000000   0.1250000), wk =   0.0416667
        k(   48) = (   0.3333333  -0.5000000   0.2500000), wk =   0.0416667
        k(   49) = (   0.3333333  -0.5000000   0.3750000), wk =   0.0416667
        k(   50) = (   0.3333333  -0.5000000  -0.5000000), wk =   0.0208333

     Dense  grid:   353691 G-vectors     FFT dimensions: ( 180,  64,  72)

     Smooth grid:    89523 G-vectors     FFT dimensions: ( 108,  40,  48)

     Dynamical RAM for                 wfc:       4.27 MB

     Dynamical RAM for     wfc (w. buffer):      76.84 MB

     Dynamical RAM for           str. fact:       5.40 MB

     Dynamical RAM for           local pot:       0.00 MB

     Dynamical RAM for          nlocal pot:      12.29 MB

     Dynamical RAM for                qrad:       3.93 MB

     Dynamical RAM for          rho,v,vnew:      17.59 MB

     Dynamical RAM for               rhoin:       5.86 MB

     Dynamical RAM for            rho*nmix:      43.18 MB

     Dynamical RAM for           G-vectors:      10.46 MB

     Dynamical RAM for          h,s,v(r/c):       0.46 MB

     Dynamical RAM for          <psi|beta>:       0.11 MB

     Dynamical RAM for                 psi:       8.54 MB

     Dynamical RAM for                hpsi:       8.54 MB

     Dynamical RAM for                spsi:       8.54 MB

     Dynamical RAM for      wfcinit/wfcrot:       8.94 MB

     Dynamical RAM for           addusdens:     172.70 MB

     Dynamical RAM for          addusforce:     177.66 MB

     Estimated static dynamical RAM per process >     199.46 MB

     Estimated max dynamical RAM per process >     377.12 MB

     Estimated total dynamical RAM >       2.21 GB

     Initial potential from superposition of free atoms

     starting charge   75.99954, renormalised to   80.00000
     Starting wfcs are   52 randomized atomic wfcs

     total cpu time spent up to now is       21.9 secs

     Self-consistent Calculation

     iteration #  1     ecut=    60.00 Ry     beta= 0.70
     Davidson diagonalization with overlap
     ethr =  1.00E-02,  avg # of iterations =  3.8

     total cpu time spent up to now is       86.2 secs

     total energy              =    -826.67678369 Ry
     estimated scf accuracy    <       2.63064805 Ry

     iteration #  2     ecut=    60.00 Ry     beta= 0.70
     Davidson diagonalization with overlap
     ethr =  3.29E-03,  avg # of iterations =  2.0

     total cpu time spent up to now is      137.2 secs

     total energy              =    -827.46241849 Ry
     estimated scf accuracy    <       1.09037918 Ry

     iteration #  3     ecut=    60.00 Ry     beta= 0.70
     Davidson diagonalization with overlap
     ethr =  1.36E-03,  avg # of iterations =  2.0

     total cpu time spent up to now is      183.8 secs

     total energy              =    -827.73347127 Ry
     estimated scf accuracy    <       0.06115763 Ry

     iteration #  4     ecut=    60.00 Ry     beta= 0.70
     Davidson diagonalization with overlap
     ethr =  7.64E-05,  avg # of iterations =  3.2

     total cpu time spent up to now is      235.5 secs

     total energy              =    -827.74458956 Ry
     estimated scf accuracy    <       0.00294923 Ry

     iteration #  5     ecut=    60.00 Ry     beta= 0.70
     Davidson diagonalization with overlap
     ethr =  3.69E-06,  avg # of iterations =  6.3

     total cpu time spent up to now is      302.0 secs

     total energy              =    -827.74524346 Ry
     estimated scf accuracy    <       0.00081083 Ry

     iteration #  6     ecut=    60.00 Ry     beta= 0.70
     Davidson diagonalization with overlap
     ethr =  1.01E-06,  avg # of iterations =  2.2

     total cpu time spent up to now is      350.1 secs

     total energy              =    -827.74541889 Ry
     estimated scf accuracy    <       0.00004489 Ry

     iteration #  7     ecut=    60.00 Ry     beta= 0.70
     Davidson diagonalization with overlap
     ethr =  5.61E-08,  avg # of iterations =  5.0

     total cpu time spent up to now is      420.2 secs

     total energy              =    -827.74544713 Ry
     estimated scf accuracy    <       0.00000259 Ry

     iteration #  8     ecut=    60.00 Ry     beta= 0.70
     Davidson diagonalization with overlap
     ethr =  3.24E-09,  avg # of iterations =  3.3

     total cpu time spent up to now is      483.3 secs

     total energy              =    -827.74544823 Ry
     estimated scf accuracy    <       0.00000042 Ry

     iteration #  9     ecut=    60.00 Ry     beta= 0.70
     Davidson diagonalization with overlap
     ethr =  5.24E-10,  avg # of iterations =  2.7

     total cpu time spent up to now is      542.8 secs

     End of self-consistent calculation

          k = 0.0000 0.0000 0.0000 ( 11195 PWs)   bands (ev):

   -13.2672 -13.2557 -13.2524 -13.2501 -13.2499 -13.2459 -13.2431 -13.2388
   -13.2351 -13.2337 -13.2336 -13.2261 -13.2189 -13.2121 -13.1979 -13.1931
   -13.1879 -13.1844 -13.1764 -13.1670  -5.7486  -5.3984  -4.6622  -4.1624
     0.8109   1.9493   2.5391   3.0743   3.2286   4.6619   4.7017   4.7759
     5.1806   5.2372   5.8089   6.3102   6.5336   6.9880   7.3976   7.5670
     8.8495  10.9496  11.0984  11.1316  11.3561  11.4505  12.3330  12.6288
    12.7028  12.7418

     occupation numbers 
     1.0000   1.0000   1.0000   1.0000   1.0000   1.0000   1.0000   1.0000
     1.0000   1.0000   1.0000   1.0000   1.0000   1.0000   1.0000   1.0000
     1.0000   1.0000   1.0000   1.0000   1.0000   1.0000   1.0000   1.0000
     1.0000   1.0000   1.0000   1.0000   1.0000   1.0000   1.0000   1.0000
     1.0000   1.0000   1.0000   1.0000   1.0000   1.0000   1.0000   1.0000
     0.0000   0.0000   0.0000   0.0000   0.0000   0.0000   0.0000   0.0000
     0.0000   0.0000

          k = 0.0000 0.0000 0.3202 ( 11205 PWs)   bands (ev):

   -13.2663 -13.2548 -13.2525 -13.2508 -13.2494 -13.2471 -13.2435 -13.2394
   -13.2347 -13.2330 -13.2313 -13.2263 -13.2184 -13.2125 -13.1980 -13.1927
   -13.1886 -13.1849 -13.1760 -13.1673  -5.6814  -5.3369  -4.6528  -4.1792
     0.5849   1.8067   2.1937   2.8121   3.1998   4.7331   4.7644   5.1510
     5.2733   5.6932   5.8772   6.3900   6.5683   7.2114   7.2696   7.5940
     8.9031  10.4004  10.9974  11.1375  11.1596  11.3503  12.1930  12.3122
    12.4629  12.6920

     occupation numbers 
     1.0000   1.0000   1.0000   1.0000   1.0000   1.0000   1.0000   1.0000
     1.0000   1.0000   1.0000   1.0000   1.0000   1.0000   1.0000   1.0000
     1.0000   1.0000   1.0000   1.0000   1.0000   1.0000   1.0000   1.0000
     1.0000   1.0000   1.0000   1.0000   1.0000   1.0000   1.0000   1.0000
     1.0000   1.0000   1.0000   1.0000   1.0000   1.0000   1.0000   1.0000
     0.0000   0.0000   0.0000   0.0000   0.0000   0.0000   0.0000   0.0000
     0.0000   0.0000

          k = 0.0000 0.0000 0.6403 ( 11199 PWs)   bands (ev):

   -13.2638 -13.2530 -13.2528 -13.2525 -13.2499 -13.2484 -13.2443 -13.2410
   -13.2334 -13.2293 -13.2269 -13.2268 -13.2175 -13.2136 -13.1978 -13.1916
   -13.1902 -13.1860 -13.1749 -13.1683  -5.4916  -5.1627  -4.6528  -4.2460
     0.1702   1.3527   1.5098   2.3515   3.3691   5.0028   5.0581   5.5362
     5.7223   6.0376   6.1777   6.6232   6.8777   7.0107   7.5217   7.8389
     9.2168   9.4498  10.1728  10.2267  10.9505  11.2346  11.4549  11.5823
    12.6061  12.7491

     occupation numbers 
     1.0000   1.0000   1.0000   1.0000   1.0000   1.0000   1.0000   1.0000
     1.0000   1.0000   1.0000   1.0000   1.0000   1.0000   1.0000   1.0000
     1.0000   1.0000   1.0000   1.0000   1.0000   1.0000   1.0000   1.0000
     1.0000   1.0000   1.0000   1.0000   1.0000   1.0000   1.0000   1.0000
     1.0000   1.0000   1.0000   1.0000   1.0000   1.0000   1.0000   1.0000
     0.0000   0.0000   0.0000   0.0000   0.0000   0.0000   0.0000   0.0000
     0.0000   0.0000

          k = 0.0000 0.0000 0.9605 ( 11218 PWs)   bands (ev):

   -13.2604 -13.2545 -13.2540 -13.2526 -13.2506 -13.2480 -13.2449 -13.2430
   -13.2316 -13.2281 -13.2241 -13.2222 -13.2175 -13.2156 -13.1967 -13.1923
   -13.1902 -13.1874 -13.1733 -13.1698  -5.2185  -4.9085  -4.7319  -4.3946
    -0.0656   0.5737   1.3332   1.8115   3.8096   4.9244   5.4903   5.9158
     6.1289   6.3129   6.4619   6.5646   6.9128   7.4264   7.8064   8.0306
     8.9988   9.3176   9.6069   9.7877  10.1803  10.2814  10.8434  11.1272
    11.6649  11.8369

     occupation numbers 
     1.0000   1.0000   1.0000   1.0000   1.0000   1.0000   1.0000   1.0000
     1.0000   1.0000   1.0000   1.0000   1.0000   1.0000   1.0000   1.0000
     1.0000   1.0000   1.0000   1.0000   1.0000   1.0000   1.0000   1.0000
     1.0000   1.0000   1.0000   1.0000   1.0000   1.0000   1.0000   1.0000
     1.0000   1.0000   1.0000   1.0000   1.0000   1.0000   1.0000   1.0000
     0.0000   0.0000   0.0000   0.0000   0.0000   0.0000   0.0000   0.0000
     0.0000   0.0000

          k = 0.0000 0.0000-1.2807 ( 11180 PWs)   bands (ev):

   -13.2571 -13.2571 -13.2542 -13.2542 -13.2489 -13.2489 -13.2445 -13.2445
   -13.2297 -13.2297 -13.2195 -13.2195 -13.2186 -13.2186 -13.1947 -13.1947
   -13.1888 -13.1888 -13.1715 -13.1715  -4.9349  -4.9349  -4.6301  -4.6301
     0.0662   0.0662   1.4339   1.4339   4.3886   4.3886   5.9272   5.9272
     6.3044   6.3044   6.6770   6.6770   7.2594   7.2594   7.7968   7.7968
     9.3212   9.3212   9.6522   9.6522   9.7888   9.7888  10.7603  10.7603
    11.2261  11.2261

     occupation numbers 
     1.0000   1.0000   1.0000   1.0000   1.0000   1.0000   1.0000   1.0000
     1.0000   1.0000   1.0000   1.0000   1.0000   1.0000   1.0000   1.0000
     1.0000   1.0000   1.0000   1.0000   1.0000   1.0000   1.0000   1.0000
     1.0000   1.0000   1.0000   1.0000   1.0000   1.0000   1.0000   1.0000
     1.0000   1.0000   1.0000   1.0000   1.0000   1.0000   1.0000   1.0000
     0.0000   0.0000   0.0000   0.0000   0.0000   0.0000   0.0000   0.0000
     0.0000   0.0000

          k = 0.0000 0.3395 0.0000 ( 11177 PWs)   bands (ev):

   -13.2636 -13.2540 -13.2513 -13.2495 -13.2485 -13.2483 -13.2455 -13.2404
   -13.2372 -13.2318 -13.2304 -13.2285 -13.2165 -13.2126 -13.1962 -13.1940
   -13.1868 -13.1863 -13.1764 -13.1683  -5.6645  -5.3268  -4.6254  -4.1666
     0.6924   1.7086   2.4622   2.6202   3.2102   4.5950   4.8808   4.9813
     5.1633   5.3292   6.0154   6.3584   6.5182   7.2444   7.4079   7.4914
     8.9806  10.3768  10.9742  11.3190  11.3396  11.3704  11.9432  12.1014
    12.5124  12.9364

     occupation numbers 
     1.0000   1.0000   1.0000   1.0000   1.0000   1.0000   1.0000   1.0000
     1.0000   1.0000   1.0000   1.0000   1.0000   1.0000   1.0000   1.0000
     1.0000   1.0000   1.0000   1.0000   1.0000   1.0000   1.0000   1.0000
     1.0000   1.0000   1.0000   1.0000   1.0000   1.0000   1.0000   1.0000
     1.0000   1.0000   1.0000   1.0000   1.0000   1.0000   1.0000   1.0000
     0.0000   0.0000   0.0000   0.0000   0.0000   0.0000   0.0000   0.0000
     0.0000   0.0000

          k = 0.0000 0.3395 0.3202 ( 11199 PWs)   bands (ev):

   -13.2631 -13.2535 -13.2522 -13.2495 -13.2489 -13.2479 -13.2459 -13.2416
   -13.2367 -13.2301 -13.2289 -13.2286 -13.2165 -13.2127 -13.1964 -13.1935
   -13.1874 -13.1867 -13.1761 -13.1686  -5.5986  -5.2669  -4.6157  -4.1804
     0.5340   1.6552   2.1178   2.5389   3.2340   4.3279   4.5207   5.5001
     5.5045   5.7013   5.7419   6.3779   6.8149   7.2394   7.5443   7.5504
     9.0402   9.9488  10.5486  10.8362  11.1407  11.4811  11.8615  12.1084
    12.5273  12.9843

     occupation numbers 
     1.0000   1.0000   1.0000   1.0000   1.0000   1.0000   1.0000   1.0000
     1.0000   1.0000   1.0000   1.0000   1.0000   1.0000   1.0000   1.0000
     1.0000   1.0000   1.0000   1.0000   1.0000   1.0000   1.0000   1.0000
     1.0000   1.0000   1.0000   1.0000   1.0000   1.0000   1.0000   1.0000
     1.0000   1.0000   1.0000   1.0000   1.0000   1.0000   1.0000   1.0000
     0.0000   0.0000   0.0000   0.0000   0.0000   0.0000   0.0000   0.0000
     0.0000   0.0000

          k = 0.0000 0.3395 0.6403 ( 11188 PWs)   bands (ev):

   -13.2616 -13.2544 -13.2530 -13.2498 -13.2491 -13.2477 -13.2461 -13.2443
   -13.2352 -13.2290 -13.2263 -13.2251 -13.2165 -13.2130 -13.1963 -13.1924
   -13.1890 -13.1876 -13.1751 -13.1694  -5.4133  -5.0978  -4.6137  -4.2379
     0.2171   1.3785   1.5050   2.2331   3.4617   4.2673   4.4499   5.5504
     5.7725   5.9480   6.2876   6.3495   7.0726   7.2762   7.5906   7.7013
     9.3052   9.6080   9.8703   9.8718  11.0543  11.0658  11.5283  12.0703
    12.6322  12.7983

     occupation numbers 
     1.0000   1.0000   1.0000   1.0000   1.0000   1.0000   1.0000   1.0000
     1.0000   1.0000   1.0000   1.0000   1.0000   1.0000   1.0000   1.0000
     1.0000   1.0000   1.0000   1.0000   1.0000   1.0000   1.0000   1.0000
     1.0000   1.0000   1.0000   1.0000   1.0000   1.0000   1.0000   1.0000
     1.0000   1.0000   1.0000   1.0000   1.0000   1.0000   1.0000   1.0000
     0.0000   0.0000   0.0000   0.0000   0.0000   0.0000   0.0000   0.0000
     0.0000   0.0000

          k = 0.0000 0.3395 0.9605 ( 11195 PWs)   bands (ev):

   -13.2599 -13.2568 -13.2531 -13.2508 -13.2487 -13.2483 -13.2464 -13.2457
   -13.2333 -13.2300 -13.2221 -13.2205 -13.2170 -13.2141 -13.1952 -13.1911
   -13.1911 -13.1887 -13.1737 -13.1706  -5.1486  -4.8534  -4.6860  -4.3714
     0.0323   0.6569   1.3981   1.8170   3.8842   4.4967   4.6562   5.5446
     5.6620   5.7698   6.3456   6.6567   7.2828   7.2898   7.6420   7.6520
     9.2333   9.4885   9.5347   9.8942  10.6656  10.8051  11.1004  11.7991
    12.2171  12.5112

     occupation numbers 
     1.0000   1.0000   1.0000   1.0000   1.0000   1.0000   1.0000   1.0000
     1.0000   1.0000   1.0000   1.0000   1.0000   1.0000   1.0000   1.0000
     1.0000   1.0000   1.0000   1.0000   1.0000   1.0000   1.0000   1.0000
     1.0000   1.0000   1.0000   1.0000   1.0000   1.0000   1.0000   1.0000
     1.0000   1.0000   1.0000   1.0000   1.0000   1.0000   1.0000   1.0000
     0.0000   0.0000   0.0000   0.0000   0.0000   0.0000   0.0000   0.0000
     0.0000   0.0000

          k = 0.0000 0.3395-1.2807 ( 11200 PWs)   bands (ev):

   -13.2585 -13.2585 -13.2522 -13.2522 -13.2488 -13.2488 -13.2461 -13.2461
   -13.2315 -13.2315 -13.2187 -13.2187 -13.2166 -13.2166 -13.1933 -13.1933
   -13.1899 -13.1899 -13.1721 -13.1721  -4.8770  -4.8770  -4.5897  -4.5897
     0.1721   0.1721   1.4967   1.4967   4.3652   4.3652   5.1510   5.1510
     5.5776   5.5776   6.5006   6.5006   7.4171   7.4171   7.6354   7.6354
     9.2061   9.2061   9.6719   9.6719  10.9059  10.9059  11.2610  11.2610
    11.9640  11.9640

     occupation numbers 
     1.0000   1.0000   1.0000   1.0000   1.0000   1.0000   1.0000   1.0000
     1.0000   1.0000   1.0000   1.0000   1.0000   1.0000   1.0000   1.0000
     1.0000   1.0000   1.0000   1.0000   1.0000   1.0000   1.0000   1.0000
     1.0000   1.0000   1.0000   1.0000   1.0000   1.0000   1.0000   1.0000
     1.0000   1.0000   1.0000   1.0000   1.0000   1.0000   1.0000   1.0000
     0.0000   0.0000   0.0000   0.0000   0.0000   0.0000   0.0000   0.0000
     0.0000   0.0000

          k = 0.0000 0.6790 0.0000 ( 11182 PWs)   bands (ev):

   -13.2556 -13.2555 -13.2541 -13.2512 -13.2477 -13.2448 -13.2442 -13.2427
   -13.2378 -13.2322 -13.2294 -13.2248 -13.2147 -13.2125 -13.1968 -13.1920
   -13.1918 -13.1839 -13.1763 -13.1714  -5.4247  -5.1290  -4.5464  -4.2126
     0.4199   1.2444   1.7288   2.0625   3.4076   4.7907   5.1852   5.2475
     5.2639   5.5738   6.3277   6.4303   6.6181   7.2688   7.3916   7.8471
     9.0581   9.2945  10.3969  10.5657  10.5961  11.1920  11.2020  11.8951
    12.6250  12.7747

     occupation numbers 
     1.0000   1.0000   1.0000   1.0000   1.0000   1.0000   1.0000   1.0000
     1.0000   1.0000   1.0000   1.0000   1.0000   1.0000   1.0000   1.0000
     1.0000   1.0000   1.0000   1.0000   1.0000   1.0000   1.0000   1.0000
     1.0000   1.0000   1.0000   1.0000   1.0000   1.0000   1.0000   1.0000
     1.0000   1.0000   1.0000   1.0000   1.0000   1.0000   1.0000   1.0000
     0.0000   0.0000   0.0000   0.0000   0.0000   0.0000   0.0000   0.0000
     0.0000   0.0000

          k = 0.0000 0.6790 0.3202 ( 11203 PWs)   bands (ev):

   -13.2585 -13.2553 -13.2537 -13.2520 -13.2473 -13.2448 -13.2442 -13.2426
   -13.2371 -13.2322 -13.2281 -13.2236 -13.2154 -13.2118 -13.1965 -13.1921
   -13.1917 -13.1844 -13.1760 -13.1714  -5.3635  -5.0743  -4.5348  -4.2164
     0.3945   1.2995   1.6975   1.9552   3.4903   4.1166   4.4353   5.2958
     5.7943   5.9261   5.9952   6.3335   6.9704   7.3031   7.4207   7.6284
     9.3052   9.4118   9.7907   9.9368  11.0857  11.1100  11.7146  12.0508
    12.6726  12.8185

     occupation numbers 
     1.0000   1.0000   1.0000   1.0000   1.0000   1.0000   1.0000   1.0000
     1.0000   1.0000   1.0000   1.0000   1.0000   1.0000   1.0000   1.0000
     1.0000   1.0000   1.0000   1.0000   1.0000   1.0000   1.0000   1.0000
     1.0000   1.0000   1.0000   1.0000   1.0000   1.0000   1.0000   1.0000
     1.0000   1.0000   1.0000   1.0000   1.0000   1.0000   1.0000   1.0000
     0.0000   0.0000   0.0000   0.0000   0.0000   0.0000   0.0000   0.0000
     0.0000   0.0000

          k = 0.0000 0.6790 0.6403 ( 11190 PWs)   bands (ev):

   -13.2617 -13.2585 -13.2541 -13.2536 -13.2474 -13.2444 -13.2429 -13.2427
   -13.2356 -13.2322 -13.2247 -13.2205 -13.2161 -13.2113 -13.1958 -13.1925
   -13.1914 -13.1857 -13.1752 -13.1717  -5.1935  -4.9223  -4.5240  -4.2437
     0.3286   1.3833   1.4231   1.8483   3.6297   3.7298   3.9088   5.0001
     5.1898   6.0284   6.0374   6.5385   6.7366   7.1468   7.2603   7.4696
     9.0652   9.5830  10.2866  10.6307  10.8251  11.3077  11.5568  12.6038
    13.0030  13.0297

     occupation numbers 
     1.0000   1.0000   1.0000   1.0000   1.0000   1.0000   1.0000   1.0000
     1.0000   1.0000   1.0000   1.0000   1.0000   1.0000   1.0000   1.0000
     1.0000   1.0000   1.0000   1.0000   1.0000   1.0000   1.0000   1.0000
     1.0000   1.0000   1.0000   1.0000   1.0000   1.0000   1.0000   1.0000
     1.0000   1.0000   1.0000   1.0000   1.0000   1.0000   1.0000   1.0000
     0.0000   0.0000   0.0000   0.0000   0.0000   0.0000   0.0000   0.0000
     0.0000   0.0000

          k = 0.0000 0.6790 0.9605 ( 11172 PWs)   bands (ev):

   -13.2640 -13.2620 -13.2559 -13.2553 -13.2466 -13.2435 -13.2431 -13.2420
   -13.2340 -13.2324 -13.2210 -13.2168 -13.2166 -13.2120 -13.1947 -13.1930
   -13.1904 -13.1872 -13.1742 -13.1722  -4.9569  -4.7096  -4.5726  -4.3294
     0.3070   0.8751   1.5298   1.7569   3.5959   3.8633   4.0355   4.6909
     4.8858   5.5824   5.5964   6.2625   6.4213   6.9377   7.0743   7.4813
     8.9943  10.2515  10.4570  11.3373  11.4140  11.5873  11.8724  12.8199
    12.8744  13.1549

     occupation numbers 
     1.0000   1.0000   1.0000   1.0000   1.0000   1.0000   1.0000   1.0000
     1.0000   1.0000   1.0000   1.0000   1.0000   1.0000   1.0000   1.0000
     1.0000   1.0000   1.0000   1.0000   1.0000   1.0000   1.0000   1.0000
     1.0000   1.0000   1.0000   1.0000   1.0000   1.0000   1.0000   1.0000
     1.0000   1.0000   1.0000   1.0000   1.0000   1.0000   1.0000   1.0000
     0.0000   0.0000   0.0000   0.0000   0.0000   0.0000   0.0000   0.0000
     0.0000   0.0000

          k = 0.0000 0.6790-1.2807 ( 11186 PWs)   bands (ev):

   -13.2642 -13.2642 -13.2565 -13.2565 -13.2449 -13.2449 -13.2422 -13.2422
   -13.2329 -13.2329 -13.2181 -13.2181 -13.2138 -13.2138 -13.1937 -13.1937
   -13.1889 -13.1889 -13.1731 -13.1731  -4.7250  -4.7250  -4.4929  -4.4929
     0.4747   0.4747   1.6289   1.6289   3.9332   3.9332   4.1976   4.1976
     5.0404   5.0404   5.7292   5.7292   6.6116   6.6116   7.2060   7.2060
     9.6185   9.6185  11.0555  11.0555  12.0450  12.0450  12.5622  12.5622
    12.8536  12.8536

     occupation numbers 
     1.0000   1.0000   1.0000   1.0000   1.0000   1.0000   1.0000   1.0000
     1.0000   1.0000   1.0000   1.0000   1.0000   1.0000   1.0000   1.0000
     1.0000   1.0000   1.0000   1.0000   1.0000   1.0000   1.0000   1.0000
     1.0000   1.0000   1.0000   1.0000   1.0000   1.0000   1.0000   1.0000
     1.0000   1.0000   1.0000   1.0000   1.0000   1.0000   1.0000   1.0000
     0.0000   0.0000   0.0000   0.0000   0.0000   0.0000   0.0000   0.0000
     0.0000   0.0000

          k = 0.0000 1.0186 0.0000 ( 11216 PWs)   bands (ev):

   -13.2594 -13.2569 -13.2563 -13.2536 -13.2429 -13.2428 -13.2418 -13.2376
   -13.2345 -13.2333 -13.2285 -13.2191 -13.2177 -13.2086 -13.2007 -13.2005
   -13.1860 -13.1804 -13.1762 -13.1752  -5.0714  -4.8609  -4.5143  -4.3752
     0.2266   0.8957   0.9609   1.4891   3.8795   4.9585   5.3819   5.5620
     5.7000   5.8432   6.2705   6.5704   6.9861   7.2215   7.2710   7.6281
     8.8521   9.5662   9.5827   9.6623   9.9257  10.3483  10.5303  11.2639
    11.5973  11.9945

     occupation numbers 
     1.0000   1.0000   1.0000   1.0000   1.0000   1.0000   1.0000   1.0000
     1.0000   1.0000   1.0000   1.0000   1.0000   1.0000   1.0000   1.0000
     1.0000   1.0000   1.0000   1.0000   1.0000   1.0000   1.0000   1.0000
     1.0000   1.0000   1.0000   1.0000   1.0000   1.0000   1.0000   1.0000
     1.0000   1.0000   1.0000   1.0000   1.0000   1.0000   1.0000   1.0000
     0.0000   0.0000   0.0000   0.0000   0.0000   0.0000   0.0000   0.0000
     0.0000   0.0000

          k = 0.0000 1.0186 0.3202 ( 11211 PWs)   bands (ev):

   -13.2614 -13.2590 -13.2570 -13.2549 -13.2435 -13.2413 -13.2411 -13.2372
   -13.2336 -13.2331 -13.2276 -13.2191 -13.2171 -13.2089 -13.2003 -13.1999
   -13.1861 -13.1810 -13.1760 -13.1749  -5.0200  -4.8162  -4.4964  -4.3613
     0.2930   0.9654   1.0431   1.4816   3.9443   4.3140   4.6361   5.4176
     5.6568   5.6825   6.3303   6.4236   6.7057   7.1233   7.3359   7.4662
     9.1887   9.2008   9.4361   9.8012  10.8158  10.9204  11.1796  11.3972
    12.1988  12.6502

     occupation numbers 
     1.0000   1.0000   1.0000   1.0000   1.0000   1.0000   1.0000   1.0000
     1.0000   1.0000   1.0000   1.0000   1.0000   1.0000   1.0000   1.0000
     1.0000   1.0000   1.0000   1.0000   1.0000   1.0000   1.0000   1.0000
     1.0000   1.0000   1.0000   1.0000   1.0000   1.0000   1.0000   1.0000
     1.0000   1.0000   1.0000   1.0000   1.0000   1.0000   1.0000   1.0000
     0.0000   0.0000   0.0000   0.0000   0.0000   0.0000   0.0000   0.0000
     0.0000   0.0000

          k = 0.0000 1.0186 0.6403 ( 11194 PWs)   bands (ev):

   -13.2657 -13.2635 -13.2595 -13.2582 -13.2431 -13.2404 -13.2387 -13.2365
   -13.2325 -13.2322 -13.2250 -13.2188 -13.2154 -13.2096 -13.1992 -13.1986
   -13.1860 -13.1821 -13.1754 -13.1745  -4.8811  -4.6963  -4.4624  -4.3357
     0.4691   1.1274   1.2669   1.4462   3.5170   3.9368   4.0918   4.6049
     4.9551   5.6180   5.6647   5.9854   6.3946   6.5227   7.0774   7.4367
     8.8907  10.2460  10.2808  10.9802  11.3399  11.6794  12.2695  12.4577
    12.6573  12.7655

     occupation numbers 
     1.0000   1.0000   1.0000   1.0000   1.0000   1.0000   1.0000   1.0000
     1.0000   1.0000   1.0000   1.0000   1.0000   1.0000   1.0000   1.0000
     1.0000   1.0000   1.0000   1.0000   1.0000   1.0000   1.0000   1.0000
     1.0000   1.0000   1.0000   1.0000   1.0000   1.0000   1.0000   1.0000
     1.0000   1.0000   1.0000   1.0000   1.0000   1.0000   1.0000   1.0000
     0.0000   0.0000   0.0000   0.0000   0.0000   0.0000   0.0000   0.0000
     0.0000   0.0000

          k = 0.0000 1.0186 0.9605 ( 11190 PWs)   bands (ev):

   -13.2693 -13.2680 -13.2621 -13.2615 -13.2422 -13.2402 -13.2369 -13.2360
   -13.2317 -13.2313 -13.2221 -13.2187 -13.2131 -13.2103 -13.1980 -13.1976
   -13.1854 -13.1833 -13.1748 -13.1742  -4.6998  -4.5418  -4.4621  -4.3392
     0.6918   1.1184   1.5227   1.5346   3.1263   3.5833   3.8180   4.0850
     4.6696   5.0167   5.0675   5.6579   5.9374   6.1538   6.9223   6.9559
     9.5040  10.9617  11.2446  11.3533  12.3097  12.3728  12.6227  12.9603
    13.0946  13.2594

     occupation numbers 
     1.0000   1.0000   1.0000   1.0000   1.0000   1.0000   1.0000   1.0000
     1.0000   1.0000   1.0000   1.0000   1.0000   1.0000   1.0000   1.0000
     1.0000   1.0000   1.0000   1.0000   1.0000   1.0000   1.0000   1.0000
     1.0000   1.0000   1.0000   1.0000   1.0000   1.0000   1.0000   1.0000
     1.0000   1.0000   1.0000   1.0000   1.0000   1.0000   1.0000   1.0000
     0.0000   0.0000   0.0000   0.0000   0.0000   0.0000   0.0000   0.0000
     0.0000   0.0000

          k = 0.0000 1.0186-1.2807 ( 11198 PWs)   bands (ev):

   -13.2703 -13.2703 -13.2631 -13.2631 -13.2411 -13.2411 -13.2360 -13.2360
   -13.2311 -13.2311 -13.2198 -13.2198 -13.2113 -13.2113 -13.1974 -13.1974
   -13.1844 -13.1844 -13.1743 -13.1743  -4.5419  -4.5419  -4.4083  -4.4083
     0.9131   0.9131   1.6413   1.6413   3.2553   3.2553   3.7435   3.7435
     4.5806   4.5806   5.3352   5.3352   5.8412   5.8412   6.8294   6.8294
    10.2669  10.2669  11.6647  11.6647  12.7732  12.7732  13.0097  13.0097
    13.2121  13.2121

     occupation numbers 
     1.0000   1.0000   1.0000   1.0000   1.0000   1.0000   1.0000   1.0000
     1.0000   1.0000   1.0000   1.0000   1.0000   1.0000   1.0000   1.0000
     1.0000   1.0000   1.0000   1.0000   1.0000   1.0000   1.0000   1.0000
     1.0000   1.0000   1.0000   1.0000   1.0000   1.0000   1.0000   1.0000
     1.0000   1.0000   1.0000   1.0000   1.0000   1.0000   1.0000   1.0000
     0.0000   0.0000   0.0000   0.0000   0.0000   0.0000   0.0000   0.0000
     0.0000   0.0000

          k = 0.0000-1.3581 0.0000 ( 11244 PWs)   bands (ev):

   -13.2600 -13.2600 -13.2561 -13.2561 -13.2410 -13.2410 -13.2393 -13.2393
   -13.2299 -13.2299 -13.2263 -13.2263 -13.2094 -13.2094 -13.2047 -13.2047
   -13.1802 -13.1802 -13.1775 -13.1775  -4.6851  -4.6851  -4.6217  -4.6217
     0.3593   0.3593   1.0559   1.0559   4.4830   4.4830   5.8484   5.8484
     5.8636   5.8636   6.3754   6.3754   7.1065   7.1065   7.3066   7.3066
     9.1104   9.1104   9.5451   9.5451   9.8205   9.8205  10.6269  10.6269
    11.3365  11.3365

     occupation numbers 
     1.0000   1.0000   1.0000   1.0000   1.0000   1.0000   1.0000   1.0000
     1.0000   1.0000   1.0000   1.0000   1.0000   1.0000   1.0000   1.0000
     1.0000   1.0000   1.0000   1.0000   1.0000   1.0000   1.0000   1.0000
     1.0000   1.0000   1.0000   1.0000   1.0000   1.0000   1.0000   1.0000
     1.0000   1.0000   1.0000   1.0000   1.0000   1.0000   1.0000   1.0000
     0.0000   0.0000   0.0000   0.0000   0.0000   0.0000   0.0000   0.0000
     0.0000   0.0000

          k = 0.0000-1.3581 0.3202 ( 11196 PWs)   bands (ev):

   -13.2621 -13.2621 -13.2575 -13.2575 -13.2410 -13.2410 -13.2381 -13.2381
   -13.2297 -13.2297 -13.2255 -13.2255 -13.2101 -13.2101 -13.2035 -13.2035
   -13.1807 -13.1807 -13.1770 -13.1770  -4.6503  -4.6503  -4.5911  -4.5911
     0.4519   0.4519   1.1135   1.1135   4.4266   4.4266   4.9868   4.9868
     5.5628   5.5628   6.4636   6.4636   6.7103   6.7103   7.4338   7.4338
     8.9527   8.9527   9.7732   9.7732  10.6424  10.6424  11.3867  11.3867
    11.8557  11.8557

     occupation numbers 
     1.0000   1.0000   1.0000   1.0000   1.0000   1.0000   1.0000   1.0000
     1.0000   1.0000   1.0000   1.0000   1.0000   1.0000   1.0000   1.0000
     1.0000   1.0000   1.0000   1.0000   1.0000   1.0000   1.0000   1.0000
     1.0000   1.0000   1.0000   1.0000   1.0000   1.0000   1.0000   1.0000
     1.0000   1.0000   1.0000   1.0000   1.0000   1.0000   1.0000   1.0000
     0.0000   0.0000   0.0000   0.0000   0.0000   0.0000   0.0000   0.0000
     0.0000   0.0000

          k = 0.0000-1.3581 0.6403 ( 11164 PWs)   bands (ev):

   -13.2667 -13.2667 -13.2609 -13.2609 -13.2406 -13.2406 -13.2360 -13.2360
   -13.2291 -13.2291 -13.2239 -13.2239 -13.2106 -13.2106 -13.2013 -13.2013
   -13.1814 -13.1814 -13.1762 -13.1762  -4.5625  -4.5625  -4.5157  -4.5157
     0.7133   0.7133   1.2582   1.2582   3.9048   3.9048   4.2931   4.2931
     5.0677   5.0677   5.7324   5.7324   6.1380   6.1380   7.1990   7.1990
     9.4524   9.4524  11.0078  11.0078  11.9094  11.9094  12.2322  12.2322
    12.6160  12.6160

     occupation numbers 
     1.0000   1.0000   1.0000   1.0000   1.0000   1.0000   1.0000   1.0000
     1.0000   1.0000   1.0000   1.0000   1.0000   1.0000   1.0000   1.0000
     1.0000   1.0000   1.0000   1.0000   1.0000   1.0000   1.0000   1.0000
     1.0000   1.0000   1.0000   1.0000   1.0000   1.0000   1.0000   1.0000
     1.0000   1.0000   1.0000   1.0000   1.0000   1.0000   1.0000   1.0000
     0.0000   0.0000   0.0000   0.0000   0.0000   0.0000   0.0000   0.0000
     0.0000   0.0000

          k = 0.0000-1.3581 0.9605 ( 11160 PWs)   bands (ev):

   -13.2711 -13.2711 -13.2642 -13.2642 -13.2403 -13.2403 -13.2343 -13.2343
   -13.2283 -13.2283 -13.2227 -13.2227 -13.2103 -13.2103 -13.1997 -13.1997
   -13.1818 -13.1818 -13.1756 -13.1756  -4.4670  -4.4670  -4.4398  -4.4398
     1.0702   1.0702   1.4023   1.4023   3.2698   3.2698   3.8268   3.8268
     4.5571   4.5571   5.3421   5.3421   5.7134   5.7134   6.8217   6.8217
    10.2921  10.2921  11.5280  11.5280  12.6424  12.6424  12.8360  12.8360
    13.1698  13.1698

     occupation numbers 
     1.0000   1.0000   1.0000   1.0000   1.0000   1.0000   1.0000   1.0000
     1.0000   1.0000   1.0000   1.0000   1.0000   1.0000   1.0000   1.0000
     1.0000   1.0000   1.0000   1.0000   1.0000   1.0000   1.0000   1.0000
     1.0000   1.0000   1.0000   1.0000   1.0000   1.0000   1.0000   1.0000
     1.0000   1.0000   1.0000   1.0000   1.0000   1.0000   1.0000   1.0000
     0.0000   0.0000   0.0000   0.0000   0.0000   0.0000   0.0000   0.0000
     0.0000   0.0000

          k = 0.0000-1.3581-1.2807 ( 11168 PWs)   bands (ev):

   -13.2728 -13.2728 -13.2656 -13.2656 -13.2402 -13.2402 -13.2337 -13.2337
   -13.2280 -13.2280 -13.2223 -13.2223 -13.2100 -13.2100 -13.1990 -13.1990
   -13.1818 -13.1818 -13.1754 -13.1754  -4.4214  -4.4214  -4.4116  -4.4116
     1.2902   1.2902   1.4403   1.4403   3.0374   3.0374   3.5528   3.5528
     4.4676   4.4676   4.9488   4.9488   5.8001   5.8001   6.6412   6.6412
    10.8669  10.8669  11.1740  11.1740  12.8442  12.8442  12.9767  12.9767
    13.7123  13.7123

     occupation numbers 
     1.0000   1.0000   1.0000   1.0000   1.0000   1.0000   1.0000   1.0000
     1.0000   1.0000   1.0000   1.0000   1.0000   1.0000   1.0000   1.0000
     1.0000   1.0000   1.0000   1.0000   1.0000   1.0000   1.0000   1.0000
     1.0000   1.0000   1.0000   1.0000   1.0000   1.0000   1.0000   1.0000
     1.0000   1.0000   1.0000   1.0000   1.0000   1.0000   1.0000   1.0000
     0.0000   0.0000   0.0000   0.0000   0.0000   0.0000   0.0000   0.0000
     0.0000   0.0000

          k = 0.3333 0.0000 0.0000 ( 11199 PWs)   bands (ev):

   -13.2645 -13.2584 -13.2527 -13.2510 -13.2494 -13.2476 -13.2413 -13.2394
   -13.2333 -13.2332 -13.2330 -13.2287 -13.2172 -13.2137 -13.1966 -13.1942
   -13.1870 -13.1853 -13.1737 -13.1691  -5.6838  -5.5183  -4.5052  -4.2648
     0.9614   1.4154   2.9566   3.0516   3.5847   4.3859   4.7497   4.9334
     4.9845   5.3933   6.0548   6.1287   6.1486   6.3926   7.4740   7.5628
    10.0730  10.7130  10.8032  11.2448  11.5920  11.7135  12.0115  12.3244
    12.9919  13.0549

     occupation numbers 
     1.0000   1.0000   1.0000   1.0000   1.0000   1.0000   1.0000   1.0000
     1.0000   1.0000   1.0000   1.0000   1.0000   1.0000   1.0000   1.0000
     1.0000   1.0000   1.0000   1.0000   1.0000   1.0000   1.0000   1.0000
     1.0000   1.0000   1.0000   1.0000   1.0000   1.0000   1.0000   1.0000
     1.0000   1.0000   1.0000   1.0000   1.0000   1.0000   1.0000   1.0000
     0.0000   0.0000   0.0000   0.0000   0.0000   0.0000   0.0000   0.0000
     0.0000   0.0000

          k = 0.3333 0.0000 0.3202 ( 11178 PWs)   bands (ev):

   -13.2637 -13.2580 -13.2521 -13.2504 -13.2502 -13.2484 -13.2421 -13.2402
   -13.2327 -13.2320 -13.2312 -13.2286 -13.2170 -13.2140 -13.1966 -13.1940
   -13.1875 -13.1857 -13.1736 -13.1693  -5.6179  -5.4555  -4.5019  -4.2750
     0.7492   1.2344   2.5484   2.7666   3.6869   4.5701   4.8507   5.0809
     5.1477   5.5638   6.1140   6.2611   6.4353   6.6094   7.3668   7.5517
    10.0273  10.5412  10.9476  11.1490  11.1854  11.3813  11.5901  12.1840
    12.8259  12.9466

     occupation numbers 
     1.0000   1.0000   1.0000   1.0000   1.0000   1.0000   1.0000   1.0000
     1.0000   1.0000   1.0000   1.0000   1.0000   1.0000   1.0000   1.0000
     1.0000   1.0000   1.0000   1.0000   1.0000   1.0000   1.0000   1.0000
     1.0000   1.0000   1.0000   1.0000   1.0000   1.0000   1.0000   1.0000
     1.0000   1.0000   1.0000   1.0000   1.0000   1.0000   1.0000   1.0000
     0.0000   0.0000   0.0000   0.0000   0.0000   0.0000   0.0000   0.0000
     0.0000   0.0000

          k = 0.3333 0.0000 0.6403 ( 11208 PWs)   bands (ev):

   -13.2617 -13.2569 -13.2518 -13.2508 -13.2504 -13.2492 -13.2439 -13.2421
   -13.2316 -13.2284 -13.2282 -13.2271 -13.2168 -13.2148 -13.1963 -13.1936
   -13.1886 -13.1868 -13.1731 -13.1698  -5.4325  -5.2793  -4.5167  -4.3246
     0.3449   0.8278   1.8542   2.1865   3.9246   4.8990   5.1389   5.3543
     5.5859   5.8969   6.2461   6.5151   6.7718   7.0571   7.3342   7.6197
     9.7215  10.1140  10.3334  10.5290  10.7734  10.8051  11.2571  12.0404
    12.1236  12.5334

     occupation numbers 
     1.0000   1.0000   1.0000   1.0000   1.0000   1.0000   1.0000   1.0000
     1.0000   1.0000   1.0000   1.0000   1.0000   1.0000   1.0000   1.0000
     1.0000   1.0000   1.0000   1.0000   1.0000   1.0000   1.0000   1.0000
     1.0000   1.0000   1.0000   1.0000   1.0000   1.0000   1.0000   1.0000
     1.0000   1.0000   1.0000   1.0000   1.0000   1.0000   1.0000   1.0000
     0.0000   0.0000   0.0000   0.0000   0.0000   0.0000   0.0000   0.0000
     0.0000   0.0000

          k = 0.3333 0.0000 0.9605 ( 11192 PWs)   bands (ev):

   -13.2591 -13.2562 -13.2533 -13.2525 -13.2499 -13.2487 -13.2453 -13.2442
   -13.2303 -13.2286 -13.2233 -13.2224 -13.2172 -13.2163 -13.1956 -13.1935
   -13.1894 -13.1880 -13.1724 -13.1706  -5.1691  -5.0359  -4.5983  -4.4514
     0.0848   0.4164   1.3622   1.6219   4.3340   5.2099   5.5584   5.6119
     5.7409   6.2045   6.3042   6.4918   7.0317   7.1954   7.8025   7.9726
     9.1592   9.5160   9.7535  10.0293  10.0847  10.4846  10.8681  11.2983
    11.6471  11.7677

     occupation numbers 
     1.0000   1.0000   1.0000   1.0000   1.0000   1.0000   1.0000   1.0000
     1.0000   1.0000   1.0000   1.0000   1.0000   1.0000   1.0000   1.0000
     1.0000   1.0000   1.0000   1.0000   1.0000   1.0000   1.0000   1.0000
     1.0000   1.0000   1.0000   1.0000   1.0000   1.0000   1.0000   1.0000
     1.0000   1.0000   1.0000   1.0000   1.0000   1.0000   1.0000   1.0000
     0.0000   0.0000   0.0000   0.0000   0.0000   0.0000   0.0000   0.0000
     0.0000   0.0000

          k = 0.3333 0.0000-1.2807 ( 11192 PWs)   bands (ev):

   -13.2569 -13.2569 -13.2537 -13.2537 -13.2491 -13.2491 -13.2454 -13.2454
   -13.2293 -13.2293 -13.2193 -13.2193 -13.2188 -13.2188 -13.1943 -13.1943
   -13.1891 -13.1891 -13.1715 -13.1715  -4.9326  -4.9326  -4.6335  -4.6335
     0.1243   0.1243   1.2939   1.2939   4.8621   4.8621   5.9212   5.9212
     5.9370   5.9370   6.2898   6.2898   7.4882   7.4882   7.8282   7.8282
     9.2569   9.2569   9.6989   9.6989   9.8294   9.8294  11.1462  11.1462
    11.2303  11.2303

     occupation numbers 
     1.0000   1.0000   1.0000   1.0000   1.0000   1.0000   1.0000   1.0000
     1.0000   1.0000   1.0000   1.0000   1.0000   1.0000   1.0000   1.0000
     1.0000   1.0000   1.0000   1.0000   1.0000   1.0000   1.0000   1.0000
     1.0000   1.0000   1.0000   1.0000   1.0000   1.0000   1.0000   1.0000
     1.0000   1.0000   1.0000   1.0000   1.0000   1.0000   1.0000   1.0000
     0.0000   0.0000   0.0000   0.0000   0.0000   0.0000   0.0000   0.0000
     0.0000   0.0000

          k = 0.3333 0.3395 0.0000 ( 11223 PWs)   bands (ev):

   -13.2613 -13.2561 -13.2508 -13.2508 -13.2494 -13.2493 -13.2434 -13.2412
   -13.2352 -13.2318 -13.2302 -13.2299 -13.2157 -13.2137 -13.1952 -13.1941
   -13.1870 -13.1867 -13.1742 -13.1702  -5.6017  -5.4420  -4.4797  -4.2593
     0.8382   1.2682   2.6453   2.6587   3.6466   4.4774   4.6991   4.9824
     5.2110   5.5048   6.0516   6.1854   6.4021   6.4661   7.5226   7.5599
    10.1506  10.5903  10.9287  11.0242  11.2597  11.4532  11.5297  12.1897
    12.8251  13.1024

     occupation numbers 
     1.0000   1.0000   1.0000   1.0000   1.0000   1.0000   1.0000   1.0000
     1.0000   1.0000   1.0000   1.0000   1.0000   1.0000   1.0000   1.0000
     1.0000   1.0000   1.0000   1.0000   1.0000   1.0000   1.0000   1.0000
     1.0000   1.0000   1.0000   1.0000   1.0000   1.0000   1.0000   1.0000
     1.0000   1.0000   1.0000   1.0000   1.0000   1.0000   1.0000   1.0000
     0.0000   0.0000   0.0000   0.0000   0.0000   0.0000   0.0000   0.0000
     0.0000   0.0000

          k = 0.3333 0.3395 0.3202 ( 11194 PWs)   bands (ev):

   -13.2609 -13.2559 -13.2517 -13.2502 -13.2500 -13.2488 -13.2441 -13.2421
   -13.2347 -13.2310 -13.2290 -13.2288 -13.2158 -13.2138 -13.1953 -13.1938
   -13.1875 -13.1871 -13.1740 -13.1703  -5.5372  -5.3806  -4.4757  -4.2673
     0.6947   1.1606   2.3589   2.5018   3.7357   4.3551   4.6039   4.9381
     5.4541   5.8136   5.8911   6.0530   6.7981   7.0201   7.4312   7.5787
     9.9540  10.1125  10.5207  10.9574  11.1361  11.3801  11.7753  12.1906
    12.4156  12.7047

     occupation numbers 
     1.0000   1.0000   1.0000   1.0000   1.0000   1.0000   1.0000   1.0000
     1.0000   1.0000   1.0000   1.0000   1.0000   1.0000   1.0000   1.0000
     1.0000   1.0000   1.0000   1.0000   1.0000   1.0000   1.0000   1.0000
     1.0000   1.0000   1.0000   1.0000   1.0000   1.0000   1.0000   1.0000
     1.0000   1.0000   1.0000   1.0000   1.0000   1.0000   1.0000   1.0000
     0.0000   0.0000   0.0000   0.0000   0.0000   0.0000   0.0000   0.0000
     0.0000   0.0000

          k = 0.3333 0.3395 0.6403 ( 11189 PWs)   bands (ev):

   -13.2597 -13.2555 -13.2537 -13.2517 -13.2486 -13.2477 -13.2455 -13.2441
   -13.2335 -13.2305 -13.2258 -13.2252 -13.2159 -13.2142 -13.1950 -13.1931
   -13.1889 -13.1882 -13.1734 -13.1706  -5.3563  -5.2092  -4.4870  -4.3098
     0.3902   0.8648   1.8235   2.0992   3.9577   4.3294   4.5781   5.2597
     5.4035   5.7515   6.3101   6.4514   7.1556   7.2431   7.4163   7.5903
     9.5950   9.6827  10.1411  10.4805  10.7803  11.2049  11.6106  11.7233
    12.4017  12.5420

     occupation numbers 
     1.0000   1.0000   1.0000   1.0000   1.0000   1.0000   1.0000   1.0000
     1.0000   1.0000   1.0000   1.0000   1.0000   1.0000   1.0000   1.0000
     1.0000   1.0000   1.0000   1.0000   1.0000   1.0000   1.0000   1.0000
     1.0000   1.0000   1.0000   1.0000   1.0000   1.0000   1.0000   1.0000
     1.0000   1.0000   1.0000   1.0000   1.0000   1.0000   1.0000   1.0000
     0.0000   0.0000   0.0000   0.0000   0.0000   0.0000   0.0000   0.0000
     0.0000   0.0000

          k = 0.3333 0.3395 0.9605 ( 11178 PWs)   bands (ev):

   -13.2586 -13.2562 -13.2549 -13.2533 -13.2477 -13.2471 -13.2465 -13.2456
   -13.2321 -13.2305 -13.2217 -13.2209 -13.2164 -13.2150 -13.1942 -13.1923
   -13.1905 -13.1895 -13.1726 -13.1711  -5.1013  -4.9742  -4.5608  -4.4240
     0.1796   0.5031   1.4204   1.6495   4.2956   4.5890   4.8801   5.2980
     5.5518   5.7440   6.1145   6.5538   7.1162   7.2866   7.4842   7.5903
     9.4306   9.7739   9.8915  10.1513  10.6046  10.9837  11.0919  11.3458
    12.3066  12.4338

     occupation numbers 
     1.0000   1.0000   1.0000   1.0000   1.0000   1.0000   1.0000   1.0000
     1.0000   1.0000   1.0000   1.0000   1.0000   1.0000   1.0000   1.0000
     1.0000   1.0000   1.0000   1.0000   1.0000   1.0000   1.0000   1.0000
     1.0000   1.0000   1.0000   1.0000   1.0000   1.0000   1.0000   1.0000
     1.0000   1.0000   1.0000   1.0000   1.0000   1.0000   1.0000   1.0000
     0.0000   0.0000   0.0000   0.0000   0.0000   0.0000   0.0000   0.0000
     0.0000   0.0000

          k = 0.3333 0.3395-1.2807 ( 11186 PWs)   bands (ev):

   -13.2577 -13.2577 -13.2544 -13.2544 -13.2475 -13.2475 -13.2461 -13.2461
   -13.2311 -13.2311 -13.2188 -13.2188 -13.2168 -13.2168 -13.1928 -13.1928
   -13.1906 -13.1906 -13.1718 -13.1718  -4.8749  -4.8749  -4.5927  -4.5927
     0.2263   0.2263   1.3683   1.3683   4.6998   4.6998   5.1586   5.1586
     5.5480   5.5480   6.2260   6.2260   7.2132   7.2132   7.5425   7.5425
     9.5955   9.5955   9.9517   9.9517  10.6566  10.6566  11.2776  11.2776
    12.0571  12.0571

     occupation numbers 
     1.0000   1.0000   1.0000   1.0000   1.0000   1.0000   1.0000   1.0000
     1.0000   1.0000   1.0000   1.0000   1.0000   1.0000   1.0000   1.0000
     1.0000   1.0000   1.0000   1.0000   1.0000   1.0000   1.0000   1.0000
     1.0000   1.0000   1.0000   1.0000   1.0000   1.0000   1.0000   1.0000
     1.0000   1.0000   1.0000   1.0000   1.0000   1.0000   1.0000   1.0000
     0.0000   0.0000   0.0000   0.0000   0.0000   0.0000   0.0000   0.0000
     0.0000   0.0000

          k = 0.3333 0.6790 0.0000 ( 11197 PWs)   bands (ev):

   -13.2563 -13.2561 -13.2522 -13.2508 -13.2466 -13.2456 -13.2446 -13.2443
   -13.2362 -13.2334 -13.2282 -13.2260 -13.2141 -13.2131 -13.1961 -13.1944
   -13.1885 -13.1853 -13.1749 -13.1725  -5.3689  -5.2285  -4.4364  -4.2769
     0.5577   0.9373   1.8210   2.0061   3.8852   4.7500   4.8895   5.1271
     5.5234   5.7666   6.1780   6.3058   6.4680   6.7990   7.5027   7.7017
     9.3638  10.0134  10.3873  10.5539  10.7482  11.2861  11.3455  11.9450
    12.3033  12.3545

     occupation numbers 
     1.0000   1.0000   1.0000   1.0000   1.0000   1.0000   1.0000   1.0000
     1.0000   1.0000   1.0000   1.0000   1.0000   1.0000   1.0000   1.0000
     1.0000   1.0000   1.0000   1.0000   1.0000   1.0000   1.0000   1.0000
     1.0000   1.0000   1.0000   1.0000   1.0000   1.0000   1.0000   1.0000
     1.0000   1.0000   1.0000   1.0000   1.0000   1.0000   1.0000   1.0000
     0.0000   0.0000   0.0000   0.0000   0.0000   0.0000   0.0000   0.0000
     0.0000   0.0000

          k = 0.3333 0.6790 0.3202 ( 11197 PWs)   bands (ev):

   -13.2581 -13.2565 -13.2531 -13.2514 -13.2467 -13.2453 -13.2446 -13.2435
   -13.2356 -13.2332 -13.2269 -13.2248 -13.2144 -13.2127 -13.1960 -13.1944
   -13.1887 -13.1857 -13.1747 -13.1725  -5.3092  -5.1721  -4.4289  -4.2772
     0.5450   0.9549   1.7910   1.9245   3.9099   4.1941   4.5508   5.0454
     5.4615   5.7889   6.1732   6.2896   6.9115   7.0275   7.4734   7.5763
     9.4181   9.6074  10.2542  10.5200  10.8761  11.1733  11.5478  11.8699
    12.2310  12.6093

     occupation numbers 
     1.0000   1.0000   1.0000   1.0000   1.0000   1.0000   1.0000   1.0000
     1.0000   1.0000   1.0000   1.0000   1.0000   1.0000   1.0000   1.0000
     1.0000   1.0000   1.0000   1.0000   1.0000   1.0000   1.0000   1.0000
     1.0000   1.0000   1.0000   1.0000   1.0000   1.0000   1.0000   1.0000
     1.0000   1.0000   1.0000   1.0000   1.0000   1.0000   1.0000   1.0000
     0.0000   0.0000   0.0000   0.0000   0.0000   0.0000   0.0000   0.0000
     0.0000   0.0000

          k = 0.3333 0.6790 0.6403 ( 11192 PWs)   bands (ev):

   -13.2609 -13.2589 -13.2553 -13.2536 -13.2463 -13.2448 -13.2430 -13.2426
   -13.2345 -13.2328 -13.2239 -13.2220 -13.2145 -13.2124 -13.1957 -13.1945
   -13.1890 -13.1867 -13.1741 -13.1724  -5.1437  -5.0167  -4.4270  -4.2955
     0.4933   0.9298   1.6495   1.7870   3.7195   3.8358   4.3862   4.8512
     4.9665   5.5757   6.3137   6.5197   6.6037   6.6838   7.4464   7.6017
     9.5980   9.9753  10.1424  10.5113  10.8656  11.2937  11.5959  12.1440
    12.5389  12.9362

     occupation numbers 
     1.0000   1.0000   1.0000   1.0000   1.0000   1.0000   1.0000   1.0000
     1.0000   1.0000   1.0000   1.0000   1.0000   1.0000   1.0000   1.0000
     1.0000   1.0000   1.0000   1.0000   1.0000   1.0000   1.0000   1.0000
     1.0000   1.0000   1.0000   1.0000   1.0000   1.0000   1.0000   1.0000
     1.0000   1.0000   1.0000   1.0000   1.0000   1.0000   1.0000   1.0000
     0.0000   0.0000   0.0000   0.0000   0.0000   0.0000   0.0000   0.0000
     0.0000   0.0000

          k = 0.3333 0.6790 0.9605 ( 11166 PWs)   bands (ev):

   -13.2631 -13.2619 -13.2573 -13.2563 -13.2453 -13.2441 -13.2420 -13.2418
   -13.2334 -13.2326 -13.2208 -13.2194 -13.2139 -13.2124 -13.1952 -13.1945
   -13.1891 -13.1877 -13.1734 -13.1724  -4.9166  -4.8094  -4.4741  -4.3689
     0.4427   0.7355   1.5282   1.6564   3.6724   3.8181   4.4691   4.6074
     4.8105   5.4528   5.8617   6.1215   6.3298   6.4911   7.1290   7.3849
     9.8228  10.4110  10.6525  10.8626  11.3346  11.5419  11.7602  12.2101
    12.6665  12.9717

     occupation numbers 
     1.0000   1.0000   1.0000   1.0000   1.0000   1.0000   1.0000   1.0000
     1.0000   1.0000   1.0000   1.0000   1.0000   1.0000   1.0000   1.0000
     1.0000   1.0000   1.0000   1.0000   1.0000   1.0000   1.0000   1.0000
     1.0000   1.0000   1.0000   1.0000   1.0000   1.0000   1.0000   1.0000
     1.0000   1.0000   1.0000   1.0000   1.0000   1.0000   1.0000   1.0000
     0.0000   0.0000   0.0000   0.0000   0.0000   0.0000   0.0000   0.0000
     0.0000   0.0000

          k = 0.3333 0.6790-1.2807 ( 11160 PWs)   bands (ev):

   -13.2636 -13.2636 -13.2578 -13.2578 -13.2443 -13.2443 -13.2417 -13.2417
   -13.2328 -13.2328 -13.2190 -13.2190 -13.2129 -13.2129 -13.1948 -13.1948
   -13.1885 -13.1885 -13.1728 -13.1728  -4.7232  -4.7232  -4.4952  -4.4952
     0.5158   0.5158   1.5398   1.5398   3.9837   3.9837   4.2004   4.2004
     5.1939   5.1939   5.8278   5.8278   6.3218   6.3218   7.0441   7.0441
    10.2097  10.2097  11.2038  11.2038  11.4161  11.4161  12.1442  12.1442
    12.9370  12.9370

     occupation numbers 
     1.0000   1.0000   1.0000   1.0000   1.0000   1.0000   1.0000   1.0000
     1.0000   1.0000   1.0000   1.0000   1.0000   1.0000   1.0000   1.0000
     1.0000   1.0000   1.0000   1.0000   1.0000   1.0000   1.0000   1.0000
     1.0000   1.0000   1.0000   1.0000   1.0000   1.0000   1.0000   1.0000
     1.0000   1.0000   1.0000   1.0000   1.0000   1.0000   1.0000   1.0000
     0.0000   0.0000   0.0000   0.0000   0.0000   0.0000   0.0000   0.0000
     0.0000   0.0000

          k = 0.3333 1.0186 0.0000 ( 11191 PWs)   bands (ev):

   -13.2590 -13.2576 -13.2558 -13.2541 -13.2426 -13.2423 -13.2417 -13.2393
   -13.2336 -13.2331 -13.2269 -13.2234 -13.2135 -13.2100 -13.2008 -13.2008
   -13.1845 -13.1817 -13.1759 -13.1755  -5.0300  -4.9292  -4.4636  -4.3985
     0.3665   0.7197   1.0301   1.3261   4.3324   5.1990   5.2016   5.4583
     5.5960   6.0851   6.2505   6.2738   6.6861   6.7338   7.4794   7.6188
     9.0134   9.2585   9.9388   9.9862  10.5138  10.5383  10.6929  11.0714
    11.3444  12.0734

     occupation numbers 
     1.0000   1.0000   1.0000   1.0000   1.0000   1.0000   1.0000   1.0000
     1.0000   1.0000   1.0000   1.0000   1.0000   1.0000   1.0000   1.0000
     1.0000   1.0000   1.0000   1.0000   1.0000   1.0000   1.0000   1.0000
     1.0000   1.0000   1.0000   1.0000   1.0000   1.0000   1.0000   1.0000
     1.0000   1.0000   1.0000   1.0000   1.0000   1.0000   1.0000   1.0000
     0.0000   0.0000   0.0000   0.0000   0.0000   0.0000   0.0000   0.0000
     0.0000   0.0000

          k = 0.3333 1.0186 0.3202 ( 11195 PWs)   bands (ev):

   -13.2608 -13.2590 -13.2574 -13.2556 -13.2425 -13.2414 -13.2410 -13.2390
   -13.2329 -13.2327 -13.2262 -13.2229 -13.2131 -13.2099 -13.2008 -13.2003
   -13.1845 -13.1820 -13.1758 -13.1753  -4.9801  -4.8826  -4.4470  -4.3838
     0.4364   0.7937   1.0888   1.3443   4.2666   4.4028   4.8424   5.2183
     5.5509   5.7470   6.0562   6.4139   6.7035   6.8438   7.2022   7.3728
     9.4638   9.5401   9.7796   9.9316  10.8265  10.8489  11.2274  11.5107
    11.8852  12.4352

     occupation numbers 
     1.0000   1.0000   1.0000   1.0000   1.0000   1.0000   1.0000   1.0000
     1.0000   1.0000   1.0000   1.0000   1.0000   1.0000   1.0000   1.0000
     1.0000   1.0000   1.0000   1.0000   1.0000   1.0000   1.0000   1.0000
     1.0000   1.0000   1.0000   1.0000   1.0000   1.0000   1.0000   1.0000
     1.0000   1.0000   1.0000   1.0000   1.0000   1.0000   1.0000   1.0000
     0.0000   0.0000   0.0000   0.0000   0.0000   0.0000   0.0000   0.0000
     0.0000   0.0000

          k = 0.3333 1.0186 0.6403 ( 11185 PWs)   bands (ev):

   -13.2646 -13.2628 -13.2607 -13.2591 -13.2418 -13.2399 -13.2395 -13.2383
   -13.2318 -13.2314 -13.2243 -13.2219 -13.2118 -13.2096 -13.2002 -13.1997
   -13.1844 -13.1825 -13.1754 -13.1749  -4.8457  -4.7583  -4.4150  -4.3567
     0.6140   0.9627   1.2510   1.3871   3.6322   3.8353   4.5813   4.6454
     4.8044   5.3272   5.6352   6.0973   6.1643   6.6121   6.8866   7.3432
     9.6856  10.2692  10.4648  10.8683  11.1954  11.3690  12.0762  12.1741
    12.2568  12.5545

     occupation numbers 
     1.0000   1.0000   1.0000   1.0000   1.0000   1.0000   1.0000   1.0000
     1.0000   1.0000   1.0000   1.0000   1.0000   1.0000   1.0000   1.0000
     1.0000   1.0000   1.0000   1.0000   1.0000   1.0000   1.0000   1.0000
     1.0000   1.0000   1.0000   1.0000   1.0000   1.0000   1.0000   1.0000
     1.0000   1.0000   1.0000   1.0000   1.0000   1.0000   1.0000   1.0000
     0.0000   0.0000   0.0000   0.0000   0.0000   0.0000   0.0000   0.0000
     0.0000   0.0000

          k = 0.3333 1.0186 0.9605 ( 11180 PWs)   bands (ev):

   -13.2680 -13.2669 -13.2636 -13.2627 -13.2411 -13.2397 -13.2381 -13.2375
   -13.2307 -13.2303 -13.2225 -13.2211 -13.2102 -13.2091 -13.1995 -13.1991
   -13.1841 -13.1830 -13.1749 -13.1746  -4.6728  -4.6032  -4.4096  -4.3576
     0.8004   1.0221   1.4802   1.4995   3.2626   3.5147   3.9392   4.2926
     4.4062   4.8396   4.9989   5.5917   6.0126   6.4877   6.7079   6.9979
    10.0940  10.7192  11.0404  11.3913  11.5473  11.8700  12.6946  12.8057
    13.0920  13.2597

     occupation numbers 
     1.0000   1.0000   1.0000   1.0000   1.0000   1.0000   1.0000   1.0000
     1.0000   1.0000   1.0000   1.0000   1.0000   1.0000   1.0000   1.0000
     1.0000   1.0000   1.0000   1.0000   1.0000   1.0000   1.0000   1.0000
     1.0000   1.0000   1.0000   1.0000   1.0000   1.0000   1.0000   1.0000
     1.0000   1.0000   1.0000   1.0000   1.0000   1.0000   1.0000   1.0000
     0.0000   0.0000   0.0000   0.0000   0.0000   0.0000   0.0000   0.0000
     0.0000   0.0000

          k = 0.3333 1.0186-1.2807 ( 11186 PWs)   bands (ev):

   -13.2690 -13.2690 -13.2645 -13.2645 -13.2404 -13.2404 -13.2374 -13.2374
   -13.2301 -13.2301 -13.2212 -13.2212 -13.2091 -13.2091 -13.1990 -13.1990
   -13.1835 -13.1835 -13.1746 -13.1746  -4.5408  -4.5408  -4.4096  -4.4096
     0.9305   0.9305   1.6025   1.6025   3.3815   3.3815   3.6943   3.6943
     4.5297   4.5297   5.0581   5.0581   6.2046   6.2046   6.8053   6.8053
    10.3728  10.3728  11.2924  11.2924  12.4612  12.4612  12.5946  12.5946
    13.8766  13.8767

     occupation numbers 
     1.0000   1.0000   1.0000   1.0000   1.0000   1.0000   1.0000   1.0000
     1.0000   1.0000   1.0000   1.0000   1.0000   1.0000   1.0000   1.0000
     1.0000   1.0000   1.0000   1.0000   1.0000   1.0000   1.0000   1.0000
     1.0000   1.0000   1.0000   1.0000   1.0000   1.0000   1.0000   1.0000
     1.0000   1.0000   1.0000   1.0000   1.0000   1.0000   1.0000   1.0000
     0.0000   0.0000   0.0000   0.0000   0.0000   0.0000   0.0000   0.0000
     0.0000   0.0000

          k = 0.3333-1.3581 0.0000 ( 11198 PWs)   bands (ev):

   -13.2592 -13.2592 -13.2572 -13.2572 -13.2407 -13.2407 -13.2398 -13.2398
   -13.2288 -13.2288 -13.2270 -13.2270 -13.2083 -13.2083 -13.2059 -13.2059
   -13.1795 -13.1795 -13.1782 -13.1782  -4.6697  -4.6697  -4.6380  -4.6380
     0.5058   0.5058   0.8473   0.8473   4.8990   4.8990   5.6535   5.6535
     5.9019   5.9019   6.1147   6.1147   7.0125   7.0125   7.1682   7.1682
     9.3736   9.3736   9.6786   9.6786  10.0647  10.0647  10.4227  10.4227
    11.5379  11.5379

     occupation numbers 
     1.0000   1.0000   1.0000   1.0000   1.0000   1.0000   1.0000   1.0000
     1.0000   1.0000   1.0000   1.0000   1.0000   1.0000   1.0000   1.0000
     1.0000   1.0000   1.0000   1.0000   1.0000   1.0000   1.0000   1.0000
     1.0000   1.0000   1.0000   1.0000   1.0000   1.0000   1.0000   1.0000
     1.0000   1.0000   1.0000   1.0000   1.0000   1.0000   1.0000   1.0000
     0.0000   0.0000   0.0000   0.0000   0.0000   0.0000   0.0000   0.0000
     0.0000   0.0000

          k = 0.3333-1.3581 0.3202 ( 11214 PWs)   bands (ev):

   -13.2610 -13.2610 -13.2588 -13.2588 -13.2404 -13.2404 -13.2390 -13.2390
   -13.2285 -13.2285 -13.2265 -13.2265 -13.2083 -13.2083 -13.2051 -13.2051
   -13.1797 -13.1797 -13.1779 -13.1779  -4.6359  -4.6359  -4.6063  -4.6063
     0.5919   0.5919   0.9166   0.9166   4.7207   4.7207   5.0036   5.0036
     5.5530   5.5530   6.0970   6.0970   6.8272   6.8272   7.1324   7.1324
     9.4449   9.4449   9.7392   9.7392  10.8524  10.8524  11.2386  11.2386
    11.8489  11.8489

     occupation numbers 
     1.0000   1.0000   1.0000   1.0000   1.0000   1.0000   1.0000   1.0000
     1.0000   1.0000   1.0000   1.0000   1.0000   1.0000   1.0000   1.0000
     1.0000   1.0000   1.0000   1.0000   1.0000   1.0000   1.0000   1.0000
     1.0000   1.0000   1.0000   1.0000   1.0000   1.0000   1.0000   1.0000
     1.0000   1.0000   1.0000   1.0000   1.0000   1.0000   1.0000   1.0000
     0.0000   0.0000   0.0000   0.0000   0.0000   0.0000   0.0000   0.0000
     0.0000   0.0000

          k = 0.3333-1.3581 0.6403 ( 11184 PWs)   bands (ev):

   -13.2653 -13.2653 -13.2624 -13.2624 -13.2397 -13.2397 -13.2375 -13.2375
   -13.2278 -13.2278 -13.2253 -13.2253 -13.2080 -13.2080 -13.2035 -13.2035
   -13.1799 -13.1799 -13.1774 -13.1774  -4.5510  -4.5510  -4.5276  -4.5276
     0.8307   0.8307   1.0992   1.0992   4.0316   4.0316   4.2848   4.2848
     5.0577   5.0577   5.6397   5.6397   6.2833   6.2833   6.9205   6.9205
    10.0360  10.0360  10.8885  10.8885  11.4814  11.4814  11.8225  11.8225
    12.8093  12.8093

     occupation numbers 
     1.0000   1.0000   1.0000   1.0000   1.0000   1.0000   1.0000   1.0000
     1.0000   1.0000   1.0000   1.0000   1.0000   1.0000   1.0000   1.0000
     1.0000   1.0000   1.0000   1.0000   1.0000   1.0000   1.0000   1.0000
     1.0000   1.0000   1.0000   1.0000   1.0000   1.0000   1.0000   1.0000
     1.0000   1.0000   1.0000   1.0000   1.0000   1.0000   1.0000   1.0000
     0.0000   0.0000   0.0000   0.0000   0.0000   0.0000   0.0000   0.0000
     0.0000   0.0000

          k = 0.3333-1.3581 0.9605 ( 11190 PWs)   bands (ev):

   -13.2694 -13.2694 -13.2659 -13.2659 -13.2393 -13.2393 -13.2364 -13.2364
   -13.2268 -13.2268 -13.2243 -13.2243 -13.2071 -13.2071 -13.2020 -13.2020
   -13.1800 -13.1800 -13.1769 -13.1769  -4.4602  -4.4602  -4.4466  -4.4466
     1.1409   1.1409   1.3045   1.3045   3.4382   3.4382   3.8050   3.8050
     4.4397   4.4397   4.9480   4.9480   6.2262   6.2262   6.7844   6.7844
    10.4361  10.4361  11.0977  11.0977  12.3408  12.3408  12.4056  12.4056
    13.9349  13.9349

     occupation numbers 
     1.0000   1.0000   1.0000   1.0000   1.0000   1.0000   1.0000   1.0000
     1.0000   1.0000   1.0000   1.0000   1.0000   1.0000   1.0000   1.0000
     1.0000   1.0000   1.0000   1.0000   1.0000   1.0000   1.0000   1.0000
     1.0000   1.0000   1.0000   1.0000   1.0000   1.0000   1.0000   1.0000
     1.0000   1.0000   1.0000   1.0000   1.0000   1.0000   1.0000   1.0000
     0.0000   0.0000   0.0000   0.0000   0.0000   0.0000   0.0000   0.0000
     0.0000   0.0000

          k = 0.3333-1.3581-1.2807 ( 11220 PWs)   bands (ev):

   -13.2710 -13.2710 -13.2674 -13.2674 -13.2392 -13.2392 -13.2361 -13.2361
   -13.2263 -13.2263 -13.2239 -13.2239 -13.2067 -13.2067 -13.2014 -13.2014
   -13.1799 -13.1799 -13.1768 -13.1768  -4.4190  -4.4190  -4.4140  -4.4140
     1.3140   1.3140   1.3878   1.3878   3.2435   3.2435   3.6128   3.6128
     4.1998   4.1998   4.5804   4.5804   6.3019   6.3019   6.7194   6.7194
    10.6048  10.6048  10.8279  10.8279  12.8408  12.8408  12.8648  12.8648
    14.4533  14.4533

     occupation numbers 
     1.0000   1.0000   1.0000   1.0000   1.0000   1.0000   1.0000   1.0000
     1.0000   1.0000   1.0000   1.0000   1.0000   1.0000   1.0000   1.0000
     1.0000   1.0000   1.0000   1.0000   1.0000   1.0000   1.0000   1.0000
     1.0000   1.0000   1.0000   1.0000   1.0000   1.0000   1.0000   1.0000
     1.0000   1.0000   1.0000   1.0000   1.0000   1.0000   1.0000   1.0000
     0.0000   0.0000   0.0000   0.0000   0.0000   0.0000   0.0000   0.0000
     0.0000   0.0000

     highest occupied, lowest unoccupied level (ev):     8.0306    8.8495

!    total energy              =    -827.74544839 Ry
     estimated scf accuracy    <          1.0E-09 Ry

     The total energy is the sum of the following terms:
     one-electron contribution =    -257.00589232 Ry
     hartree contribution      =     179.10643111 Ry
     xc contribution           =    -309.11913762 Ry
     ewald contribution        =    -440.60481620 Ry
     DFT-D3 Dispersion         =      -0.12203337 Ry

     convergence has been achieved in   9 iterations

     Forces acting on atoms (cartesian axes, Ry/au):

     atom    1 type  2   force =     0.00781496   -0.00000000    0.00013879
     atom    2 type  1   force =    -0.00860262   -0.00000000   -0.00053651
     atom    3 type  2   force =    -0.00781496    0.00000000    0.00013879
     atom    4 type  1   force =     0.00860262    0.00000000   -0.00053651
     atom    5 type  2   force =     0.00781496    0.00000000   -0.00013879
     atom    6 type  1   force =    -0.00860262   -0.00000000    0.00053651
     atom    7 type  2   force =    -0.00781496   -0.00000000   -0.00013879
     atom    8 type  1   force =     0.00860262   -0.00000000    0.00053651
     The non-local contrib.  to forces
     atom    1 type  2   force =    -0.11464827    0.00000000    0.09756888
     atom    2 type  1   force =     0.36487843    0.00000000    0.26960086
     atom    3 type  2   force =     0.11464827    0.00000000    0.09756888
     atom    4 type  1   force =    -0.36487843    0.00000000    0.26960086
     atom    5 type  2   force =    -0.11464827    0.00000000   -0.09756888
     atom    6 type  1   force =     0.36487843    0.00000000   -0.26960086
     atom    7 type  2   force =     0.11464827    0.00000000   -0.09756888
     atom    8 type  1   force =    -0.36487843    0.00000000   -0.26960086
     The ionic contribution  to forces
     atom    1 type  2   force =     1.53473235    0.00000000   -1.05154455
     atom    2 type  1   force =    -1.03769718    0.00000000   -0.57506129
     atom    3 type  2   force =    -1.53473235    0.00000000   -1.05154455
     atom    4 type  1   force =     1.03769718   -0.00000000   -0.57506129
     atom    5 type  2   force =     1.53473235    0.00000000    1.05154455
     atom    6 type  1   force =    -1.03769718    0.00000000    0.57506129
     atom    7 type  2   force =    -1.53473235   -0.00000000    1.05154455
     atom    8 type  1   force =     1.03769718    0.00000000    0.57506129
     The local contribution  to forces
     atom    1 type  2   force =    -1.42405741    0.00000000    0.96370894
     atom    2 type  1   force =     0.67032003   -0.00000000    0.30846217
     atom    3 type  2   force =     1.42405741    0.00000000    0.96370894
     atom    4 type  1   force =    -0.67032003    0.00000000    0.30846217
     atom    5 type  2   force =    -1.42405741    0.00000000   -0.96370894
     atom    6 type  1   force =     0.67032003    0.00000000   -0.30846217
     atom    7 type  2   force =     1.42405741    0.00000000   -0.96370894
     atom    8 type  1   force =    -0.67032003    0.00000000   -0.30846217
     The core correction contribution to forces
     atom    1 type  2   force =     0.01254516   -0.00000000   -0.01078852
     atom    2 type  1   force =    -0.00549575    0.00000000   -0.00446363
     atom    3 type  2   force =    -0.01254516    0.00000000   -0.01078852
     atom    4 type  1   force =     0.00549575    0.00000000   -0.00446363
     atom    5 type  2   force =     0.01254516    0.00000000    0.01078852
     atom    6 type  1   force =    -0.00549575    0.00000000    0.00446363
     atom    7 type  2   force =    -0.01254516   -0.00000000    0.01078852
     atom    8 type  1   force =     0.00549575    0.00000000    0.00446363
     The Hubbard contrib.    to forces
     atom    1 type  2   force =     0.00000000    0.00000000    0.00000000
     atom    2 type  1   force =     0.00000000    0.00000000    0.00000000
     atom    3 type  2   force =     0.00000000    0.00000000    0.00000000
     atom    4 type  1   force =     0.00000000    0.00000000    0.00000000
     atom    5 type  2   force =     0.00000000    0.00000000    0.00000000
     atom    6 type  1   force =     0.00000000    0.00000000    0.00000000
     atom    7 type  2   force =     0.00000000    0.00000000    0.00000000
     atom    8 type  1   force =     0.00000000    0.00000000    0.00000000
     The SCF correction term to forces
     atom    1 type  2   force =     0.00002775   -0.00000000    0.00000037
     atom    2 type  1   force =    -0.00005313    0.00000000    0.00003055
     atom    3 type  2   force =    -0.00002775   -0.00000000    0.00000037
     atom    4 type  1   force =     0.00005313    0.00000000    0.00003055
     atom    5 type  2   force =     0.00002775    0.00000000   -0.00000037
     atom    6 type  1   force =    -0.00005313    0.00000000   -0.00003055
     atom    7 type  2   force =    -0.00002775   -0.00000000   -0.00000037
     atom    8 type  1   force =     0.00005313   -0.00000000   -0.00003055

     DFT-D3 dispersion contribution to forces:
     atom    1 type  2   force =    -0.00078462   -0.00000000    0.00119368
     atom    2 type  1   force =    -0.00055504    0.00000000    0.00089483
     atom    3 type  2   force =     0.00078462    0.00000000    0.00119368
     atom    4 type  1   force =     0.00055504   -0.00000000    0.00089483
     atom    5 type  2   force =    -0.00078462   -0.00000000   -0.00119368
     atom    6 type  1   force =    -0.00055504   -0.00000000   -0.00089483
     atom    7 type  2   force =     0.00078462    0.00000000   -0.00119368
     atom    8 type  1   force =     0.00055504    0.00000000   -0.00089483

     Total force =     0.023271     Total SCF correction =     0.000135

     DFT-D3 dispersion Force =     0.003549

     Writing output data file ./tmp/SnSe_pnma.save/

     init_run     :     17.45s CPU     21.16s WALL (       1 calls)
     electrons    :    457.78s CPU    520.92s WALL (       1 calls)
     forces       :     10.21s CPU     16.93s WALL (       1 calls)

     Called by init_run:
     wfcinit      :     11.57s CPU     14.68s WALL (       1 calls)
     wfcinit:atom :      0.09s CPU      0.09s WALL (      17 calls)
     wfcinit:wfcr :     10.83s CPU     14.00s WALL (      17 calls)
     potinit      :      1.58s CPU      1.72s WALL (       1 calls)
     hinit0       :      2.38s CPU      2.43s WALL (       1 calls)

     Called by electrons:
     c_bands      :    385.94s CPU    438.67s WALL (       9 calls)
     sum_band     :     51.51s CPU     54.66s WALL (       9 calls)
     v_of_rho     :      5.01s CPU      5.80s WALL (      10 calls)
     v_h          :      0.43s CPU      0.50s WALL (      10 calls)
     v_xc         :      5.02s CPU      5.82s WALL (      11 calls)
     newd         :     15.56s CPU     22.44s WALL (      10 calls)
     mix_rho      :      0.93s CPU      0.94s WALL (       9 calls)

     Called by c_bands:
     init_us_2    :      2.76s CPU      2.44s WALL (     340 calls)
     cegterg      :    299.26s CPU    354.31s WALL (     153 calls)

     Called by sum_band:
     sum_band:wei :      0.03s CPU      0.02s WALL (       9 calls)
     sum_band:loo :     41.86s CPU     43.88s WALL (       9 calls)
     sum_band:buf :      0.30s CPU      0.27s WALL (     153 calls)
     sum_band:ini :      1.24s CPU      1.06s WALL (     153 calls)
     sum_band:cal :     11.36s CPU     14.57s WALL (     153 calls)
     sum_band:bec :      0.02s CPU      0.02s WALL (     153 calls)
     addusdens    :      7.96s CPU      9.17s WALL (       9 calls)
     addusd:skk   :      0.03s CPU      0.05s WALL (      18 calls)
     addusd:dgemm :      2.55s CPU      2.77s WALL (      18 calls)
     addusd:qvan2 :      4.61s CPU      4.94s WALL (      18 calls)

     Called by *egterg:
     cdiaghg      :     19.15s CPU     48.41s WALL (     663 calls)
     cegterg:over :     40.93s CPU     60.53s WALL (     510 calls)
     cegterg:upda :      7.43s CPU      5.09s WALL (     510 calls)
     cegterg:last :     13.34s CPU      6.06s WALL (     324 calls)
     h_psi        :    180.14s CPU    187.61s WALL (     680 calls)
     s_psi        :     14.35s CPU      6.19s WALL (     680 calls)
     g_psi        :      0.97s CPU      0.80s WALL (     510 calls)

     Called by h_psi:
     h_psi:calbec :     34.32s CPU     49.25s WALL (     680 calls)
     vloc_psi     :    130.29s CPU    131.01s WALL (     680 calls)
     add_vuspsi   :     14.73s CPU      6.49s WALL (     680 calls)

     General routines
     calbec       :     48.88s CPU     71.42s WALL (     901 calls)
     fft          :      5.05s CPU      5.39s WALL (     139 calls)
     ffts         :      0.14s CPU      0.13s WALL (      19 calls)
     fftw         :    135.21s CPU    134.88s WALL (   49306 calls)
     interpolate  :      0.49s CPU      0.52s WALL (      10 calls)

     Parallel routines
     fft_scatt_xy :     27.21s CPU     26.93s WALL (   49464 calls)
     fft_scatt_yz :     25.46s CPU     27.13s WALL (   49464 calls)

     PWSCF        :   8m 6.22s CPU   9m20.15s WALL


   This run was terminated on:  21:32:23  18May2026            

=------------------------------------------------------------------------------=
   JOB DONE.
=------------------------------------------------------------------------------=
