
     Program PWSCF v.6.7MaX starts on 19May2026 at 12:30:36 

     This program is part of the open-source Quantum ESPRESSO suite
     for quantum simulation of materials; please cite
         "P. Giannozzi et al., J. Phys.:Condens. Matter 21 395502 (2009);
         "P. Giannozzi et al., J. Phys.:Condens. Matter 29 465901 (2017);
          URL http://www.quantum-espresso.org", 
     in publications or presentations arising from this work. More details at
     http://www.quantum-espresso.org/quote

     Parallel version (MPI), running on     6 processors

     MPI processes distributed on     1 nodes
     K-points division:     npool     =       3
     R & G space division:  proc/nbgrp/npool/nimage =       2
     Waiting for input...
     Reading input from standard input

     Current dimensions of program PWSCF are:
     Max number of different atomic species (ntypx) = 10
     Max number of k-points (npk) =  40000
     Max angular momentum in pseudopotentials (lmaxx) =  3

     --------------------------------------------
     Parameters for DFT-D3 Dispersion Correction:
     --------------------------------------------
       Reference C6 values for interpolation: 

         atom   Coordination number   C6
         Se         0.000           427.35
         Se         0.990           427.57
         Se         1.981           421.05
         Sn         0.000          1255.14
         Sn         0.951          1084.09
         Sn         1.950          1010.83
         Sn         2.926           818.29
         Sn         3.912           672.20

       Values used:

         atom   Coordination number  R0_AB[au]  C6      C8
         Se         3.637            3.332    421.05  29958.36
         Sn         4.405            3.957    672.26  84376.19
         Se         3.637            3.332    421.05  29958.36
         Sn         4.405            3.957    672.26  84376.19
         Se         3.637            3.332    421.05  29958.36
         Sn         4.405            3.957    672.26  84376.19
         Se         3.637            3.332    421.05  29958.36
         Sn         4.405            3.957    672.26  84376.19

         Molecular C6 ( Ry / a.u.^6 ) =     34497.83


     Subspace diagonalization in iterative solution of the eigenvalue problem:
     a serial algorithm will be used


     Parallelization info
     --------------------
     sticks:   dense  smooth     PW     G-vecs:    dense   smooth      PW
     Min        5411    2167    607               272382    68912   10303
     Max        5412    2168    608               272383    68913   10304
     Sum       10823    4335   1215               544765   137825   20607



     bravais-lattice index     =            8
     lattice parameter (alat)  =      21.4862  a.u.
     unit-cell volume          =    1425.7436 (a.u.)^3
     number of atoms/cell      =            8
     number of atomic types    =            2
     number of electrons       =        80.00
     number of Kohn-Sham states=           50
     kinetic-energy cutoff     =      80.0000  Ry
     charge density cutoff     =     800.0000  Ry
     scf convergence threshold =      1.0E-08
     mixing beta               =       0.7000
     number of iterations used =            8  plain     mixing
     Exchange-correlation= SLA  PW   PBE  PBE
                           (   1   4   3   4   0   0   0)

     celldm(1)=  21.486186  celldm(2)=   0.368162  celldm(3)=   0.390413
     celldm(4)=   0.000000  celldm(5)=   0.000000  celldm(6)=   0.000000

     crystal axes: (cart. coord. in units of alat)
               a(1) = (   1.000000   0.000000   0.000000 )  
               a(2) = (   0.000000   0.368162   0.000000 )  
               a(3) = (   0.000000   0.000000   0.390413 )  

     reciprocal axes: (cart. coord. in units 2 pi/alat)
               b(1) = (  1.000000  0.000000  0.000000 )  
               b(2) = (  0.000000  2.716197  0.000000 )  
               b(3) = (  0.000000  0.000000  2.561388 )  


     PseudoPot. # 1 for Sn read from file:
     ../pseudo/Sn_pbe_v1.uspp.F.UPF
     MD5 check sum: 4cf58ce39ec5d5d420df3dd08604eb00
     Pseudo is Ultrasoft + core correction, Zval = 14.0
     Generated by new atomic code, or converted to UPF format
     Using radial grid of  891 points,  6 beta functions with: 
                l(1) =   0
                l(2) =   0
                l(3) =   1
                l(4) =   1
                l(5) =   2
                l(6) =   2
     Q(r) pseudized with  6 coefficients,  rinner =    1.200   1.200   1.200
                                                       1.200   1.200

     PseudoPot. # 2 for Se read from file:
     ../pseudo/Se_pbe_v1.uspp.F.UPF
     MD5 check sum: 1b3568f3a8ae88f9a2a0ad0698632c85
     Pseudo is Ultrasoft + core correction, Zval =  6.0
     Generated by new atomic code, or converted to UPF format
     Using radial grid of  877 points,  6 beta functions with: 
                l(1) =   0
                l(2) =   0
                l(3) =   1
                l(4) =   1
                l(5) =   2
                l(6) =   2
     Q(r) pseudized with  8 coefficients,  rinner =    1.300   1.300   1.300
                                                       1.300   1.300

     atomic species   valence    mass     pseudopotential
        Sn            14.00   118.71000     Sn( 1.00)
        Se             6.00    78.97100     Se( 1.00)

      8 Sym. Ops., with inversion, found ( 6 have fractional translation)


                                    s                        frac. trans.

      isym =  1     identity                                     

 cryst.   s( 1) = (     1          0          0      )
                  (     0          1          0      )
                  (     0          0          1      )

 cart.    s( 1) = (  1.0000000  0.0000000  0.0000000 )
                  (  0.0000000  1.0000000  0.0000000 )
                  (  0.0000000  0.0000000  1.0000000 )


      isym =  2     180 deg rotation - cart. axis [0,0,1]        

 cryst.   s( 2) = (    -1          0          0      )    f =(  0.5000000 )
                  (     0         -1          0      )       (  0.0000000 )
                  (     0          0          1      )       (  0.5000000 )

 cart.    s( 2) = ( -1.0000000  0.0000000  0.0000000 )    f =(  0.5000000 )
                  (  0.0000000 -1.0000000  0.0000000 )       (  0.0000000 )
                  (  0.0000000  0.0000000  1.0000000 )       (  0.1952067 )


      isym =  3     180 deg rotation - cart. axis [0,1,0]        

 cryst.   s( 3) = (    -1          0          0      )    f =( -0.0000000 )
                  (     0          1          0      )       ( -0.5000000 )
                  (     0          0         -1      )       (  0.0000000 )

 cart.    s( 3) = ( -1.0000000  0.0000000  0.0000000 )    f =( -0.0000000 )
                  (  0.0000000  1.0000000  0.0000000 )       ( -0.1840809 )
                  (  0.0000000  0.0000000 -1.0000000 )       (  0.0000000 )


      isym =  4     180 deg rotation - cart. axis [1,0,0]        

 cryst.   s( 4) = (     1          0          0      )    f =(  0.5000000 )
                  (     0         -1          0      )       (  0.5000000 )
                  (     0          0         -1      )       (  0.5000000 )

 cart.    s( 4) = (  1.0000000  0.0000000  0.0000000 )    f =(  0.5000000 )
                  (  0.0000000 -1.0000000  0.0000000 )       (  0.1840809 )
                  (  0.0000000  0.0000000 -1.0000000 )       (  0.1952067 )


      isym =  5     inversion                                    

 cryst.   s( 5) = (    -1          0          0      )
                  (     0         -1          0      )
                  (     0          0         -1      )

 cart.    s( 5) = ( -1.0000000  0.0000000  0.0000000 )
                  (  0.0000000 -1.0000000  0.0000000 )
                  (  0.0000000  0.0000000 -1.0000000 )


      isym =  6     inv. 180 deg rotation - cart. axis [0,0,1]   

 cryst.   s( 6) = (     1          0          0      )    f =(  0.5000000 )
                  (     0          1          0      )       (  0.0000000 )
                  (     0          0         -1      )       (  0.5000000 )

 cart.    s( 6) = (  1.0000000  0.0000000  0.0000000 )    f =(  0.5000000 )
                  (  0.0000000  1.0000000  0.0000000 )       (  0.0000000 )
                  (  0.0000000  0.0000000 -1.0000000 )       (  0.1952067 )


      isym =  7     inv. 180 deg rotation - cart. axis [0,1,0]   

 cryst.   s( 7) = (     1          0          0      )    f =(  0.0000000 )
                  (     0         -1          0      )       (  0.5000000 )
                  (     0          0          1      )       (  0.0000000 )

 cart.    s( 7) = (  1.0000000  0.0000000  0.0000000 )    f =(  0.0000000 )
                  (  0.0000000 -1.0000000  0.0000000 )       (  0.1840809 )
                  (  0.0000000  0.0000000  1.0000000 )       (  0.0000000 )


      isym =  8     inv. 180 deg rotation - cart. axis [1,0,0]   

 cryst.   s( 8) = (    -1          0          0      )    f =(  0.5000000 )
                  (     0          1          0      )       ( -0.5000000 )
                  (     0          0          1      )       (  0.5000000 )

 cart.    s( 8) = ( -1.0000000  0.0000000  0.0000000 )    f =(  0.5000000 )
                  (  0.0000000  1.0000000  0.0000000 )       ( -0.1840809 )
                  (  0.0000000  0.0000000  1.0000000 )       (  0.1952067 )


     point group D_2h (mmm) 
     there are  8 classes
     the character table:

       E     C2    C2'   C2''  i     s_v   s_v'  s_v''
A_g    1.00  1.00  1.00  1.00  1.00  1.00  1.00  1.00
B_1g   1.00  1.00 -1.00 -1.00  1.00  1.00 -1.00 -1.00
B_2g   1.00 -1.00  1.00 -1.00  1.00 -1.00  1.00 -1.00
B_3g   1.00 -1.00 -1.00  1.00  1.00 -1.00 -1.00  1.00
A_u    1.00  1.00  1.00  1.00 -1.00 -1.00 -1.00 -1.00
B_1u   1.00  1.00 -1.00 -1.00 -1.00 -1.00  1.00  1.00
B_2u   1.00 -1.00  1.00 -1.00 -1.00  1.00 -1.00  1.00
B_3u   1.00 -1.00 -1.00  1.00 -1.00  1.00  1.00 -1.00

     the symmetry operations in each class and the name of the first element:

     E        1
          identity                                               
     C2       2
          180 deg rotation - cart. axis [0,0,1]                  
     C2'      4
          180 deg rotation - cart. axis [1,0,0]                  
     C2''     3
          180 deg rotation - cart. axis [0,1,0]                  
     i        5
          inversion                                              
     s_v      6
          inv. 180 deg rotation - cart. axis [0,0,1]             
     s_v'     8
          inv. 180 deg rotation - cart. axis [1,0,0]             
     s_v''    7
          inv. 180 deg rotation - cart. axis [0,1,0]             

   Cartesian axes

     site n.     atom                  positions (alat units)
         1           Se  tau(   1) = (   0.8555000   0.0920405   0.1884916  )
         2           Sn  tau(   2) = (   0.1187000   0.0920405   0.0385728  )
         3           Se  tau(   3) = (   0.6445000   0.2761214   0.3836983  )
         4           Sn  tau(   4) = (   0.3813000   0.2761214   0.2337795  )
         5           Se  tau(   5) = (   0.3555000   0.0920405   0.0067151  )
         6           Sn  tau(   6) = (   0.6187000   0.0920405   0.1566338  )
         7           Se  tau(   7) = (   0.1445000   0.2761214   0.2019218  )
         8           Sn  tau(   8) = (   0.8813000   0.2761214   0.3518405  )

   Crystallographic axes

     site n.     atom                  positions (cryst. coord.)
         1           Se  tau(   1) = (  0.8555000  0.2500000  0.4828000  )
         2           Sn  tau(   2) = (  0.1187000  0.2500000  0.0988000  )
         3           Se  tau(   3) = (  0.6445000  0.7500000  0.9828000  )
         4           Sn  tau(   4) = (  0.3813000  0.7500000  0.5988000  )
         5           Se  tau(   5) = (  0.3555000  0.2500000  0.0172000  )
         6           Sn  tau(   6) = (  0.6187000  0.2500000  0.4012000  )
         7           Se  tau(   7) = (  0.1445000  0.7500000  0.5172000  )
         8           Sn  tau(   8) = (  0.8813000  0.7500000  0.9012000  )

     number of k points=    50
                       cart. coord. in units 2pi/alat
        k(    1) = (   0.0000000   0.0000000   0.0000000), wk =   0.0104167
        k(    2) = (   0.0000000   0.0000000   0.3201735), wk =   0.0208333
        k(    3) = (   0.0000000   0.0000000   0.6403469), wk =   0.0208333
        k(    4) = (   0.0000000   0.0000000   0.9605204), wk =   0.0208333
        k(    5) = (   0.0000000   0.0000000  -1.2806938), wk =   0.0104167
        k(    6) = (   0.0000000   0.3395246   0.0000000), wk =   0.0208333
        k(    7) = (   0.0000000   0.3395246   0.3201735), wk =   0.0416667
        k(    8) = (   0.0000000   0.3395246   0.6403469), wk =   0.0416667
        k(    9) = (   0.0000000   0.3395246   0.9605204), wk =   0.0416667
        k(   10) = (   0.0000000   0.3395246  -1.2806938), wk =   0.0208333
        k(   11) = (   0.0000000   0.6790492   0.0000000), wk =   0.0208333
        k(   12) = (   0.0000000   0.6790492   0.3201735), wk =   0.0416667
        k(   13) = (   0.0000000   0.6790492   0.6403469), wk =   0.0416667
        k(   14) = (   0.0000000   0.6790492   0.9605204), wk =   0.0416667
        k(   15) = (   0.0000000   0.6790492  -1.2806938), wk =   0.0208333
        k(   16) = (   0.0000000   1.0185738   0.0000000), wk =   0.0208333
        k(   17) = (   0.0000000   1.0185738   0.3201735), wk =   0.0416667
        k(   18) = (   0.0000000   1.0185738   0.6403469), wk =   0.0416667
        k(   19) = (   0.0000000   1.0185738   0.9605204), wk =   0.0416667
        k(   20) = (   0.0000000   1.0185738  -1.2806938), wk =   0.0208333
        k(   21) = (   0.0000000  -1.3580984   0.0000000), wk =   0.0104167
        k(   22) = (   0.0000000  -1.3580984   0.3201735), wk =   0.0208333
        k(   23) = (   0.0000000  -1.3580984   0.6403469), wk =   0.0208333
        k(   24) = (   0.0000000  -1.3580984   0.9605204), wk =   0.0208333
        k(   25) = (   0.0000000  -1.3580984  -1.2806938), wk =   0.0104167
        k(   26) = (   0.3333333   0.0000000   0.0000000), wk =   0.0208333
        k(   27) = (   0.3333333   0.0000000   0.3201735), wk =   0.0416667
        k(   28) = (   0.3333333   0.0000000   0.6403469), wk =   0.0416667
        k(   29) = (   0.3333333   0.0000000   0.9605204), wk =   0.0416667
        k(   30) = (   0.3333333   0.0000000  -1.2806938), wk =   0.0208333
        k(   31) = (   0.3333333   0.3395246   0.0000000), wk =   0.0416667
        k(   32) = (   0.3333333   0.3395246   0.3201735), wk =   0.0833333
        k(   33) = (   0.3333333   0.3395246   0.6403469), wk =   0.0833333
        k(   34) = (   0.3333333   0.3395246   0.9605204), wk =   0.0833333
        k(   35) = (   0.3333333   0.3395246  -1.2806938), wk =   0.0416667
        k(   36) = (   0.3333333   0.6790492   0.0000000), wk =   0.0416667
        k(   37) = (   0.3333333   0.6790492   0.3201735), wk =   0.0833333
        k(   38) = (   0.3333333   0.6790492   0.6403469), wk =   0.0833333
        k(   39) = (   0.3333333   0.6790492   0.9605204), wk =   0.0833333
        k(   40) = (   0.3333333   0.6790492  -1.2806938), wk =   0.0416667
        k(   41) = (   0.3333333   1.0185738   0.0000000), wk =   0.0416667
        k(   42) = (   0.3333333   1.0185738   0.3201735), wk =   0.0833333
        k(   43) = (   0.3333333   1.0185738   0.6403469), wk =   0.0833333
        k(   44) = (   0.3333333   1.0185738   0.9605204), wk =   0.0833333
        k(   45) = (   0.3333333   1.0185738  -1.2806938), wk =   0.0416667
        k(   46) = (   0.3333333  -1.3580984   0.0000000), wk =   0.0208333
        k(   47) = (   0.3333333  -1.3580984   0.3201735), wk =   0.0416667
        k(   48) = (   0.3333333  -1.3580984   0.6403469), wk =   0.0416667
        k(   49) = (   0.3333333  -1.3580984   0.9605204), wk =   0.0416667
        k(   50) = (   0.3333333  -1.3580984  -1.2806938), wk =   0.0208333

                       cryst. coord.
        k(    1) = (   0.0000000   0.0000000   0.0000000), wk =   0.0104167
        k(    2) = (   0.0000000   0.0000000   0.1250000), wk =   0.0208333
        k(    3) = (   0.0000000   0.0000000   0.2500000), wk =   0.0208333
        k(    4) = (   0.0000000   0.0000000   0.3750000), wk =   0.0208333
        k(    5) = (   0.0000000   0.0000000  -0.5000000), wk =   0.0104167
        k(    6) = (   0.0000000   0.1250000   0.0000000), wk =   0.0208333
        k(    7) = (   0.0000000   0.1250000   0.1250000), wk =   0.0416667
        k(    8) = (   0.0000000   0.1250000   0.2500000), wk =   0.0416667
        k(    9) = (   0.0000000   0.1250000   0.3750000), wk =   0.0416667
        k(   10) = (   0.0000000   0.1250000  -0.5000000), wk =   0.0208333
        k(   11) = (   0.0000000   0.2500000   0.0000000), wk =   0.0208333
        k(   12) = (   0.0000000   0.2500000   0.1250000), wk =   0.0416667
        k(   13) = (   0.0000000   0.2500000   0.2500000), wk =   0.0416667
        k(   14) = (   0.0000000   0.2500000   0.3750000), wk =   0.0416667
        k(   15) = (   0.0000000   0.2500000  -0.5000000), wk =   0.0208333
        k(   16) = (   0.0000000   0.3750000   0.0000000), wk =   0.0208333
        k(   17) = (   0.0000000   0.3750000   0.1250000), wk =   0.0416667
        k(   18) = (   0.0000000   0.3750000   0.2500000), wk =   0.0416667
        k(   19) = (   0.0000000   0.3750000   0.3750000), wk =   0.0416667
        k(   20) = (   0.0000000   0.3750000  -0.5000000), wk =   0.0208333
        k(   21) = (   0.0000000  -0.5000000   0.0000000), wk =   0.0104167
        k(   22) = (   0.0000000  -0.5000000   0.1250000), wk =   0.0208333
        k(   23) = (   0.0000000  -0.5000000   0.2500000), wk =   0.0208333
        k(   24) = (   0.0000000  -0.5000000   0.3750000), wk =   0.0208333
        k(   25) = (   0.0000000  -0.5000000  -0.5000000), wk =   0.0104167
        k(   26) = (   0.3333333   0.0000000   0.0000000), wk =   0.0208333
        k(   27) = (   0.3333333   0.0000000   0.1250000), wk =   0.0416667
        k(   28) = (   0.3333333   0.0000000   0.2500000), wk =   0.0416667
        k(   29) = (   0.3333333   0.0000000   0.3750000), wk =   0.0416667
        k(   30) = (   0.3333333   0.0000000  -0.5000000), wk =   0.0208333
        k(   31) = (   0.3333333   0.1250000   0.0000000), wk =   0.0416667
        k(   32) = (   0.3333333   0.1250000   0.1250000), wk =   0.0833333
        k(   33) = (   0.3333333   0.1250000   0.2500000), wk =   0.0833333
        k(   34) = (   0.3333333   0.1250000   0.3750000), wk =   0.0833333
        k(   35) = (   0.3333333   0.1250000  -0.5000000), wk =   0.0416667
        k(   36) = (   0.3333333   0.2500000   0.0000000), wk =   0.0416667
        k(   37) = (   0.3333333   0.2500000   0.1250000), wk =   0.0833333
        k(   38) = (   0.3333333   0.2500000   0.2500000), wk =   0.0833333
        k(   39) = (   0.3333333   0.2500000   0.3750000), wk =   0.0833333
        k(   40) = (   0.3333333   0.2500000  -0.5000000), wk =   0.0416667
        k(   41) = (   0.3333333   0.3750000   0.0000000), wk =   0.0416667
        k(   42) = (   0.3333333   0.3750000   0.1250000), wk =   0.0833333
        k(   43) = (   0.3333333   0.3750000   0.2500000), wk =   0.0833333
        k(   44) = (   0.3333333   0.3750000   0.3750000), wk =   0.0833333
        k(   45) = (   0.3333333   0.3750000  -0.5000000), wk =   0.0416667
        k(   46) = (   0.3333333  -0.5000000   0.0000000), wk =   0.0208333
        k(   47) = (   0.3333333  -0.5000000   0.1250000), wk =   0.0416667
        k(   48) = (   0.3333333  -0.5000000   0.2500000), wk =   0.0416667
        k(   49) = (   0.3333333  -0.5000000   0.3750000), wk =   0.0416667
        k(   50) = (   0.3333333  -0.5000000  -0.5000000), wk =   0.0208333

     Dense  grid:   544765 G-vectors     FFT dimensions: ( 200,  72,  80)

     Smooth grid:   137825 G-vectors     FFT dimensions: ( 128,  48,  48)

     Dynamical RAM for                 wfc:       6.57 MB

     Dynamical RAM for     wfc (w. buffer):     118.30 MB

     Dynamical RAM for           str. fact:       8.31 MB

     Dynamical RAM for           local pot:       0.00 MB

     Dynamical RAM for          nlocal pot:      18.93 MB

     Dynamical RAM for                qrad:       4.54 MB

     Dynamical RAM for          rho,v,vnew:      25.65 MB

     Dynamical RAM for               rhoin:       8.55 MB

     Dynamical RAM for            rho*nmix:      66.50 MB

     Dynamical RAM for           G-vectors:      16.11 MB

     Dynamical RAM for          h,s,v(r/c):       0.46 MB

     Dynamical RAM for          <psi|beta>:       0.11 MB

     Dynamical RAM for                 psi:      13.14 MB

     Dynamical RAM for                hpsi:      13.14 MB

     Dynamical RAM for                spsi:      13.14 MB

     Dynamical RAM for      wfcinit/wfcrot:      13.73 MB

     Dynamical RAM for           addusdens:     266.00 MB

     Dynamical RAM for          addusforce:     273.63 MB

     Estimated static dynamical RAM per process >     301.33 MB

     Estimated max dynamical RAM per process >     574.96 MB

     Estimated total dynamical RAM >       3.37 GB

     Initial potential from superposition of free atoms

     starting charge   75.99954, renormalised to   80.00000
     Starting wfcs are   52 randomized atomic wfcs

     total cpu time spent up to now is       57.1 secs

     Self-consistent Calculation

     iteration #  1     ecut=    80.00 Ry     beta= 0.70
     Davidson diagonalization with overlap
     ethr =  1.00E-02,  avg # of iterations =  3.8

     total cpu time spent up to now is      219.9 secs

     total energy              =    -826.67807648 Ry
     estimated scf accuracy    <       2.62797610 Ry

     iteration #  2     ecut=    80.00 Ry     beta= 0.70
     Davidson diagonalization with overlap
     ethr =  3.28E-03,  avg # of iterations =  2.0

     total cpu time spent up to now is      371.5 secs

     total energy              =    -827.46092313 Ry
     estimated scf accuracy    <       1.10547172 Ry

     iteration #  3     ecut=    80.00 Ry     beta= 0.70
     Davidson diagonalization with overlap
     ethr =  1.38E-03,  avg # of iterations =  2.0

     total cpu time spent up to now is      504.1 secs

     total energy              =    -827.73564839 Ry
     estimated scf accuracy    <       0.06116180 Ry

     iteration #  4     ecut=    80.00 Ry     beta= 0.70
     Davidson diagonalization with overlap
     ethr =  7.65E-05,  avg # of iterations =  3.3

     total cpu time spent up to now is      645.4 secs

     total energy              =    -827.74680489 Ry
     estimated scf accuracy    <       0.00305018 Ry

     iteration #  5     ecut=    80.00 Ry     beta= 0.70
     Davidson diagonalization with overlap
     ethr =  3.81E-06,  avg # of iterations =  6.4

     total cpu time spent up to now is      822.7 secs

     total energy              =    -827.74747937 Ry
     estimated scf accuracy    <       0.00081072 Ry

     iteration #  6     ecut=    80.00 Ry     beta= 0.70
     Davidson diagonalization with overlap
     ethr =  1.01E-06,  avg # of iterations =  2.3

     total cpu time spent up to now is      948.2 secs

     total energy              =    -827.74765423 Ry
     estimated scf accuracy    <       0.00004406 Ry

     iteration #  7     ecut=    80.00 Ry     beta= 0.70
     Davidson diagonalization with overlap
     ethr =  5.51E-08,  avg # of iterations =  5.0

     total cpu time spent up to now is     1128.2 secs

     total energy              =    -827.74768222 Ry
     estimated scf accuracy    <       0.00000262 Ry

     iteration #  8     ecut=    80.00 Ry     beta= 0.70
     Davidson diagonalization with overlap
     ethr =  3.28E-09,  avg # of iterations =  3.4

     total cpu time spent up to now is     1291.2 secs

     total energy              =    -827.74768330 Ry
     estimated scf accuracy    <       0.00000039 Ry

     iteration #  9     ecut=    80.00 Ry     beta= 0.70
     Davidson diagonalization with overlap
     ethr =  4.93E-10,  avg # of iterations =  2.9

     total cpu time spent up to now is     1454.0 secs

     End of self-consistent calculation

          k = 0.0000 0.0000 0.0000 ( 17237 PWs)   bands (ev):

   -13.2666 -13.2551 -13.2519 -13.2495 -13.2493 -13.2454 -13.2426 -13.2383
   -13.2346 -13.2331 -13.2331 -13.2255 -13.2184 -13.2115 -13.1973 -13.1926
   -13.1874 -13.1839 -13.1758 -13.1664  -5.7486  -5.3985  -4.6623  -4.1624
     0.8108   1.9492   2.5390   3.0742   3.2285   4.6617   4.7015   4.7757
     5.1804   5.2370   5.8087   6.3100   6.5334   6.9878   7.3975   7.5668
     8.8494  10.9495  11.0983  11.1316  11.3560  11.4503  12.3329  12.6285
    12.7025  12.7416

     occupation numbers 
     1.0000   1.0000   1.0000   1.0000   1.0000   1.0000   1.0000   1.0000
     1.0000   1.0000   1.0000   1.0000   1.0000   1.0000   1.0000   1.0000
     1.0000   1.0000   1.0000   1.0000   1.0000   1.0000   1.0000   1.0000
     1.0000   1.0000   1.0000   1.0000   1.0000   1.0000   1.0000   1.0000
     1.0000   1.0000   1.0000   1.0000   1.0000   1.0000   1.0000   1.0000
     0.0000   0.0000   0.0000   0.0000   0.0000   0.0000   0.0000   0.0000
     0.0000   0.0000

          k = 0.0000 0.0000 0.3202 ( 17232 PWs)   bands (ev):

   -13.2657 -13.2543 -13.2519 -13.2503 -13.2488 -13.2466 -13.2429 -13.2388
   -13.2342 -13.2324 -13.2307 -13.2257 -13.2179 -13.2119 -13.1974 -13.1921
   -13.1880 -13.1843 -13.1754 -13.1668  -5.6814  -5.3369  -4.6528  -4.1792
     0.5848   1.8066   2.1936   2.8120   3.1997   4.7330   4.7643   5.1508
     5.2732   5.6931   5.8770   6.3899   6.5681   7.2112   7.2694   7.5938
     8.9030  10.4003  10.9973  11.1374  11.1594  11.3502  12.1928  12.3120
    12.4628  12.6919

     occupation numbers 
     1.0000   1.0000   1.0000   1.0000   1.0000   1.0000   1.0000   1.0000
     1.0000   1.0000   1.0000   1.0000   1.0000   1.0000   1.0000   1.0000
     1.0000   1.0000   1.0000   1.0000   1.0000   1.0000   1.0000   1.0000
     1.0000   1.0000   1.0000   1.0000   1.0000   1.0000   1.0000   1.0000
     1.0000   1.0000   1.0000   1.0000   1.0000   1.0000   1.0000   1.0000
     0.0000   0.0000   0.0000   0.0000   0.0000   0.0000   0.0000   0.0000
     0.0000   0.0000

          k = 0.0000 0.0000 0.6403 ( 17226 PWs)   bands (ev):

   -13.2633 -13.2524 -13.2523 -13.2520 -13.2493 -13.2478 -13.2437 -13.2404
   -13.2328 -13.2287 -13.2264 -13.2263 -13.2170 -13.2131 -13.1972 -13.1911
   -13.1896 -13.1855 -13.1743 -13.1677  -5.4917  -5.1627  -4.6529  -4.2460
     0.1701   1.3526   1.5097   2.3514   3.3690   5.0027   5.0579   5.5360
     5.7222   6.0374   6.1775   6.6230   6.8775   7.0106   7.5215   7.8387
     9.2167   9.4496  10.1726  10.2265  10.9503  11.2344  11.4548  11.5821
    12.6059  12.7488

     occupation numbers 
     1.0000   1.0000   1.0000   1.0000   1.0000   1.0000   1.0000   1.0000
     1.0000   1.0000   1.0000   1.0000   1.0000   1.0000   1.0000   1.0000
     1.0000   1.0000   1.0000   1.0000   1.0000   1.0000   1.0000   1.0000
     1.0000   1.0000   1.0000   1.0000   1.0000   1.0000   1.0000   1.0000
     1.0000   1.0000   1.0000   1.0000   1.0000   1.0000   1.0000   1.0000
     0.0000   0.0000   0.0000   0.0000   0.0000   0.0000   0.0000   0.0000
     0.0000   0.0000

          k = 0.0000 0.0000 0.9605 ( 17246 PWs)   bands (ev):

   -13.2599 -13.2539 -13.2535 -13.2521 -13.2501 -13.2475 -13.2443 -13.2425
   -13.2310 -13.2275 -13.2235 -13.2217 -13.2170 -13.2151 -13.1961 -13.1918
   -13.1897 -13.1869 -13.1727 -13.1692  -5.2185  -4.9086  -4.7319  -4.3946
    -0.0657   0.5736   1.3331   1.8114   3.8095   4.9243   5.4901   5.9156
     6.1287   6.3128   6.4617   6.5645   6.9127   7.4263   7.8062   8.0304
     8.9986   9.3175   9.6068   9.7876  10.1802  10.2813  10.8432  11.1271
    11.6647  11.8367

     occupation numbers 
     1.0000   1.0000   1.0000   1.0000   1.0000   1.0000   1.0000   1.0000
     1.0000   1.0000   1.0000   1.0000   1.0000   1.0000   1.0000   1.0000
     1.0000   1.0000   1.0000   1.0000   1.0000   1.0000   1.0000   1.0000
     1.0000   1.0000   1.0000   1.0000   1.0000   1.0000   1.0000   1.0000
     1.0000   1.0000   1.0000   1.0000   1.0000   1.0000   1.0000   1.0000
     0.0000   0.0000   0.0000   0.0000   0.0000   0.0000   0.0000   0.0000
     0.0000   0.0000

          k = 0.0000 0.0000-1.2807 ( 17248 PWs)   bands (ev):

   -13.2565 -13.2565 -13.2536 -13.2536 -13.2483 -13.2483 -13.2439 -13.2439
   -13.2292 -13.2292 -13.2190 -13.2190 -13.2180 -13.2180 -13.1941 -13.1941
   -13.1882 -13.1882 -13.1710 -13.1710  -4.9349  -4.9349  -4.6302  -4.6302
     0.0661   0.0661   1.4338   1.4338   4.3884   4.3884   5.9271   5.9271
     6.3042   6.3042   6.6768   6.6768   7.2593   7.2593   7.7967   7.7967
     9.3210   9.3210   9.6521   9.6521   9.7886   9.7886  10.7602  10.7602
    11.2259  11.2259

     occupation numbers 
     1.0000   1.0000   1.0000   1.0000   1.0000   1.0000   1.0000   1.0000
     1.0000   1.0000   1.0000   1.0000   1.0000   1.0000   1.0000   1.0000
     1.0000   1.0000   1.0000   1.0000   1.0000   1.0000   1.0000   1.0000
     1.0000   1.0000   1.0000   1.0000   1.0000   1.0000   1.0000   1.0000
     1.0000   1.0000   1.0000   1.0000   1.0000   1.0000   1.0000   1.0000
     0.0000   0.0000   0.0000   0.0000   0.0000   0.0000   0.0000   0.0000
     0.0000   0.0000

          k = 0.0000 0.3395 0.0000 ( 17213 PWs)   bands (ev):

   -13.2631 -13.2535 -13.2508 -13.2490 -13.2480 -13.2478 -13.2450 -13.2399
   -13.2366 -13.2313 -13.2298 -13.2280 -13.2160 -13.2121 -13.1956 -13.1935
   -13.1862 -13.1857 -13.1759 -13.1678  -5.6645  -5.3269  -4.6255  -4.1666
     0.6923   1.7085   2.4621   2.6201   3.2101   4.5949   4.8807   4.9812
     5.1631   5.3291   6.0152   6.3582   6.5180   7.2442   7.4078   7.4912
     8.9805  10.3766  10.9740  11.3189  11.3394  11.3703  11.9430  12.1012
    12.5122  12.9362

     occupation numbers 
     1.0000   1.0000   1.0000   1.0000   1.0000   1.0000   1.0000   1.0000
     1.0000   1.0000   1.0000   1.0000   1.0000   1.0000   1.0000   1.0000
     1.0000   1.0000   1.0000   1.0000   1.0000   1.0000   1.0000   1.0000
     1.0000   1.0000   1.0000   1.0000   1.0000   1.0000   1.0000   1.0000
     1.0000   1.0000   1.0000   1.0000   1.0000   1.0000   1.0000   1.0000
     0.0000   0.0000   0.0000   0.0000   0.0000   0.0000   0.0000   0.0000
     0.0000   0.0000

          k = 0.0000 0.3395 0.3202 ( 17234 PWs)   bands (ev):

   -13.2625 -13.2530 -13.2517 -13.2490 -13.2484 -13.2473 -13.2454 -13.2411
   -13.2362 -13.2296 -13.2283 -13.2281 -13.2159 -13.2121 -13.1958 -13.1929
   -13.1868 -13.1861 -13.1755 -13.1680  -5.5986  -5.2669  -4.6157  -4.1804
     0.5339   1.6551   2.1177   2.5388   3.2339   4.3278   4.5206   5.4999
     5.5043   5.7011   5.7417   6.3778   6.8147   7.2392   7.5442   7.5502
     9.0401   9.9486  10.5484  10.8360  11.1406  11.4810  11.8614  12.1083
    12.5273  12.9839

     occupation numbers 
     1.0000   1.0000   1.0000   1.0000   1.0000   1.0000   1.0000   1.0000
     1.0000   1.0000   1.0000   1.0000   1.0000   1.0000   1.0000   1.0000
     1.0000   1.0000   1.0000   1.0000   1.0000   1.0000   1.0000   1.0000
     1.0000   1.0000   1.0000   1.0000   1.0000   1.0000   1.0000   1.0000
     1.0000   1.0000   1.0000   1.0000   1.0000   1.0000   1.0000   1.0000
     0.0000   0.0000   0.0000   0.0000   0.0000   0.0000   0.0000   0.0000
     0.0000   0.0000

          k = 0.0000 0.3395 0.6403 ( 17219 PWs)   bands (ev):

   -13.2610 -13.2539 -13.2524 -13.2493 -13.2485 -13.2472 -13.2456 -13.2437
   -13.2347 -13.2285 -13.2258 -13.2245 -13.2159 -13.2124 -13.1957 -13.1919
   -13.1884 -13.1870 -13.1745 -13.1688  -5.4133  -5.0979  -4.6137  -4.2379
     0.2170   1.3784   1.5049   2.2330   3.4616   4.2671   4.4498   5.5502
     5.7724   5.9479   6.2875   6.3493   7.0724   7.2760   7.5904   7.7011
     9.3051   9.6079   9.8702   9.8717  11.0541  11.0656  11.5281  12.0702
    12.6321  12.7981

     occupation numbers 
     1.0000   1.0000   1.0000   1.0000   1.0000   1.0000   1.0000   1.0000
     1.0000   1.0000   1.0000   1.0000   1.0000   1.0000   1.0000   1.0000
     1.0000   1.0000   1.0000   1.0000   1.0000   1.0000   1.0000   1.0000
     1.0000   1.0000   1.0000   1.0000   1.0000   1.0000   1.0000   1.0000
     1.0000   1.0000   1.0000   1.0000   1.0000   1.0000   1.0000   1.0000
     0.0000   0.0000   0.0000   0.0000   0.0000   0.0000   0.0000   0.0000
     0.0000   0.0000

          k = 0.0000 0.3395 0.9605 ( 17228 PWs)   bands (ev):

   -13.2594 -13.2563 -13.2525 -13.2502 -13.2482 -13.2477 -13.2459 -13.2451
   -13.2327 -13.2295 -13.2216 -13.2199 -13.2164 -13.2136 -13.1946 -13.1906
   -13.1905 -13.1881 -13.1731 -13.1700  -5.1486  -4.8534  -4.6860  -4.3714
     0.0322   0.6568   1.3980   1.8169   3.8841   4.4965   4.6560   5.5444
     5.6619   5.7697   6.3455   6.6565   7.2827   7.2897   7.6418   7.6518
     9.2332   9.4884   9.5345   9.8940  10.6655  10.8050  11.1002  11.7989
    12.2169  12.5110

     occupation numbers 
     1.0000   1.0000   1.0000   1.0000   1.0000   1.0000   1.0000   1.0000
     1.0000   1.0000   1.0000   1.0000   1.0000   1.0000   1.0000   1.0000
     1.0000   1.0000   1.0000   1.0000   1.0000   1.0000   1.0000   1.0000
     1.0000   1.0000   1.0000   1.0000   1.0000   1.0000   1.0000   1.0000
     1.0000   1.0000   1.0000   1.0000   1.0000   1.0000   1.0000   1.0000
     0.0000   0.0000   0.0000   0.0000   0.0000   0.0000   0.0000   0.0000
     0.0000   0.0000

          k = 0.0000 0.3395-1.2807 ( 17232 PWs)   bands (ev):

   -13.2580 -13.2580 -13.2516 -13.2516 -13.2483 -13.2483 -13.2456 -13.2456
   -13.2309 -13.2309 -13.2182 -13.2182 -13.2160 -13.2160 -13.1927 -13.1927
   -13.1893 -13.1893 -13.1715 -13.1715  -4.8771  -4.8771  -4.5897  -4.5897
     0.1720   0.1720   1.4966   1.4966   4.3651   4.3651   5.1509   5.1509
     5.5775   5.5775   6.5004   6.5004   7.4169   7.4169   7.6352   7.6352
     9.2060   9.2060   9.6717   9.6717  10.9057  10.9057  11.2608  11.2608
    11.9638  11.9638

     occupation numbers 
     1.0000   1.0000   1.0000   1.0000   1.0000   1.0000   1.0000   1.0000
     1.0000   1.0000   1.0000   1.0000   1.0000   1.0000   1.0000   1.0000
     1.0000   1.0000   1.0000   1.0000   1.0000   1.0000   1.0000   1.0000
     1.0000   1.0000   1.0000   1.0000   1.0000   1.0000   1.0000   1.0000
     1.0000   1.0000   1.0000   1.0000   1.0000   1.0000   1.0000   1.0000
     0.0000   0.0000   0.0000   0.0000   0.0000   0.0000   0.0000   0.0000
     0.0000   0.0000

          k = 0.0000 0.6790 0.0000 ( 17217 PWs)   bands (ev):

   -13.2551 -13.2550 -13.2536 -13.2506 -13.2471 -13.2443 -13.2436 -13.2421
   -13.2373 -13.2317 -13.2288 -13.2243 -13.2141 -13.2120 -13.1962 -13.1915
   -13.1913 -13.1833 -13.1757 -13.1708  -5.4247  -5.1291  -4.5465  -4.2126
     0.4198   1.2442   1.7287   2.0624   3.4075   4.7906   5.1851   5.2474
     5.2638   5.5737   6.3276   6.4301   6.6179   7.2686   7.3914   7.8469
     9.0580   9.2944  10.3967  10.5656  10.5959  11.1918  11.2018  11.8950
    12.6248  12.7632

     occupation numbers 
     1.0000   1.0000   1.0000   1.0000   1.0000   1.0000   1.0000   1.0000
     1.0000   1.0000   1.0000   1.0000   1.0000   1.0000   1.0000   1.0000
     1.0000   1.0000   1.0000   1.0000   1.0000   1.0000   1.0000   1.0000
     1.0000   1.0000   1.0000   1.0000   1.0000   1.0000   1.0000   1.0000
     1.0000   1.0000   1.0000   1.0000   1.0000   1.0000   1.0000   1.0000
     0.0000   0.0000   0.0000   0.0000   0.0000   0.0000   0.0000   0.0000
     0.0000   0.0000

          k = 0.0000 0.6790 0.3202 ( 17219 PWs)   bands (ev):

   -13.2579 -13.2548 -13.2532 -13.2515 -13.2467 -13.2442 -13.2436 -13.2421
   -13.2366 -13.2316 -13.2275 -13.2230 -13.2149 -13.2113 -13.1960 -13.1916
   -13.1912 -13.1839 -13.1754 -13.1709  -5.3636  -5.0743  -4.5349  -4.2164
     0.3945   1.2994   1.6974   1.9551   3.4902   4.1164   4.4352   5.2956
     5.7942   5.9259   5.9951   6.3334   6.9702   7.3029   7.4205   7.6282
     9.3051   9.4117   9.7905   9.9367  11.0855  11.1098  11.7144  12.0506
    12.6724  12.8183

     occupation numbers 
     1.0000   1.0000   1.0000   1.0000   1.0000   1.0000   1.0000   1.0000
     1.0000   1.0000   1.0000   1.0000   1.0000   1.0000   1.0000   1.0000
     1.0000   1.0000   1.0000   1.0000   1.0000   1.0000   1.0000   1.0000
     1.0000   1.0000   1.0000   1.0000   1.0000   1.0000   1.0000   1.0000
     1.0000   1.0000   1.0000   1.0000   1.0000   1.0000   1.0000   1.0000
     0.0000   0.0000   0.0000   0.0000   0.0000   0.0000   0.0000   0.0000
     0.0000   0.0000

          k = 0.0000 0.6790 0.6403 ( 17239 PWs)   bands (ev):

   -13.2612 -13.2579 -13.2535 -13.2530 -13.2468 -13.2438 -13.2423 -13.2421
   -13.2350 -13.2316 -13.2242 -13.2199 -13.2156 -13.2108 -13.1952 -13.1919
   -13.1908 -13.1852 -13.1747 -13.1711  -5.1935  -4.9223  -4.5241  -4.2437
     0.3285   1.3832   1.4230   1.8482   3.6295   3.7297   3.9087   5.0000
     5.1896   6.0283   6.0372   6.5383   6.7364   7.1466   7.2601   7.4694
     9.0651   9.5829  10.2865  10.6305  10.8250  11.3075  11.5566  12.6036
    13.0028  13.0296

     occupation numbers 
     1.0000   1.0000   1.0000   1.0000   1.0000   1.0000   1.0000   1.0000
     1.0000   1.0000   1.0000   1.0000   1.0000   1.0000   1.0000   1.0000
     1.0000   1.0000   1.0000   1.0000   1.0000   1.0000   1.0000   1.0000
     1.0000   1.0000   1.0000   1.0000   1.0000   1.0000   1.0000   1.0000
     1.0000   1.0000   1.0000   1.0000   1.0000   1.0000   1.0000   1.0000
     0.0000   0.0000   0.0000   0.0000   0.0000   0.0000   0.0000   0.0000
     0.0000   0.0000

          k = 0.0000 0.6790 0.9605 ( 17237 PWs)   bands (ev):

   -13.2635 -13.2615 -13.2554 -13.2547 -13.2460 -13.2429 -13.2425 -13.2415
   -13.2334 -13.2318 -13.2204 -13.2162 -13.2161 -13.2114 -13.1942 -13.1924
   -13.1898 -13.1867 -13.1736 -13.1717  -4.9570  -4.7096  -4.5727  -4.3294
     0.3069   0.8750   1.5297   1.7568   3.5958   3.8631   4.0353   4.6907
     4.8857   5.5822   5.5962   6.2624   6.4211   6.9375   7.0741   7.4811
     8.9942  10.2514  10.4569  11.3371  11.4139  11.5871  11.8722  12.8197
    12.8741  13.1547

     occupation numbers 
     1.0000   1.0000   1.0000   1.0000   1.0000   1.0000   1.0000   1.0000
     1.0000   1.0000   1.0000   1.0000   1.0000   1.0000   1.0000   1.0000
     1.0000   1.0000   1.0000   1.0000   1.0000   1.0000   1.0000   1.0000
     1.0000   1.0000   1.0000   1.0000   1.0000   1.0000   1.0000   1.0000
     1.0000   1.0000   1.0000   1.0000   1.0000   1.0000   1.0000   1.0000
     0.0000   0.0000   0.0000   0.0000   0.0000   0.0000   0.0000   0.0000
     0.0000   0.0000

          k = 0.0000 0.6790-1.2807 ( 17268 PWs)   bands (ev):

   -13.2636 -13.2636 -13.2560 -13.2560 -13.2444 -13.2444 -13.2416 -13.2416
   -13.2323 -13.2323 -13.2175 -13.2175 -13.2132 -13.2132 -13.1932 -13.1932
   -13.1883 -13.1883 -13.1725 -13.1725  -4.7250  -4.7250  -4.4929  -4.4929
     0.4746   0.4746   1.6288   1.6288   3.9331   3.9331   4.1975   4.1975
     5.0403   5.0403   5.7290   5.7290   6.6114   6.6114   7.2058   7.2058
     9.6184   9.6184  11.0553  11.0553  12.0448  12.0448  12.5620  12.5620
    12.8534  12.8534

     occupation numbers 
     1.0000   1.0000   1.0000   1.0000   1.0000   1.0000   1.0000   1.0000
     1.0000   1.0000   1.0000   1.0000   1.0000   1.0000   1.0000   1.0000
     1.0000   1.0000   1.0000   1.0000   1.0000   1.0000   1.0000   1.0000
     1.0000   1.0000   1.0000   1.0000   1.0000   1.0000   1.0000   1.0000
     1.0000   1.0000   1.0000   1.0000   1.0000   1.0000   1.0000   1.0000
     0.0000   0.0000   0.0000   0.0000   0.0000   0.0000   0.0000   0.0000
     0.0000   0.0000

          k = 0.0000 1.0186 0.0000 ( 17178 PWs)   bands (ev):

   -13.2588 -13.2564 -13.2558 -13.2530 -13.2424 -13.2423 -13.2412 -13.2371
   -13.2340 -13.2328 -13.2280 -13.2186 -13.2171 -13.2080 -13.2001 -13.1999
   -13.1855 -13.1798 -13.1756 -13.1747  -5.0714  -4.8609  -4.5143  -4.3752
     0.2265   0.8956   0.9608   1.4890   3.8794   4.9583   5.3818   5.5618
     5.6999   5.8430   6.2704   6.5702   6.9859   7.2213   7.2708   7.6280
     8.8519   9.5661   9.5825   9.6622   9.9256  10.3481  10.5301  11.2637
    11.5971  11.9943

     occupation numbers 
     1.0000   1.0000   1.0000   1.0000   1.0000   1.0000   1.0000   1.0000
     1.0000   1.0000   1.0000   1.0000   1.0000   1.0000   1.0000   1.0000
     1.0000   1.0000   1.0000   1.0000   1.0000   1.0000   1.0000   1.0000
     1.0000   1.0000   1.0000   1.0000   1.0000   1.0000   1.0000   1.0000
     1.0000   1.0000   1.0000   1.0000   1.0000   1.0000   1.0000   1.0000
     0.0000   0.0000   0.0000   0.0000   0.0000   0.0000   0.0000   0.0000
     0.0000   0.0000

          k = 0.0000 1.0186 0.3202 ( 17207 PWs)   bands (ev):

   -13.2608 -13.2585 -13.2565 -13.2544 -13.2430 -13.2407 -13.2405 -13.2367
   -13.2331 -13.2325 -13.2270 -13.2185 -13.2165 -13.2083 -13.1997 -13.1993
   -13.1855 -13.1804 -13.1754 -13.1744  -5.0200  -4.8162  -4.4964  -4.3613
     0.2929   0.9653   1.0430   1.4815   3.9442   4.3138   4.6359   5.4175
     5.6567   5.6824   6.3301   6.4234   6.7055   7.1231   7.3357   7.4661
     9.1886   9.2007   9.4360   9.8011  10.8157  10.9203  11.1794  11.3971
    12.1986  12.6500

     occupation numbers 
     1.0000   1.0000   1.0000   1.0000   1.0000   1.0000   1.0000   1.0000
     1.0000   1.0000   1.0000   1.0000   1.0000   1.0000   1.0000   1.0000
     1.0000   1.0000   1.0000   1.0000   1.0000   1.0000   1.0000   1.0000
     1.0000   1.0000   1.0000   1.0000   1.0000   1.0000   1.0000   1.0000
     1.0000   1.0000   1.0000   1.0000   1.0000   1.0000   1.0000   1.0000
     0.0000   0.0000   0.0000   0.0000   0.0000   0.0000   0.0000   0.0000
     0.0000   0.0000

          k = 0.0000 1.0186 0.6403 ( 17248 PWs)   bands (ev):

   -13.2651 -13.2629 -13.2590 -13.2576 -13.2425 -13.2398 -13.2382 -13.2360
   -13.2319 -13.2317 -13.2244 -13.2183 -13.2148 -13.2090 -13.1986 -13.1980
   -13.1855 -13.1816 -13.1749 -13.1739  -4.8812  -4.6964  -4.4624  -4.3358
     0.4690   1.1273   1.2668   1.4461   3.5169   3.9367   4.0917   4.6048
     4.9550   5.6178   5.6645   5.9853   6.3944   6.5226   7.0772   7.4365
     8.8906  10.2459  10.2807  10.9800  11.3397  11.6792  12.2692  12.4575
    12.6570  12.7654

     occupation numbers 
     1.0000   1.0000   1.0000   1.0000   1.0000   1.0000   1.0000   1.0000
     1.0000   1.0000   1.0000   1.0000   1.0000   1.0000   1.0000   1.0000
     1.0000   1.0000   1.0000   1.0000   1.0000   1.0000   1.0000   1.0000
     1.0000   1.0000   1.0000   1.0000   1.0000   1.0000   1.0000   1.0000
     1.0000   1.0000   1.0000   1.0000   1.0000   1.0000   1.0000   1.0000
     0.0000   0.0000   0.0000   0.0000   0.0000   0.0000   0.0000   0.0000
     0.0000   0.0000

          k = 0.0000 1.0186 0.9605 ( 17252 PWs)   bands (ev):

   -13.2688 -13.2674 -13.2616 -13.2610 -13.2416 -13.2397 -13.2363 -13.2354
   -13.2311 -13.2307 -13.2215 -13.2182 -13.2126 -13.2097 -13.1975 -13.1970
   -13.1849 -13.1827 -13.1742 -13.1736  -4.6998  -4.5418  -4.4621  -4.3392
     0.6917   1.1183   1.5226   1.5344   3.1262   3.5832   3.8179   4.0848
     4.6695   5.0166   5.0674   5.6577   5.9372   6.1536   6.9221   6.9557
     9.5039  10.9615  11.2444  11.3531  12.3095  12.3727  12.6225  12.9602
    13.0945  13.2592

     occupation numbers 
     1.0000   1.0000   1.0000   1.0000   1.0000   1.0000   1.0000   1.0000
     1.0000   1.0000   1.0000   1.0000   1.0000   1.0000   1.0000   1.0000
     1.0000   1.0000   1.0000   1.0000   1.0000   1.0000   1.0000   1.0000
     1.0000   1.0000   1.0000   1.0000   1.0000   1.0000   1.0000   1.0000
     1.0000   1.0000   1.0000   1.0000   1.0000   1.0000   1.0000   1.0000
     0.0000   0.0000   0.0000   0.0000   0.0000   0.0000   0.0000   0.0000
     0.0000   0.0000

          k = 0.0000 1.0186-1.2807 ( 17260 PWs)   bands (ev):

   -13.2697 -13.2697 -13.2625 -13.2625 -13.2405 -13.2405 -13.2355 -13.2355
   -13.2305 -13.2305 -13.2193 -13.2193 -13.2107 -13.2107 -13.1968 -13.1968
   -13.1838 -13.1838 -13.1737 -13.1737  -4.5420  -4.5420  -4.4083  -4.4083
     0.9130   0.9130   1.6412   1.6412   3.2552   3.2552   3.7434   3.7434
     4.5805   4.5805   5.3351   5.3351   5.8411   5.8411   6.8292   6.8292
    10.2668  10.2668  11.6645  11.6645  12.7731  12.7731  13.0095  13.0095
    13.2118  13.2118

     occupation numbers 
     1.0000   1.0000   1.0000   1.0000   1.0000   1.0000   1.0000   1.0000
     1.0000   1.0000   1.0000   1.0000   1.0000   1.0000   1.0000   1.0000
     1.0000   1.0000   1.0000   1.0000   1.0000   1.0000   1.0000   1.0000
     1.0000   1.0000   1.0000   1.0000   1.0000   1.0000   1.0000   1.0000
     1.0000   1.0000   1.0000   1.0000   1.0000   1.0000   1.0000   1.0000
     0.0000   0.0000   0.0000   0.0000   0.0000   0.0000   0.0000   0.0000
     0.0000   0.0000

          k = 0.0000-1.3581 0.0000 ( 17162 PWs)   bands (ev):

   -13.2595 -13.2595 -13.2556 -13.2556 -13.2405 -13.2405 -13.2387 -13.2387
   -13.2294 -13.2294 -13.2258 -13.2258 -13.2089 -13.2089 -13.2041 -13.2041
   -13.1796 -13.1796 -13.1769 -13.1769  -4.6851  -4.6851  -4.6217  -4.6217
     0.3592   0.3592   1.0558   1.0558   4.4829   4.4829   5.8483   5.8483
     5.8634   5.8634   6.3752   6.3752   7.1063   7.1063   7.3064   7.3064
     9.1103   9.1103   9.5450   9.5450   9.8204   9.8204  10.6268  10.6268
    11.3363  11.3363

     occupation numbers 
     1.0000   1.0000   1.0000   1.0000   1.0000   1.0000   1.0000   1.0000
     1.0000   1.0000   1.0000   1.0000   1.0000   1.0000   1.0000   1.0000
     1.0000   1.0000   1.0000   1.0000   1.0000   1.0000   1.0000   1.0000
     1.0000   1.0000   1.0000   1.0000   1.0000   1.0000   1.0000   1.0000
     1.0000   1.0000   1.0000   1.0000   1.0000   1.0000   1.0000   1.0000
     0.0000   0.0000   0.0000   0.0000   0.0000   0.0000   0.0000   0.0000
     0.0000   0.0000

          k = 0.0000-1.3581 0.3202 ( 17200 PWs)   bands (ev):

   -13.2615 -13.2615 -13.2569 -13.2569 -13.2405 -13.2405 -13.2376 -13.2376
   -13.2292 -13.2292 -13.2250 -13.2250 -13.2095 -13.2095 -13.2029 -13.2029
   -13.1801 -13.1801 -13.1764 -13.1764  -4.6503  -4.6503  -4.5911  -4.5911
     0.4518   0.4518   1.1134   1.1134   4.4265   4.4265   4.9867   4.9867
     5.5627   5.5627   6.4634   6.4634   6.7101   6.7101   7.4336   7.4336
     8.9526   8.9526   9.7731   9.7731  10.6422  10.6422  11.3865  11.3865
    11.8555  11.8555

     occupation numbers 
     1.0000   1.0000   1.0000   1.0000   1.0000   1.0000   1.0000   1.0000
     1.0000   1.0000   1.0000   1.0000   1.0000   1.0000   1.0000   1.0000
     1.0000   1.0000   1.0000   1.0000   1.0000   1.0000   1.0000   1.0000
     1.0000   1.0000   1.0000   1.0000   1.0000   1.0000   1.0000   1.0000
     1.0000   1.0000   1.0000   1.0000   1.0000   1.0000   1.0000   1.0000
     0.0000   0.0000   0.0000   0.0000   0.0000   0.0000   0.0000   0.0000
     0.0000   0.0000

          k = 0.0000-1.3581 0.6403 ( 17266 PWs)   bands (ev):

   -13.2661 -13.2661 -13.2603 -13.2603 -13.2401 -13.2401 -13.2355 -13.2355
   -13.2285 -13.2285 -13.2234 -13.2234 -13.2101 -13.2101 -13.2008 -13.2008
   -13.1809 -13.1809 -13.1756 -13.1756  -4.5625  -4.5625  -4.5157  -4.5157
     0.7132   0.7132   1.2581   1.2581   3.9046   3.9046   4.2930   4.2930
     5.0675   5.0675   5.7322   5.7322   6.1378   6.1378   7.1988   7.1988
     9.4523   9.4523  11.0076  11.0076  11.9092  11.9092  12.2320  12.2320
    12.6159  12.6159

     occupation numbers 
     1.0000   1.0000   1.0000   1.0000   1.0000   1.0000   1.0000   1.0000
     1.0000   1.0000   1.0000   1.0000   1.0000   1.0000   1.0000   1.0000
     1.0000   1.0000   1.0000   1.0000   1.0000   1.0000   1.0000   1.0000
     1.0000   1.0000   1.0000   1.0000   1.0000   1.0000   1.0000   1.0000
     1.0000   1.0000   1.0000   1.0000   1.0000   1.0000   1.0000   1.0000
     0.0000   0.0000   0.0000   0.0000   0.0000   0.0000   0.0000   0.0000
     0.0000   0.0000

          k = 0.0000-1.3581 0.9605 ( 17228 PWs)   bands (ev):

   -13.2705 -13.2705 -13.2637 -13.2637 -13.2398 -13.2398 -13.2338 -13.2338
   -13.2278 -13.2278 -13.2221 -13.2221 -13.2098 -13.2098 -13.1991 -13.1991
   -13.1812 -13.1812 -13.1750 -13.1750  -4.4670  -4.4670  -4.4398  -4.4398
     1.0701   1.0701   1.4022   1.4022   3.2697   3.2697   3.8267   3.8267
     4.5570   4.5570   5.3420   5.3420   5.7133   5.7133   6.8215   6.8215
    10.2920  10.2920  11.5278  11.5278  12.6423  12.6423  12.8358  12.8358
    13.1695  13.1695

     occupation numbers 
     1.0000   1.0000   1.0000   1.0000   1.0000   1.0000   1.0000   1.0000
     1.0000   1.0000   1.0000   1.0000   1.0000   1.0000   1.0000   1.0000
     1.0000   1.0000   1.0000   1.0000   1.0000   1.0000   1.0000   1.0000
     1.0000   1.0000   1.0000   1.0000   1.0000   1.0000   1.0000   1.0000
     1.0000   1.0000   1.0000   1.0000   1.0000   1.0000   1.0000   1.0000
     0.0000   0.0000   0.0000   0.0000   0.0000   0.0000   0.0000   0.0000
     0.0000   0.0000

          k = 0.0000-1.3581-1.2807 ( 17228 PWs)   bands (ev):

   -13.2723 -13.2723 -13.2651 -13.2651 -13.2397 -13.2397 -13.2331 -13.2331
   -13.2274 -13.2274 -13.2217 -13.2217 -13.2095 -13.2095 -13.1985 -13.1985
   -13.1812 -13.1812 -13.1748 -13.1748  -4.4214  -4.4214  -4.4116  -4.4116
     1.2900   1.2900   1.4402   1.4402   3.0373   3.0373   3.5527   3.5527
     4.4675   4.4675   4.9487   4.9487   5.7999   5.7999   6.6411   6.6411
    10.8667  10.8667  11.1738  11.1738  12.8441  12.8441  12.9765  12.9765
    13.7121  13.7121

     occupation numbers 
     1.0000   1.0000   1.0000   1.0000   1.0000   1.0000   1.0000   1.0000
     1.0000   1.0000   1.0000   1.0000   1.0000   1.0000   1.0000   1.0000
     1.0000   1.0000   1.0000   1.0000   1.0000   1.0000   1.0000   1.0000
     1.0000   1.0000   1.0000   1.0000   1.0000   1.0000   1.0000   1.0000
     1.0000   1.0000   1.0000   1.0000   1.0000   1.0000   1.0000   1.0000
     0.0000   0.0000   0.0000   0.0000   0.0000   0.0000   0.0000   0.0000
     0.0000   0.0000

          k = 0.3333 0.0000 0.0000 ( 17261 PWs)   bands (ev):

   -13.2639 -13.2579 -13.2522 -13.2504 -13.2489 -13.2471 -13.2408 -13.2389
   -13.2327 -13.2327 -13.2325 -13.2281 -13.2166 -13.2132 -13.1960 -13.1937
   -13.1865 -13.1847 -13.1732 -13.1685  -5.6838  -5.5184  -4.5052  -4.2648
     0.9613   1.4153   2.9565   3.0515   3.5846   4.3858   4.7495   4.9333
     4.9843   5.3931   6.0546   6.1285   6.1485   6.3924   7.4738   7.5626
    10.0728  10.7130  10.8031  11.2447  11.5918  11.7133  12.0113  12.3242
    12.9917  13.0548

     occupation numbers 
     1.0000   1.0000   1.0000   1.0000   1.0000   1.0000   1.0000   1.0000
     1.0000   1.0000   1.0000   1.0000   1.0000   1.0000   1.0000   1.0000
     1.0000   1.0000   1.0000   1.0000   1.0000   1.0000   1.0000   1.0000
     1.0000   1.0000   1.0000   1.0000   1.0000   1.0000   1.0000   1.0000
     1.0000   1.0000   1.0000   1.0000   1.0000   1.0000   1.0000   1.0000
     0.0000   0.0000   0.0000   0.0000   0.0000   0.0000   0.0000   0.0000
     0.0000   0.0000

          k = 0.3333 0.0000 0.3202 ( 17240 PWs)   bands (ev):

   -13.2632 -13.2574 -13.2515 -13.2498 -13.2496 -13.2479 -13.2416 -13.2396
   -13.2322 -13.2315 -13.2307 -13.2280 -13.2165 -13.2135 -13.1960 -13.1935
   -13.1869 -13.1851 -13.1730 -13.1687  -5.6180  -5.4555  -4.5020  -4.2750
     0.7491   1.2343   2.5483   2.7665   3.6868   4.5700   4.8505   5.0808
     5.1475   5.5637   6.1138   6.2610   6.4351   6.6092   7.3666   7.5515
    10.0271  10.5410  10.9475  11.1488  11.1853  11.3811  11.5899  12.1838
    12.8258  12.9464

     occupation numbers 
     1.0000   1.0000   1.0000   1.0000   1.0000   1.0000   1.0000   1.0000
     1.0000   1.0000   1.0000   1.0000   1.0000   1.0000   1.0000   1.0000
     1.0000   1.0000   1.0000   1.0000   1.0000   1.0000   1.0000   1.0000
     1.0000   1.0000   1.0000   1.0000   1.0000   1.0000   1.0000   1.0000
     1.0000   1.0000   1.0000   1.0000   1.0000   1.0000   1.0000   1.0000
     0.0000   0.0000   0.0000   0.0000   0.0000   0.0000   0.0000   0.0000
     0.0000   0.0000

          k = 0.3333 0.0000 0.6403 ( 17237 PWs)   bands (ev):

   -13.2612 -13.2564 -13.2513 -13.2503 -13.2498 -13.2487 -13.2433 -13.2415
   -13.2311 -13.2279 -13.2277 -13.2265 -13.2162 -13.2143 -13.1958 -13.1930
   -13.1880 -13.1862 -13.1725 -13.1693  -5.4325  -5.2794  -4.5167  -4.3246
     0.3448   0.8277   1.8541   2.1864   3.9244   4.8989   5.1388   5.3541
     5.5857   5.8967   6.2459   6.5150   6.7717   7.0569   7.3340   7.6195
     9.7214  10.1139  10.3333  10.5288  10.7732  10.8050  11.2569  12.0402
    12.1235  12.5333

     occupation numbers 
     1.0000   1.0000   1.0000   1.0000   1.0000   1.0000   1.0000   1.0000
     1.0000   1.0000   1.0000   1.0000   1.0000   1.0000   1.0000   1.0000
     1.0000   1.0000   1.0000   1.0000   1.0000   1.0000   1.0000   1.0000
     1.0000   1.0000   1.0000   1.0000   1.0000   1.0000   1.0000   1.0000
     1.0000   1.0000   1.0000   1.0000   1.0000   1.0000   1.0000   1.0000
     0.0000   0.0000   0.0000   0.0000   0.0000   0.0000   0.0000   0.0000
     0.0000   0.0000

          k = 0.3333 0.0000 0.9605 ( 17233 PWs)   bands (ev):

   -13.2586 -13.2557 -13.2528 -13.2520 -13.2493 -13.2481 -13.2447 -13.2436
   -13.2298 -13.2281 -13.2228 -13.2219 -13.2167 -13.2157 -13.1950 -13.1929
   -13.1888 -13.1875 -13.1718 -13.1701  -5.1692  -5.0359  -4.5983  -4.4514
     0.0847   0.4163   1.3621   1.6218   4.3339   5.2098   5.5583   5.6118
     5.7407   6.2043   6.3040   6.4916   7.0315   7.1953   7.8023   7.9724
     9.1590   9.5158   9.7533  10.0291  10.0846  10.4844  10.8679  11.2981
    11.6469  11.7675

     occupation numbers 
     1.0000   1.0000   1.0000   1.0000   1.0000   1.0000   1.0000   1.0000
     1.0000   1.0000   1.0000   1.0000   1.0000   1.0000   1.0000   1.0000
     1.0000   1.0000   1.0000   1.0000   1.0000   1.0000   1.0000   1.0000
     1.0000   1.0000   1.0000   1.0000   1.0000   1.0000   1.0000   1.0000
     1.0000   1.0000   1.0000   1.0000   1.0000   1.0000   1.0000   1.0000
     0.0000   0.0000   0.0000   0.0000   0.0000   0.0000   0.0000   0.0000
     0.0000   0.0000

          k = 0.3333 0.0000-1.2807 ( 17188 PWs)   bands (ev):

   -13.2564 -13.2564 -13.2531 -13.2531 -13.2485 -13.2485 -13.2449 -13.2449
   -13.2287 -13.2287 -13.2187 -13.2187 -13.2182 -13.2182 -13.1938 -13.1938
   -13.1885 -13.1885 -13.1710 -13.1710  -4.9326  -4.9326  -4.6335  -4.6335
     0.1242   0.1242   1.2938   1.2938   4.8620   4.8620   5.9210   5.9210
     5.9369   5.9369   6.2896   6.2896   7.4880   7.4880   7.8280   7.8280
     9.2567   9.2567   9.6987   9.6987   9.8292   9.8292  11.1460  11.1460
    11.2301  11.2301

     occupation numbers 
     1.0000   1.0000   1.0000   1.0000   1.0000   1.0000   1.0000   1.0000
     1.0000   1.0000   1.0000   1.0000   1.0000   1.0000   1.0000   1.0000
     1.0000   1.0000   1.0000   1.0000   1.0000   1.0000   1.0000   1.0000
     1.0000   1.0000   1.0000   1.0000   1.0000   1.0000   1.0000   1.0000
     1.0000   1.0000   1.0000   1.0000   1.0000   1.0000   1.0000   1.0000
     0.0000   0.0000   0.0000   0.0000   0.0000   0.0000   0.0000   0.0000
     0.0000   0.0000

          k = 0.3333 0.3395 0.0000 ( 17223 PWs)   bands (ev):

   -13.2608 -13.2556 -13.2503 -13.2502 -13.2488 -13.2488 -13.2429 -13.2407
   -13.2347 -13.2313 -13.2297 -13.2294 -13.2152 -13.2132 -13.1947 -13.1935
   -13.1864 -13.1861 -13.1736 -13.1696  -5.6018  -5.4420  -4.4797  -4.2593
     0.8381   1.2681   2.6452   2.6586   3.6465   4.4773   4.6990   4.9822
     5.2108   5.5047   6.0514   6.1853   6.4020   6.4659   7.5224   7.5597
    10.1505  10.5901  10.9286  11.0240  11.2596  11.4530  11.5296  12.1895
    12.8250  13.1020

     occupation numbers 
     1.0000   1.0000   1.0000   1.0000   1.0000   1.0000   1.0000   1.0000
     1.0000   1.0000   1.0000   1.0000   1.0000   1.0000   1.0000   1.0000
     1.0000   1.0000   1.0000   1.0000   1.0000   1.0000   1.0000   1.0000
     1.0000   1.0000   1.0000   1.0000   1.0000   1.0000   1.0000   1.0000
     1.0000   1.0000   1.0000   1.0000   1.0000   1.0000   1.0000   1.0000
     0.0000   0.0000   0.0000   0.0000   0.0000   0.0000   0.0000   0.0000
     0.0000   0.0000

          k = 0.3333 0.3395 0.3202 ( 17223 PWs)   bands (ev):

   -13.2603 -13.2554 -13.2511 -13.2496 -13.2494 -13.2482 -13.2436 -13.2416
   -13.2342 -13.2305 -13.2285 -13.2283 -13.2152 -13.2133 -13.1947 -13.1932
   -13.1870 -13.1866 -13.1734 -13.1697  -5.5373  -5.3807  -4.4757  -4.2673
     0.6946   1.1605   2.3588   2.5017   3.7355   4.3549   4.6038   4.9379
     5.4540   5.8135   5.8909   6.0529   6.7979   7.0199   7.4310   7.5785
     9.9538  10.1124  10.5205  10.9573  11.1360  11.3800  11.7752  12.1904
    12.4154  12.7045

     occupation numbers 
     1.0000   1.0000   1.0000   1.0000   1.0000   1.0000   1.0000   1.0000
     1.0000   1.0000   1.0000   1.0000   1.0000   1.0000   1.0000   1.0000
     1.0000   1.0000   1.0000   1.0000   1.0000   1.0000   1.0000   1.0000
     1.0000   1.0000   1.0000   1.0000   1.0000   1.0000   1.0000   1.0000
     1.0000   1.0000   1.0000   1.0000   1.0000   1.0000   1.0000   1.0000
     0.0000   0.0000   0.0000   0.0000   0.0000   0.0000   0.0000   0.0000
     0.0000   0.0000

          k = 0.3333 0.3395 0.6403 ( 17217 PWs)   bands (ev):

   -13.2592 -13.2550 -13.2532 -13.2512 -13.2480 -13.2471 -13.2449 -13.2436
   -13.2329 -13.2299 -13.2252 -13.2247 -13.2153 -13.2136 -13.1945 -13.1925
   -13.1883 -13.1877 -13.1728 -13.1700  -5.3563  -5.2092  -4.4870  -4.3098
     0.3901   0.8647   1.8234   2.0991   3.9576   4.3293   4.5780   5.2596
     5.4034   5.7514   6.3100   6.4513   7.1554   7.2430   7.4161   7.5901
     9.5949   9.6825  10.1409  10.4803  10.7802  11.2047  11.6104  11.7232
    12.4015  12.5418

     occupation numbers 
     1.0000   1.0000   1.0000   1.0000   1.0000   1.0000   1.0000   1.0000
     1.0000   1.0000   1.0000   1.0000   1.0000   1.0000   1.0000   1.0000
     1.0000   1.0000   1.0000   1.0000   1.0000   1.0000   1.0000   1.0000
     1.0000   1.0000   1.0000   1.0000   1.0000   1.0000   1.0000   1.0000
     1.0000   1.0000   1.0000   1.0000   1.0000   1.0000   1.0000   1.0000
     0.0000   0.0000   0.0000   0.0000   0.0000   0.0000   0.0000   0.0000
     0.0000   0.0000

          k = 0.3333 0.3395 0.9605 ( 17238 PWs)   bands (ev):

   -13.2580 -13.2557 -13.2544 -13.2528 -13.2472 -13.2466 -13.2459 -13.2450
   -13.2316 -13.2300 -13.2212 -13.2203 -13.2159 -13.2145 -13.1936 -13.1917
   -13.1900 -13.1890 -13.1721 -13.1706  -5.1013  -4.9742  -4.5608  -4.4240
     0.1795   0.5030   1.4203   1.6494   4.2954   4.5889   4.8800   5.2979
     5.5517   5.7438   6.1143   6.5536   7.1160   7.2864   7.4840   7.5902
     9.4305   9.7737   9.8913  10.1512  10.6045  10.9835  11.0917  11.3456
    12.3064  12.4336

     occupation numbers 
     1.0000   1.0000   1.0000   1.0000   1.0000   1.0000   1.0000   1.0000
     1.0000   1.0000   1.0000   1.0000   1.0000   1.0000   1.0000   1.0000
     1.0000   1.0000   1.0000   1.0000   1.0000   1.0000   1.0000   1.0000
     1.0000   1.0000   1.0000   1.0000   1.0000   1.0000   1.0000   1.0000
     1.0000   1.0000   1.0000   1.0000   1.0000   1.0000   1.0000   1.0000
     0.0000   0.0000   0.0000   0.0000   0.0000   0.0000   0.0000   0.0000
     0.0000   0.0000

          k = 0.3333 0.3395-1.2807 ( 17244 PWs)   bands (ev):

   -13.2571 -13.2571 -13.2538 -13.2538 -13.2470 -13.2470 -13.2456 -13.2456
   -13.2306 -13.2306 -13.2182 -13.2182 -13.2162 -13.2162 -13.1923 -13.1923
   -13.1901 -13.1901 -13.1713 -13.1713  -4.8749  -4.8749  -4.5928  -4.5928
     0.2262   0.2262   1.3682   1.3682   4.6997   4.6997   5.1585   5.1585
     5.5478   5.5478   6.2259   6.2259   7.2131   7.2131   7.5423   7.5423
     9.5953   9.5953   9.9516   9.9516  10.6564  10.6564  11.2774  11.2774
    12.0569  12.0569

     occupation numbers 
     1.0000   1.0000   1.0000   1.0000   1.0000   1.0000   1.0000   1.0000
     1.0000   1.0000   1.0000   1.0000   1.0000   1.0000   1.0000   1.0000
     1.0000   1.0000   1.0000   1.0000   1.0000   1.0000   1.0000   1.0000
     1.0000   1.0000   1.0000   1.0000   1.0000   1.0000   1.0000   1.0000
     1.0000   1.0000   1.0000   1.0000   1.0000   1.0000   1.0000   1.0000
     0.0000   0.0000   0.0000   0.0000   0.0000   0.0000   0.0000   0.0000
     0.0000   0.0000

          k = 0.3333 0.6790 0.0000 ( 17179 PWs)   bands (ev):

   -13.2558 -13.2556 -13.2516 -13.2503 -13.2461 -13.2451 -13.2440 -13.2438
   -13.2356 -13.2329 -13.2276 -13.2254 -13.2135 -13.2125 -13.1955 -13.1939
   -13.1880 -13.1847 -13.1744 -13.1720  -5.3690  -5.2285  -4.4364  -4.2769
     0.5576   0.9372   1.8209   2.0060   3.8850   4.7499   4.8893   5.1270
     5.5232   5.7664   6.1779   6.3056   6.4679   6.7988   7.5025   7.7015
     9.3637  10.0132  10.3872  10.5538  10.7480  11.2859  11.3454  11.9448
    12.3031  12.3543

     occupation numbers 
     1.0000   1.0000   1.0000   1.0000   1.0000   1.0000   1.0000   1.0000
     1.0000   1.0000   1.0000   1.0000   1.0000   1.0000   1.0000   1.0000
     1.0000   1.0000   1.0000   1.0000   1.0000   1.0000   1.0000   1.0000
     1.0000   1.0000   1.0000   1.0000   1.0000   1.0000   1.0000   1.0000
     1.0000   1.0000   1.0000   1.0000   1.0000   1.0000   1.0000   1.0000
     0.0000   0.0000   0.0000   0.0000   0.0000   0.0000   0.0000   0.0000
     0.0000   0.0000

          k = 0.3333 0.6790 0.3202 ( 17193 PWs)   bands (ev):

   -13.2575 -13.2560 -13.2525 -13.2508 -13.2462 -13.2448 -13.2440 -13.2429
   -13.2351 -13.2327 -13.2264 -13.2243 -13.2139 -13.2122 -13.1954 -13.1939
   -13.1881 -13.1852 -13.1742 -13.1719  -5.3092  -5.1722  -4.4289  -4.2772
     0.5449   0.9548   1.7909   1.9244   3.9097   4.1940   4.5507   5.0452
     5.4613   5.7887   6.1731   6.2894   6.9114   7.0273   7.4732   7.5761
     9.4179   9.6073  10.2540  10.5199  10.8759  11.1731  11.5476  11.8697
    12.2308  12.6091

     occupation numbers 
     1.0000   1.0000   1.0000   1.0000   1.0000   1.0000   1.0000   1.0000
     1.0000   1.0000   1.0000   1.0000   1.0000   1.0000   1.0000   1.0000
     1.0000   1.0000   1.0000   1.0000   1.0000   1.0000   1.0000   1.0000
     1.0000   1.0000   1.0000   1.0000   1.0000   1.0000   1.0000   1.0000
     1.0000   1.0000   1.0000   1.0000   1.0000   1.0000   1.0000   1.0000
     0.0000   0.0000   0.0000   0.0000   0.0000   0.0000   0.0000   0.0000
     0.0000   0.0000

          k = 0.3333 0.6790 0.6403 ( 17217 PWs)   bands (ev):

   -13.2603 -13.2584 -13.2547 -13.2530 -13.2458 -13.2442 -13.2424 -13.2421
   -13.2340 -13.2323 -13.2234 -13.2215 -13.2140 -13.2118 -13.1951 -13.1939
   -13.1885 -13.1861 -13.1736 -13.1718  -5.1437  -5.0167  -4.4270  -4.2955
     0.4932   0.9297   1.6494   1.7869   3.7194   3.8357   4.3861   4.8511
     4.9664   5.5755   6.3135   6.5196   6.6035   6.6836   7.4463   7.6015
     9.5978   9.9752  10.1422  10.5111  10.8654  11.2936  11.5957  12.1438
    12.5387  12.9360

     occupation numbers 
     1.0000   1.0000   1.0000   1.0000   1.0000   1.0000   1.0000   1.0000
     1.0000   1.0000   1.0000   1.0000   1.0000   1.0000   1.0000   1.0000
     1.0000   1.0000   1.0000   1.0000   1.0000   1.0000   1.0000   1.0000
     1.0000   1.0000   1.0000   1.0000   1.0000   1.0000   1.0000   1.0000
     1.0000   1.0000   1.0000   1.0000   1.0000   1.0000   1.0000   1.0000
     0.0000   0.0000   0.0000   0.0000   0.0000   0.0000   0.0000   0.0000
     0.0000   0.0000

          k = 0.3333 0.6790 0.9605 ( 17241 PWs)   bands (ev):

   -13.2626 -13.2613 -13.2568 -13.2558 -13.2448 -13.2436 -13.2415 -13.2413
   -13.2329 -13.2321 -13.2203 -13.2189 -13.2133 -13.2118 -13.1947 -13.1940
   -13.1885 -13.1871 -13.1728 -13.1719  -4.9166  -4.8095  -4.4741  -4.3690
     0.4426   0.7354   1.5281   1.6563   3.6723   3.8180   4.4690   4.6073
     4.8104   5.4527   5.8616   6.1214   6.3297   6.4909   7.1288   7.3847
     9.8227  10.4108  10.6523  10.8624  11.3344  11.5418  11.7600  12.2099
    12.6663  12.9715

     occupation numbers 
     1.0000   1.0000   1.0000   1.0000   1.0000   1.0000   1.0000   1.0000
     1.0000   1.0000   1.0000   1.0000   1.0000   1.0000   1.0000   1.0000
     1.0000   1.0000   1.0000   1.0000   1.0000   1.0000   1.0000   1.0000
     1.0000   1.0000   1.0000   1.0000   1.0000   1.0000   1.0000   1.0000
     1.0000   1.0000   1.0000   1.0000   1.0000   1.0000   1.0000   1.0000
     0.0000   0.0000   0.0000   0.0000   0.0000   0.0000   0.0000   0.0000
     0.0000   0.0000

          k = 0.3333 0.6790-1.2807 ( 17228 PWs)   bands (ev):

   -13.2630 -13.2630 -13.2573 -13.2573 -13.2438 -13.2438 -13.2411 -13.2411
   -13.2322 -13.2322 -13.2184 -13.2184 -13.2124 -13.2124 -13.1942 -13.1942
   -13.1880 -13.1880 -13.1722 -13.1722  -4.7232  -4.7232  -4.4952  -4.4952
     0.5157   0.5157   1.5397   1.5397   3.9835   3.9835   4.2003   4.2003
     5.1937   5.1937   5.8276   5.8276   6.3217   6.3217   7.0439   7.0439
    10.2096  10.2096  11.2036  11.2036  11.4159  11.4159  12.1440  12.1440
    12.9368  12.9369

     occupation numbers 
     1.0000   1.0000   1.0000   1.0000   1.0000   1.0000   1.0000   1.0000
     1.0000   1.0000   1.0000   1.0000   1.0000   1.0000   1.0000   1.0000
     1.0000   1.0000   1.0000   1.0000   1.0000   1.0000   1.0000   1.0000
     1.0000   1.0000   1.0000   1.0000   1.0000   1.0000   1.0000   1.0000
     1.0000   1.0000   1.0000   1.0000   1.0000   1.0000   1.0000   1.0000
     0.0000   0.0000   0.0000   0.0000   0.0000   0.0000   0.0000   0.0000
     0.0000   0.0000

          k = 0.3333 1.0186 0.0000 ( 17211 PWs)   bands (ev):

   -13.2585 -13.2570 -13.2553 -13.2536 -13.2421 -13.2417 -13.2412 -13.2388
   -13.2331 -13.2325 -13.2264 -13.2228 -13.2129 -13.2094 -13.2003 -13.2002
   -13.1839 -13.1812 -13.1754 -13.1749  -5.0300  -4.9292  -4.4636  -4.3985
     0.3664   0.7196   1.0300   1.3260   4.3322   5.1988   5.2015   5.4581
     5.5959   6.0849   6.2504   6.2736   6.6859   6.7336   7.4792   7.6186
     9.0133   9.2584   9.9387   9.9860  10.5136  10.5382  10.6928  11.0712
    11.3443  12.0733

     occupation numbers 
     1.0000   1.0000   1.0000   1.0000   1.0000   1.0000   1.0000   1.0000
     1.0000   1.0000   1.0000   1.0000   1.0000   1.0000   1.0000   1.0000
     1.0000   1.0000   1.0000   1.0000   1.0000   1.0000   1.0000   1.0000
     1.0000   1.0000   1.0000   1.0000   1.0000   1.0000   1.0000   1.0000
     1.0000   1.0000   1.0000   1.0000   1.0000   1.0000   1.0000   1.0000
     0.0000   0.0000   0.0000   0.0000   0.0000   0.0000   0.0000   0.0000
     0.0000   0.0000

          k = 0.3333 1.0186 0.3202 ( 17215 PWs)   bands (ev):

   -13.2602 -13.2584 -13.2569 -13.2550 -13.2419 -13.2408 -13.2404 -13.2385
   -13.2324 -13.2322 -13.2256 -13.2224 -13.2125 -13.2093 -13.2002 -13.1998
   -13.1839 -13.1814 -13.1752 -13.1747  -4.9801  -4.8826  -4.4470  -4.3839
     0.4363   0.7936   1.0887   1.3442   4.2665   4.4027   4.8423   5.2181
     5.5508   5.7469   6.0560   6.4138   6.7033   6.8437   7.2020   7.3726
     9.4637   9.5400   9.7794   9.9314  10.8264  10.8488  11.2273  11.5105
    11.8851  12.4350

     occupation numbers 
     1.0000   1.0000   1.0000   1.0000   1.0000   1.0000   1.0000   1.0000
     1.0000   1.0000   1.0000   1.0000   1.0000   1.0000   1.0000   1.0000
     1.0000   1.0000   1.0000   1.0000   1.0000   1.0000   1.0000   1.0000
     1.0000   1.0000   1.0000   1.0000   1.0000   1.0000   1.0000   1.0000
     1.0000   1.0000   1.0000   1.0000   1.0000   1.0000   1.0000   1.0000
     0.0000   0.0000   0.0000   0.0000   0.0000   0.0000   0.0000   0.0000
     0.0000   0.0000

          k = 0.3333 1.0186 0.6403 ( 17240 PWs)   bands (ev):

   -13.2641 -13.2622 -13.2602 -13.2586 -13.2413 -13.2394 -13.2390 -13.2377
   -13.2313 -13.2309 -13.2238 -13.2214 -13.2113 -13.2090 -13.1997 -13.1991
   -13.1838 -13.1819 -13.1748 -13.1744  -4.8457  -4.7583  -4.4150  -4.3567
     0.6139   0.9625   1.2509   1.3870   3.6321   3.8351   4.5811   4.6453
     4.8042   5.3271   5.6351   6.0971   6.1641   6.6120   6.8864   7.3430
     9.6854  10.2691  10.4647  10.8681  11.1953  11.3688  12.0760  12.1740
    12.2565  12.5543

     occupation numbers 
     1.0000   1.0000   1.0000   1.0000   1.0000   1.0000   1.0000   1.0000
     1.0000   1.0000   1.0000   1.0000   1.0000   1.0000   1.0000   1.0000
     1.0000   1.0000   1.0000   1.0000   1.0000   1.0000   1.0000   1.0000
     1.0000   1.0000   1.0000   1.0000   1.0000   1.0000   1.0000   1.0000
     1.0000   1.0000   1.0000   1.0000   1.0000   1.0000   1.0000   1.0000
     0.0000   0.0000   0.0000   0.0000   0.0000   0.0000   0.0000   0.0000
     0.0000   0.0000

          k = 0.3333 1.0186 0.9605 ( 17240 PWs)   bands (ev):

   -13.2675 -13.2664 -13.2630 -13.2622 -13.2406 -13.2392 -13.2376 -13.2369
   -13.2302 -13.2298 -13.2219 -13.2205 -13.2096 -13.2085 -13.1989 -13.1985
   -13.1835 -13.1824 -13.1743 -13.1741  -4.6728  -4.6032  -4.4096  -4.3576
     0.8003   1.0220   1.4800   1.4994   3.2624   3.5146   3.9391   4.2925
     4.4061   4.8394   4.9988   5.5915   6.0125   6.4875   6.7077   6.9977
    10.0938  10.7191  11.0403  11.3912  11.5471  11.8698  12.6944  12.8055
    13.0918  13.2595

     occupation numbers 
     1.0000   1.0000   1.0000   1.0000   1.0000   1.0000   1.0000   1.0000
     1.0000   1.0000   1.0000   1.0000   1.0000   1.0000   1.0000   1.0000
     1.0000   1.0000   1.0000   1.0000   1.0000   1.0000   1.0000   1.0000
     1.0000   1.0000   1.0000   1.0000   1.0000   1.0000   1.0000   1.0000
     1.0000   1.0000   1.0000   1.0000   1.0000   1.0000   1.0000   1.0000
     0.0000   0.0000   0.0000   0.0000   0.0000   0.0000   0.0000   0.0000
     0.0000   0.0000

          k = 0.3333 1.0186-1.2807 ( 17262 PWs)   bands (ev):

   -13.2685 -13.2685 -13.2639 -13.2639 -13.2398 -13.2398 -13.2368 -13.2368
   -13.2295 -13.2295 -13.2207 -13.2207 -13.2085 -13.2085 -13.1984 -13.1984
   -13.1830 -13.1830 -13.1740 -13.1740  -4.5408  -4.5408  -4.4096  -4.4096
     0.9304   0.9304   1.6024   1.6024   3.3814   3.3814   3.6942   3.6942
     4.5296   4.5296   5.0579   5.0579   6.2044   6.2044   6.8051   6.8051
    10.3727  10.3727  11.2922  11.2922  12.4610  12.4610  12.5944  12.5944
    13.8764  13.8764

     occupation numbers 
     1.0000   1.0000   1.0000   1.0000   1.0000   1.0000   1.0000   1.0000
     1.0000   1.0000   1.0000   1.0000   1.0000   1.0000   1.0000   1.0000
     1.0000   1.0000   1.0000   1.0000   1.0000   1.0000   1.0000   1.0000
     1.0000   1.0000   1.0000   1.0000   1.0000   1.0000   1.0000   1.0000
     1.0000   1.0000   1.0000   1.0000   1.0000   1.0000   1.0000   1.0000
     0.0000   0.0000   0.0000   0.0000   0.0000   0.0000   0.0000   0.0000
     0.0000   0.0000

          k = 0.3333-1.3581 0.0000 ( 17220 PWs)   bands (ev):

   -13.2586 -13.2586 -13.2567 -13.2567 -13.2401 -13.2401 -13.2393 -13.2393
   -13.2283 -13.2283 -13.2265 -13.2265 -13.2077 -13.2077 -13.2053 -13.2053
   -13.1789 -13.1789 -13.1776 -13.1776  -4.6697  -4.6697  -4.6380  -4.6380
     0.5057   0.5057   0.8472   0.8472   4.8989   4.8989   5.6534   5.6534
     5.9017   5.9017   6.1145   6.1145   7.0124   7.0124   7.1680   7.1680
     9.3734   9.3734   9.6785   9.6785  10.0646  10.0646  10.4225  10.4225
    11.5378  11.5378

     occupation numbers 
     1.0000   1.0000   1.0000   1.0000   1.0000   1.0000   1.0000   1.0000
     1.0000   1.0000   1.0000   1.0000   1.0000   1.0000   1.0000   1.0000
     1.0000   1.0000   1.0000   1.0000   1.0000   1.0000   1.0000   1.0000
     1.0000   1.0000   1.0000   1.0000   1.0000   1.0000   1.0000   1.0000
     1.0000   1.0000   1.0000   1.0000   1.0000   1.0000   1.0000   1.0000
     0.0000   0.0000   0.0000   0.0000   0.0000   0.0000   0.0000   0.0000
     0.0000   0.0000

          k = 0.3333-1.3581 0.3202 ( 17210 PWs)   bands (ev):

   -13.2605 -13.2605 -13.2582 -13.2582 -13.2398 -13.2398 -13.2385 -13.2385
   -13.2280 -13.2280 -13.2260 -13.2260 -13.2078 -13.2078 -13.2045 -13.2045
   -13.1791 -13.1791 -13.1773 -13.1773  -4.6359  -4.6359  -4.6063  -4.6063
     0.5918   0.5918   0.9165   0.9165   4.7205   4.7205   5.0035   5.0035
     5.5528   5.5528   6.0969   6.0969   6.8271   6.8271   7.1323   7.1323
     9.4448   9.4448   9.7390   9.7390  10.8523  10.8523  11.2384  11.2384
    11.8487  11.8487

     occupation numbers 
     1.0000   1.0000   1.0000   1.0000   1.0000   1.0000   1.0000   1.0000
     1.0000   1.0000   1.0000   1.0000   1.0000   1.0000   1.0000   1.0000
     1.0000   1.0000   1.0000   1.0000   1.0000   1.0000   1.0000   1.0000
     1.0000   1.0000   1.0000   1.0000   1.0000   1.0000   1.0000   1.0000
     1.0000   1.0000   1.0000   1.0000   1.0000   1.0000   1.0000   1.0000
     0.0000   0.0000   0.0000   0.0000   0.0000   0.0000   0.0000   0.0000
     0.0000   0.0000

          k = 0.3333-1.3581 0.6403 ( 17236 PWs)   bands (ev):

   -13.2647 -13.2647 -13.2618 -13.2618 -13.2392 -13.2392 -13.2370 -13.2370
   -13.2272 -13.2272 -13.2248 -13.2248 -13.2074 -13.2074 -13.2029 -13.2029
   -13.1794 -13.1794 -13.1768 -13.1768  -4.5510  -4.5510  -4.5277  -4.5277
     0.8306   0.8306   1.0991   1.0991   4.0315   4.0315   4.2847   4.2847
     5.0576   5.0576   5.6395   5.6395   6.2832   6.2832   6.9203   6.9203
    10.0359  10.0359  10.8884  10.8884  11.4812  11.4812  11.8224  11.8224
    12.8091  12.8091

     occupation numbers 
     1.0000   1.0000   1.0000   1.0000   1.0000   1.0000   1.0000   1.0000
     1.0000   1.0000   1.0000   1.0000   1.0000   1.0000   1.0000   1.0000
     1.0000   1.0000   1.0000   1.0000   1.0000   1.0000   1.0000   1.0000
     1.0000   1.0000   1.0000   1.0000   1.0000   1.0000   1.0000   1.0000
     1.0000   1.0000   1.0000   1.0000   1.0000   1.0000   1.0000   1.0000
     0.0000   0.0000   0.0000   0.0000   0.0000   0.0000   0.0000   0.0000
     0.0000   0.0000

          k = 0.3333-1.3581 0.9605 ( 17264 PWs)   bands (ev):

   -13.2688 -13.2688 -13.2654 -13.2654 -13.2388 -13.2388 -13.2359 -13.2359
   -13.2263 -13.2263 -13.2238 -13.2238 -13.2066 -13.2066 -13.2015 -13.2015
   -13.1794 -13.1794 -13.1764 -13.1764  -4.4602  -4.4602  -4.4466  -4.4466
     1.1408   1.1408   1.3044   1.3044   3.4381   3.4381   3.8049   3.8049
     4.4396   4.4396   4.9478   4.9478   6.2261   6.2261   6.7843   6.7843
    10.4360  10.4360  11.0975  11.0975  12.3407  12.3407  12.4054  12.4054
    13.9347  13.9347

     occupation numbers 
     1.0000   1.0000   1.0000   1.0000   1.0000   1.0000   1.0000   1.0000
     1.0000   1.0000   1.0000   1.0000   1.0000   1.0000   1.0000   1.0000
     1.0000   1.0000   1.0000   1.0000   1.0000   1.0000   1.0000   1.0000
     1.0000   1.0000   1.0000   1.0000   1.0000   1.0000   1.0000   1.0000
     1.0000   1.0000   1.0000   1.0000   1.0000   1.0000   1.0000   1.0000
     0.0000   0.0000   0.0000   0.0000   0.0000   0.0000   0.0000   0.0000
     0.0000   0.0000

          k = 0.3333-1.3581-1.2807 ( 17240 PWs)   bands (ev):

   -13.2705 -13.2705 -13.2669 -13.2669 -13.2387 -13.2387 -13.2356 -13.2356
   -13.2258 -13.2258 -13.2233 -13.2233 -13.2061 -13.2061 -13.2009 -13.2009
   -13.1794 -13.1794 -13.1762 -13.1762  -4.4190  -4.4190  -4.4141  -4.4141
     1.3139   1.3139   1.3877   1.3877   3.2434   3.2434   3.6127   3.6127
     4.1996   4.1996   4.5803   4.5803   6.3018   6.3018   6.7192   6.7192
    10.6047  10.6047  10.8277  10.8277  12.8406  12.8406  12.8646  12.8646
    14.4530  14.4531

     occupation numbers 
     1.0000   1.0000   1.0000   1.0000   1.0000   1.0000   1.0000   1.0000
     1.0000   1.0000   1.0000   1.0000   1.0000   1.0000   1.0000   1.0000
     1.0000   1.0000   1.0000   1.0000   1.0000   1.0000   1.0000   1.0000
     1.0000   1.0000   1.0000   1.0000   1.0000   1.0000   1.0000   1.0000
     1.0000   1.0000   1.0000   1.0000   1.0000   1.0000   1.0000   1.0000
     0.0000   0.0000   0.0000   0.0000   0.0000   0.0000   0.0000   0.0000
     0.0000   0.0000

     highest occupied, lowest unoccupied level (ev):     8.0304    8.8494

!    total energy              =    -827.74768346 Ry
     estimated scf accuracy    <          1.1E-09 Ry

     The total energy is the sum of the following terms:
     one-electron contribution =    -257.01012391 Ry
     hartree contribution      =     179.10991663 Ry
     xc contribution           =    -309.12062662 Ry
     ewald contribution        =    -440.60481620 Ry
     DFT-D3 Dispersion         =      -0.12203337 Ry

     convergence has been achieved in   9 iterations

     Forces acting on atoms (cartesian axes, Ry/au):

     atom    1 type  2   force =     0.00781632   -0.00000000    0.00014283
     atom    2 type  1   force =    -0.00860700   -0.00000000   -0.00053392
     atom    3 type  2   force =    -0.00781632    0.00000000    0.00014283
     atom    4 type  1   force =     0.00860700    0.00000000   -0.00053392
     atom    5 type  2   force =     0.00781632    0.00000000   -0.00014283
     atom    6 type  1   force =    -0.00860700   -0.00000000    0.00053392
     atom    7 type  2   force =    -0.00781632   -0.00000000   -0.00014283
     atom    8 type  1   force =     0.00860700    0.00000000    0.00053392
     The non-local contrib.  to forces
     atom    1 type  2   force =    -0.11464749    0.00000000    0.09758167
     atom    2 type  1   force =     0.36487176    0.00000000    0.26961937
     atom    3 type  2   force =     0.11464749    0.00000000    0.09758167
     atom    4 type  1   force =    -0.36487176    0.00000000    0.26961937
     atom    5 type  2   force =    -0.11464749    0.00000000   -0.09758167
     atom    6 type  1   force =     0.36487176    0.00000000   -0.26961937
     atom    7 type  2   force =     0.11464749    0.00000000   -0.09758167
     atom    8 type  1   force =    -0.36487176    0.00000000   -0.26961937
     The ionic contribution  to forces
     atom    1 type  2   force =     1.53473235    0.00000000   -1.05154455
     atom    2 type  1   force =    -1.03769718    0.00000000   -0.57506129
     atom    3 type  2   force =    -1.53473235   -0.00000000   -1.05154455
     atom    4 type  1   force =     1.03769718   -0.00000000   -0.57506129
     atom    5 type  2   force =     1.53473235    0.00000000    1.05154455
     atom    6 type  1   force =    -1.03769718    0.00000000    0.57506129
     atom    7 type  2   force =    -1.53473235    0.00000000    1.05154455
     atom    8 type  1   force =     1.03769718    0.00000000    0.57506129
     The local contribution  to forces
     atom    1 type  2   force =    -1.42406269    0.00000000    0.96370488
     atom    2 type  1   force =     0.67031598   -0.00000000    0.30844087
     atom    3 type  2   force =     1.42406269   -0.00000000    0.96370488
     atom    4 type  1   force =    -0.67031598   -0.00000000    0.30844087
     atom    5 type  2   force =    -1.42406269    0.00000000   -0.96370488
     atom    6 type  1   force =     0.67031598   -0.00000000   -0.30844087
     atom    7 type  2   force =     1.42406269    0.00000000   -0.96370488
     atom    8 type  1   force =    -0.67031598   -0.00000000   -0.30844087
     The core correction contribution to forces
     atom    1 type  2   force =     0.01255001   -0.00000000   -0.01079326
     atom    2 type  1   force =    -0.00548584    0.00000000   -0.00445713
     atom    3 type  2   force =    -0.01255001   -0.00000000   -0.01079326
     atom    4 type  1   force =     0.00548584    0.00000000   -0.00445713
     atom    5 type  2   force =     0.01255001   -0.00000000    0.01079326
     atom    6 type  1   force =    -0.00548584    0.00000000    0.00445713
     atom    7 type  2   force =    -0.01255001    0.00000000    0.01079326
     atom    8 type  1   force =     0.00548584   -0.00000000    0.00445713
     The Hubbard contrib.    to forces
     atom    1 type  2   force =     0.00000000    0.00000000    0.00000000
     atom    2 type  1   force =     0.00000000    0.00000000    0.00000000
     atom    3 type  2   force =     0.00000000    0.00000000    0.00000000
     atom    4 type  1   force =     0.00000000    0.00000000    0.00000000
     atom    5 type  2   force =     0.00000000    0.00000000    0.00000000
     atom    6 type  1   force =     0.00000000    0.00000000    0.00000000
     atom    7 type  2   force =     0.00000000    0.00000000    0.00000000
     atom    8 type  1   force =     0.00000000    0.00000000    0.00000000
     The SCF correction term to forces
     atom    1 type  2   force =     0.00002877   -0.00000000    0.00000041
     atom    2 type  1   force =    -0.00005668   -0.00000000    0.00002943
     atom    3 type  2   force =    -0.00002877    0.00000000    0.00000041
     atom    4 type  1   force =     0.00005668    0.00000000    0.00002943
     atom    5 type  2   force =     0.00002877   -0.00000000   -0.00000041
     atom    6 type  1   force =    -0.00005668    0.00000000   -0.00002943
     atom    7 type  2   force =    -0.00002877    0.00000000   -0.00000041
     atom    8 type  1   force =     0.00005668   -0.00000000   -0.00002943

     DFT-D3 dispersion contribution to forces:
     atom    1 type  2   force =    -0.00078462   -0.00000000    0.00119368
     atom    2 type  1   force =    -0.00055504    0.00000000    0.00089483
     atom    3 type  2   force =     0.00078462    0.00000000    0.00119368
     atom    4 type  1   force =     0.00055504   -0.00000000    0.00089483
     atom    5 type  2   force =    -0.00078462   -0.00000000   -0.00119368
     atom    6 type  1   force =    -0.00055504   -0.00000000   -0.00089483
     atom    7 type  2   force =     0.00078462    0.00000000   -0.00119368
     atom    8 type  1   force =     0.00055504    0.00000000   -0.00089483

     Total force =     0.023279     Total SCF correction =     0.000140

     DFT-D3 dispersion Force =     0.003549

     Writing output data file ./tmp/SnSe_pnma.save/

     init_run     :     33.06s CPU     56.60s WALL (       1 calls)
     electrons    :    799.87s CPU   1397.04s WALL (       1 calls)
     forces       :     26.08s CPU     40.97s WALL (       1 calls)

     Called by init_run:
     wfcinit      :     19.55s CPU     36.11s WALL (       1 calls)
     wfcinit:atom :      0.16s CPU      0.26s WALL (      17 calls)
     wfcinit:wfcr :     18.37s CPU     34.27s WALL (      17 calls)
     potinit      :      3.56s CPU      4.37s WALL (       1 calls)
     hinit0       :      5.76s CPU      6.99s WALL (       1 calls)

     Called by electrons:
     c_bands      :    667.69s CPU   1171.91s WALL (       9 calls)
     sum_band     :     90.94s CPU    146.80s WALL (       9 calls)
     v_of_rho     :      8.66s CPU     11.27s WALL (      10 calls)
     v_h          :      0.67s CPU      0.87s WALL (      10 calls)
     v_xc         :      8.69s CPU     11.22s WALL (      11 calls)
     newd         :     33.79s CPU     72.55s WALL (      10 calls)
     mix_rho      :      1.46s CPU      1.81s WALL (       9 calls)

     Called by c_bands:
     init_us_2    :      4.57s CPU      6.90s WALL (     340 calls)
     cegterg      :    532.56s CPU    963.55s WALL (     153 calls)

     Called by sum_band:
     sum_band:wei :      0.08s CPU      0.14s WALL (       9 calls)
     sum_band:loo :     72.09s CPU    116.10s WALL (       9 calls)
     sum_band:buf :      0.40s CPU      0.47s WALL (     153 calls)
     sum_band:ini :      2.13s CPU      2.95s WALL (     153 calls)
     sum_band:cal :     17.65s CPU     38.61s WALL (     153 calls)
     sum_band:bec :      0.02s CPU      0.02s WALL (     153 calls)
     addusdens    :     12.69s CPU     22.54s WALL (       9 calls)
     addusd:skk   :      0.04s CPU      0.13s WALL (      18 calls)
     addusd:dgemm :      2.65s CPU      5.19s WALL (      18 calls)
     addusd:qvan2 :      8.43s CPU     13.03s WALL (      18 calls)

     Called by *egterg:
     cdiaghg      :     25.28s CPU    101.91s WALL (     667 calls)
     cegterg:over :     73.07s CPU    176.84s WALL (     514 calls)
     cegterg:upda :      9.88s CPU     10.80s WALL (     514 calls)
     cegterg:last :     17.81s CPU     14.57s WALL (     322 calls)
     h_psi        :    350.80s CPU    540.75s WALL (     684 calls)
     s_psi        :     18.83s CPU     15.45s WALL (     684 calls)
     g_psi        :      1.47s CPU      1.89s WALL (     514 calls)

     Called by h_psi:
     h_psi:calbec :     65.52s CPU    141.33s WALL (     684 calls)
     vloc_psi     :    264.90s CPU    381.44s WALL (     684 calls)
     add_vuspsi   :     19.38s CPU     16.05s WALL (     684 calls)

     General routines
     calbec       :     88.07s CPU    191.21s WALL (     905 calls)
     fft          :      7.56s CPU      9.30s WALL (     139 calls)
     ffts         :      0.31s CPU      0.41s WALL (      19 calls)
     fftw         :    279.50s CPU    402.42s WALL (   49204 calls)
     interpolate  :      0.72s CPU      0.82s WALL (      10 calls)

     Parallel routines
     fft_scatt_xy :     52.46s CPU     72.53s WALL (   49362 calls)
     fft_scatt_yz :    103.15s CPU    151.42s WALL (   49362 calls)

     PWSCF        :  14m19.64s CPU  24m55.94s WALL


   This run was terminated on:  12:55:32  19May2026            

=------------------------------------------------------------------------------=
   JOB DONE.
=------------------------------------------------------------------------------=
