
     Program PWSCF v.6.7MaX starts on 18May2026 at 21: 7:29 

     This program is part of the open-source Quantum ESPRESSO suite
     for quantum simulation of materials; please cite
         "P. Giannozzi et al., J. Phys.:Condens. Matter 21 395502 (2009);
         "P. Giannozzi et al., J. Phys.:Condens. Matter 29 465901 (2017);
          URL http://www.quantum-espresso.org", 
     in publications or presentations arising from this work. More details at
     http://www.quantum-espresso.org/quote

     Parallel version (MPI), running on     6 processors

     MPI processes distributed on     1 nodes
     K-points division:     npool     =       3
     R & G space division:  proc/nbgrp/npool/nimage =       2
     Waiting for input...
     Reading input from standard input

     Current dimensions of program PWSCF are:
     Max number of different atomic species (ntypx) = 10
     Max number of k-points (npk) =  40000
     Max angular momentum in pseudopotentials (lmaxx) =  3

     --------------------------------------------
     Parameters for DFT-D3 Dispersion Correction:
     --------------------------------------------
       Reference C6 values for interpolation: 

         atom   Coordination number   C6
         Se         0.000           427.35
         Se         0.990           427.57
         Se         1.981           421.05
         Sn         0.000          1255.14
         Sn         0.951          1084.09
         Sn         1.950          1010.83
         Sn         2.926           818.29
         Sn         3.912           672.20

       Values used:

         atom   Coordination number  R0_AB[au]  C6      C8
         Se         3.637            3.332    421.05  29958.36
         Sn         4.405            3.957    672.26  84376.19
         Se         3.637            3.332    421.05  29958.36
         Sn         4.405            3.957    672.26  84376.19
         Se         3.637            3.332    421.05  29958.36
         Sn         4.405            3.957    672.26  84376.19
         Se         3.637            3.332    421.05  29958.36
         Sn         4.405            3.957    672.26  84376.19

         Molecular C6 ( Ry / a.u.^6 ) =     34497.83


     Subspace diagonalization in iterative solution of the eigenvalue problem:
     a serial algorithm will be used


     Parallelization info
     --------------------
     sticks:   dense  smooth     PW     G-vecs:    dense   smooth      PW
     Min        2026     808    243                62535    15834    2627
     Max        2027     809    244                62536    15835    2628
     Sum        4053    1617    487               125071    31669    5255



     bravais-lattice index     =            8
     lattice parameter (alat)  =      21.4862  a.u.
     unit-cell volume          =    1425.7436 (a.u.)^3
     number of atoms/cell      =            8
     number of atomic types    =            2
     number of electrons       =        80.00
     number of Kohn-Sham states=           50
     kinetic-energy cutoff     =      30.0000  Ry
     charge density cutoff     =     300.0000  Ry
     scf convergence threshold =      1.0E-08
     mixing beta               =       0.7000
     number of iterations used =            8  plain     mixing
     Exchange-correlation= SLA  PW   PBE  PBE
                           (   1   4   3   4   0   0   0)

     celldm(1)=  21.486186  celldm(2)=   0.368162  celldm(3)=   0.390413
     celldm(4)=   0.000000  celldm(5)=   0.000000  celldm(6)=   0.000000

     crystal axes: (cart. coord. in units of alat)
               a(1) = (   1.000000   0.000000   0.000000 )  
               a(2) = (   0.000000   0.368162   0.000000 )  
               a(3) = (   0.000000   0.000000   0.390413 )  

     reciprocal axes: (cart. coord. in units 2 pi/alat)
               b(1) = (  1.000000  0.000000  0.000000 )  
               b(2) = (  0.000000  2.716197  0.000000 )  
               b(3) = (  0.000000  0.000000  2.561388 )  


     PseudoPot. # 1 for Sn read from file:
     ../pseudo/Sn_pbe_v1.uspp.F.UPF
     MD5 check sum: 4cf58ce39ec5d5d420df3dd08604eb00
     Pseudo is Ultrasoft + core correction, Zval = 14.0
     Generated by new atomic code, or converted to UPF format
     Using radial grid of  891 points,  6 beta functions with: 
                l(1) =   0
                l(2) =   0
                l(3) =   1
                l(4) =   1
                l(5) =   2
                l(6) =   2
     Q(r) pseudized with  6 coefficients,  rinner =    1.200   1.200   1.200
                                                       1.200   1.200

     PseudoPot. # 2 for Se read from file:
     ../pseudo/Se_pbe_v1.uspp.F.UPF
     MD5 check sum: 1b3568f3a8ae88f9a2a0ad0698632c85
     Pseudo is Ultrasoft + core correction, Zval =  6.0
     Generated by new atomic code, or converted to UPF format
     Using radial grid of  877 points,  6 beta functions with: 
                l(1) =   0
                l(2) =   0
                l(3) =   1
                l(4) =   1
                l(5) =   2
                l(6) =   2
     Q(r) pseudized with  8 coefficients,  rinner =    1.300   1.300   1.300
                                                       1.300   1.300

     atomic species   valence    mass     pseudopotential
        Sn            14.00   118.71000     Sn( 1.00)
        Se             6.00    78.97100     Se( 1.00)

      8 Sym. Ops., with inversion, found ( 6 have fractional translation)


                                    s                        frac. trans.

      isym =  1     identity                                     

 cryst.   s( 1) = (     1          0          0      )
                  (     0          1          0      )
                  (     0          0          1      )

 cart.    s( 1) = (  1.0000000  0.0000000  0.0000000 )
                  (  0.0000000  1.0000000  0.0000000 )
                  (  0.0000000  0.0000000  1.0000000 )


      isym =  2     180 deg rotation - cart. axis [0,0,1]        

 cryst.   s( 2) = (    -1          0          0      )    f =(  0.5000000 )
                  (     0         -1          0      )       (  0.0000000 )
                  (     0          0          1      )       (  0.5000000 )

 cart.    s( 2) = ( -1.0000000  0.0000000  0.0000000 )    f =(  0.5000000 )
                  (  0.0000000 -1.0000000  0.0000000 )       (  0.0000000 )
                  (  0.0000000  0.0000000  1.0000000 )       (  0.1952067 )


      isym =  3     180 deg rotation - cart. axis [0,1,0]        

 cryst.   s( 3) = (    -1          0          0      )    f =( -0.0000000 )
                  (     0          1          0      )       ( -0.5000000 )
                  (     0          0         -1      )       (  0.0000000 )

 cart.    s( 3) = ( -1.0000000  0.0000000  0.0000000 )    f =( -0.0000000 )
                  (  0.0000000  1.0000000  0.0000000 )       ( -0.1840809 )
                  (  0.0000000  0.0000000 -1.0000000 )       (  0.0000000 )


      isym =  4     180 deg rotation - cart. axis [1,0,0]        

 cryst.   s( 4) = (     1          0          0      )    f =(  0.5000000 )
                  (     0         -1          0      )       (  0.5000000 )
                  (     0          0         -1      )       (  0.5000000 )

 cart.    s( 4) = (  1.0000000  0.0000000  0.0000000 )    f =(  0.5000000 )
                  (  0.0000000 -1.0000000  0.0000000 )       (  0.1840809 )
                  (  0.0000000  0.0000000 -1.0000000 )       (  0.1952067 )


      isym =  5     inversion                                    

 cryst.   s( 5) = (    -1          0          0      )
                  (     0         -1          0      )
                  (     0          0         -1      )

 cart.    s( 5) = ( -1.0000000  0.0000000  0.0000000 )
                  (  0.0000000 -1.0000000  0.0000000 )
                  (  0.0000000  0.0000000 -1.0000000 )


      isym =  6     inv. 180 deg rotation - cart. axis [0,0,1]   

 cryst.   s( 6) = (     1          0          0      )    f =(  0.5000000 )
                  (     0          1          0      )       (  0.0000000 )
                  (     0          0         -1      )       (  0.5000000 )

 cart.    s( 6) = (  1.0000000  0.0000000  0.0000000 )    f =(  0.5000000 )
                  (  0.0000000  1.0000000  0.0000000 )       (  0.0000000 )
                  (  0.0000000  0.0000000 -1.0000000 )       (  0.1952067 )


      isym =  7     inv. 180 deg rotation - cart. axis [0,1,0]   

 cryst.   s( 7) = (     1          0          0      )    f =(  0.0000000 )
                  (     0         -1          0      )       (  0.5000000 )
                  (     0          0          1      )       (  0.0000000 )

 cart.    s( 7) = (  1.0000000  0.0000000  0.0000000 )    f =(  0.0000000 )
                  (  0.0000000 -1.0000000  0.0000000 )       (  0.1840809 )
                  (  0.0000000  0.0000000  1.0000000 )       (  0.0000000 )


      isym =  8     inv. 180 deg rotation - cart. axis [1,0,0]   

 cryst.   s( 8) = (    -1          0          0      )    f =(  0.5000000 )
                  (     0          1          0      )       ( -0.5000000 )
                  (     0          0          1      )       (  0.5000000 )

 cart.    s( 8) = ( -1.0000000  0.0000000  0.0000000 )    f =(  0.5000000 )
                  (  0.0000000  1.0000000  0.0000000 )       ( -0.1840809 )
                  (  0.0000000  0.0000000  1.0000000 )       (  0.1952067 )


     point group D_2h (mmm) 
     there are  8 classes
     the character table:

       E     C2    C2'   C2''  i     s_v   s_v'  s_v''
A_g    1.00  1.00  1.00  1.00  1.00  1.00  1.00  1.00
B_1g   1.00  1.00 -1.00 -1.00  1.00  1.00 -1.00 -1.00
B_2g   1.00 -1.00  1.00 -1.00  1.00 -1.00  1.00 -1.00
B_3g   1.00 -1.00 -1.00  1.00  1.00 -1.00 -1.00  1.00
A_u    1.00  1.00  1.00  1.00 -1.00 -1.00 -1.00 -1.00
B_1u   1.00  1.00 -1.00 -1.00 -1.00 -1.00  1.00  1.00
B_2u   1.00 -1.00  1.00 -1.00 -1.00  1.00 -1.00  1.00
B_3u   1.00 -1.00 -1.00  1.00 -1.00  1.00  1.00 -1.00

     the symmetry operations in each class and the name of the first element:

     E        1
          identity                                               
     C2       2
          180 deg rotation - cart. axis [0,0,1]                  
     C2'      4
          180 deg rotation - cart. axis [1,0,0]                  
     C2''     3
          180 deg rotation - cart. axis [0,1,0]                  
     i        5
          inversion                                              
     s_v      6
          inv. 180 deg rotation - cart. axis [0,0,1]             
     s_v'     8
          inv. 180 deg rotation - cart. axis [1,0,0]             
     s_v''    7
          inv. 180 deg rotation - cart. axis [0,1,0]             

   Cartesian axes

     site n.     atom                  positions (alat units)
         1           Se  tau(   1) = (   0.8555000   0.0920405   0.1884916  )
         2           Sn  tau(   2) = (   0.1187000   0.0920405   0.0385728  )
         3           Se  tau(   3) = (   0.6445000   0.2761214   0.3836983  )
         4           Sn  tau(   4) = (   0.3813000   0.2761214   0.2337795  )
         5           Se  tau(   5) = (   0.3555000   0.0920405   0.0067151  )
         6           Sn  tau(   6) = (   0.6187000   0.0920405   0.1566338  )
         7           Se  tau(   7) = (   0.1445000   0.2761214   0.2019218  )
         8           Sn  tau(   8) = (   0.8813000   0.2761214   0.3518405  )

   Crystallographic axes

     site n.     atom                  positions (cryst. coord.)
         1           Se  tau(   1) = (  0.8555000  0.2500000  0.4828000  )
         2           Sn  tau(   2) = (  0.1187000  0.2500000  0.0988000  )
         3           Se  tau(   3) = (  0.6445000  0.7500000  0.9828000  )
         4           Sn  tau(   4) = (  0.3813000  0.7500000  0.5988000  )
         5           Se  tau(   5) = (  0.3555000  0.2500000  0.0172000  )
         6           Sn  tau(   6) = (  0.6187000  0.2500000  0.4012000  )
         7           Se  tau(   7) = (  0.1445000  0.7500000  0.5172000  )
         8           Sn  tau(   8) = (  0.8813000  0.7500000  0.9012000  )

     number of k points=    50
                       cart. coord. in units 2pi/alat
        k(    1) = (   0.0000000   0.0000000   0.0000000), wk =   0.0104167
        k(    2) = (   0.0000000   0.0000000   0.3201735), wk =   0.0208333
        k(    3) = (   0.0000000   0.0000000   0.6403469), wk =   0.0208333
        k(    4) = (   0.0000000   0.0000000   0.9605204), wk =   0.0208333
        k(    5) = (   0.0000000   0.0000000  -1.2806938), wk =   0.0104167
        k(    6) = (   0.0000000   0.3395246   0.0000000), wk =   0.0208333
        k(    7) = (   0.0000000   0.3395246   0.3201735), wk =   0.0416667
        k(    8) = (   0.0000000   0.3395246   0.6403469), wk =   0.0416667
        k(    9) = (   0.0000000   0.3395246   0.9605204), wk =   0.0416667
        k(   10) = (   0.0000000   0.3395246  -1.2806938), wk =   0.0208333
        k(   11) = (   0.0000000   0.6790492   0.0000000), wk =   0.0208333
        k(   12) = (   0.0000000   0.6790492   0.3201735), wk =   0.0416667
        k(   13) = (   0.0000000   0.6790492   0.6403469), wk =   0.0416667
        k(   14) = (   0.0000000   0.6790492   0.9605204), wk =   0.0416667
        k(   15) = (   0.0000000   0.6790492  -1.2806938), wk =   0.0208333
        k(   16) = (   0.0000000   1.0185738   0.0000000), wk =   0.0208333
        k(   17) = (   0.0000000   1.0185738   0.3201735), wk =   0.0416667
        k(   18) = (   0.0000000   1.0185738   0.6403469), wk =   0.0416667
        k(   19) = (   0.0000000   1.0185738   0.9605204), wk =   0.0416667
        k(   20) = (   0.0000000   1.0185738  -1.2806938), wk =   0.0208333
        k(   21) = (   0.0000000  -1.3580984   0.0000000), wk =   0.0104167
        k(   22) = (   0.0000000  -1.3580984   0.3201735), wk =   0.0208333
        k(   23) = (   0.0000000  -1.3580984   0.6403469), wk =   0.0208333
        k(   24) = (   0.0000000  -1.3580984   0.9605204), wk =   0.0208333
        k(   25) = (   0.0000000  -1.3580984  -1.2806938), wk =   0.0104167
        k(   26) = (   0.3333333   0.0000000   0.0000000), wk =   0.0208333
        k(   27) = (   0.3333333   0.0000000   0.3201735), wk =   0.0416667
        k(   28) = (   0.3333333   0.0000000   0.6403469), wk =   0.0416667
        k(   29) = (   0.3333333   0.0000000   0.9605204), wk =   0.0416667
        k(   30) = (   0.3333333   0.0000000  -1.2806938), wk =   0.0208333
        k(   31) = (   0.3333333   0.3395246   0.0000000), wk =   0.0416667
        k(   32) = (   0.3333333   0.3395246   0.3201735), wk =   0.0833333
        k(   33) = (   0.3333333   0.3395246   0.6403469), wk =   0.0833333
        k(   34) = (   0.3333333   0.3395246   0.9605204), wk =   0.0833333
        k(   35) = (   0.3333333   0.3395246  -1.2806938), wk =   0.0416667
        k(   36) = (   0.3333333   0.6790492   0.0000000), wk =   0.0416667
        k(   37) = (   0.3333333   0.6790492   0.3201735), wk =   0.0833333
        k(   38) = (   0.3333333   0.6790492   0.6403469), wk =   0.0833333
        k(   39) = (   0.3333333   0.6790492   0.9605204), wk =   0.0833333
        k(   40) = (   0.3333333   0.6790492  -1.2806938), wk =   0.0416667
        k(   41) = (   0.3333333   1.0185738   0.0000000), wk =   0.0416667
        k(   42) = (   0.3333333   1.0185738   0.3201735), wk =   0.0833333
        k(   43) = (   0.3333333   1.0185738   0.6403469), wk =   0.0833333
        k(   44) = (   0.3333333   1.0185738   0.9605204), wk =   0.0833333
        k(   45) = (   0.3333333   1.0185738  -1.2806938), wk =   0.0416667
        k(   46) = (   0.3333333  -1.3580984   0.0000000), wk =   0.0208333
        k(   47) = (   0.3333333  -1.3580984   0.3201735), wk =   0.0416667
        k(   48) = (   0.3333333  -1.3580984   0.6403469), wk =   0.0416667
        k(   49) = (   0.3333333  -1.3580984   0.9605204), wk =   0.0416667
        k(   50) = (   0.3333333  -1.3580984  -1.2806938), wk =   0.0208333

                       cryst. coord.
        k(    1) = (   0.0000000   0.0000000   0.0000000), wk =   0.0104167
        k(    2) = (   0.0000000   0.0000000   0.1250000), wk =   0.0208333
        k(    3) = (   0.0000000   0.0000000   0.2500000), wk =   0.0208333
        k(    4) = (   0.0000000   0.0000000   0.3750000), wk =   0.0208333
        k(    5) = (   0.0000000   0.0000000  -0.5000000), wk =   0.0104167
        k(    6) = (   0.0000000   0.1250000   0.0000000), wk =   0.0208333
        k(    7) = (   0.0000000   0.1250000   0.1250000), wk =   0.0416667
        k(    8) = (   0.0000000   0.1250000   0.2500000), wk =   0.0416667
        k(    9) = (   0.0000000   0.1250000   0.3750000), wk =   0.0416667
        k(   10) = (   0.0000000   0.1250000  -0.5000000), wk =   0.0208333
        k(   11) = (   0.0000000   0.2500000   0.0000000), wk =   0.0208333
        k(   12) = (   0.0000000   0.2500000   0.1250000), wk =   0.0416667
        k(   13) = (   0.0000000   0.2500000   0.2500000), wk =   0.0416667
        k(   14) = (   0.0000000   0.2500000   0.3750000), wk =   0.0416667
        k(   15) = (   0.0000000   0.2500000  -0.5000000), wk =   0.0208333
        k(   16) = (   0.0000000   0.3750000   0.0000000), wk =   0.0208333
        k(   17) = (   0.0000000   0.3750000   0.1250000), wk =   0.0416667
        k(   18) = (   0.0000000   0.3750000   0.2500000), wk =   0.0416667
        k(   19) = (   0.0000000   0.3750000   0.3750000), wk =   0.0416667
        k(   20) = (   0.0000000   0.3750000  -0.5000000), wk =   0.0208333
        k(   21) = (   0.0000000  -0.5000000   0.0000000), wk =   0.0104167
        k(   22) = (   0.0000000  -0.5000000   0.1250000), wk =   0.0208333
        k(   23) = (   0.0000000  -0.5000000   0.2500000), wk =   0.0208333
        k(   24) = (   0.0000000  -0.5000000   0.3750000), wk =   0.0208333
        k(   25) = (   0.0000000  -0.5000000  -0.5000000), wk =   0.0104167
        k(   26) = (   0.3333333   0.0000000   0.0000000), wk =   0.0208333
        k(   27) = (   0.3333333   0.0000000   0.1250000), wk =   0.0416667
        k(   28) = (   0.3333333   0.0000000   0.2500000), wk =   0.0416667
        k(   29) = (   0.3333333   0.0000000   0.3750000), wk =   0.0416667
        k(   30) = (   0.3333333   0.0000000  -0.5000000), wk =   0.0208333
        k(   31) = (   0.3333333   0.1250000   0.0000000), wk =   0.0416667
        k(   32) = (   0.3333333   0.1250000   0.1250000), wk =   0.0833333
        k(   33) = (   0.3333333   0.1250000   0.2500000), wk =   0.0833333
        k(   34) = (   0.3333333   0.1250000   0.3750000), wk =   0.0833333
        k(   35) = (   0.3333333   0.1250000  -0.5000000), wk =   0.0416667
        k(   36) = (   0.3333333   0.2500000   0.0000000), wk =   0.0416667
        k(   37) = (   0.3333333   0.2500000   0.1250000), wk =   0.0833333
        k(   38) = (   0.3333333   0.2500000   0.2500000), wk =   0.0833333
        k(   39) = (   0.3333333   0.2500000   0.3750000), wk =   0.0833333
        k(   40) = (   0.3333333   0.2500000  -0.5000000), wk =   0.0416667
        k(   41) = (   0.3333333   0.3750000   0.0000000), wk =   0.0416667
        k(   42) = (   0.3333333   0.3750000   0.1250000), wk =   0.0833333
        k(   43) = (   0.3333333   0.3750000   0.2500000), wk =   0.0833333
        k(   44) = (   0.3333333   0.3750000   0.3750000), wk =   0.0833333
        k(   45) = (   0.3333333   0.3750000  -0.5000000), wk =   0.0416667
        k(   46) = (   0.3333333  -0.5000000   0.0000000), wk =   0.0208333
        k(   47) = (   0.3333333  -0.5000000   0.1250000), wk =   0.0416667
        k(   48) = (   0.3333333  -0.5000000   0.2500000), wk =   0.0416667
        k(   49) = (   0.3333333  -0.5000000   0.3750000), wk =   0.0416667
        k(   50) = (   0.3333333  -0.5000000  -0.5000000), wk =   0.0208333

     Dense  grid:   125071 G-vectors     FFT dimensions: ( 120,  48,  48)

     Smooth grid:    31669 G-vectors     FFT dimensions: (  80,  30,  30)

     Dynamical RAM for                 wfc:       1.51 MB

     Dynamical RAM for     wfc (w. buffer):      27.16 MB

     Dynamical RAM for           str. fact:       1.91 MB

     Dynamical RAM for           local pot:       0.00 MB

     Dynamical RAM for          nlocal pot:       4.35 MB

     Dynamical RAM for                qrad:       2.78 MB

     Dynamical RAM for          rho,v,vnew:       6.03 MB

     Dynamical RAM for               rhoin:       2.01 MB

     Dynamical RAM for            rho*nmix:      15.27 MB

     Dynamical RAM for           G-vectors:       3.70 MB

     Dynamical RAM for          h,s,v(r/c):       0.46 MB

     Dynamical RAM for          <psi|beta>:       0.11 MB

     Dynamical RAM for                 psi:       3.02 MB

     Dynamical RAM for                hpsi:       3.02 MB

     Dynamical RAM for                spsi:       3.02 MB

     Dynamical RAM for      wfcinit/wfcrot:       3.20 MB

     Dynamical RAM for           addusdens:      61.07 MB

     Dynamical RAM for          addusforce:      62.83 MB

     Estimated static dynamical RAM per process >      71.34 MB

     Estimated max dynamical RAM per process >     134.17 MB

     Estimated total dynamical RAM >     805.04 MB

     Initial potential from superposition of free atoms

     starting charge   75.99954, renormalised to   80.00000
     Starting wfcs are   52 randomized atomic wfcs

     total cpu time spent up to now is        8.3 secs

     Self-consistent Calculation

     iteration #  1     ecut=    30.00 Ry     beta= 0.70
     Davidson diagonalization with overlap
     ethr =  1.00E-02,  avg # of iterations =  3.9

     total cpu time spent up to now is       38.0 secs

     total energy              =    -826.65418639 Ry
     estimated scf accuracy    <       2.64534776 Ry

     iteration #  2     ecut=    30.00 Ry     beta= 0.70
     Davidson diagonalization with overlap
     ethr =  3.31E-03,  avg # of iterations =  2.0

     total cpu time spent up to now is       60.0 secs

     total energy              =    -827.44650326 Ry
     estimated scf accuracy    <       1.10954553 Ry

     iteration #  3     ecut=    30.00 Ry     beta= 0.70
     Davidson diagonalization with overlap
     ethr =  1.39E-03,  avg # of iterations =  2.0

     total cpu time spent up to now is       82.9 secs

     total energy              =    -827.72386916 Ry
     estimated scf accuracy    <       0.06057167 Ry

     iteration #  4     ecut=    30.00 Ry     beta= 0.70
     Davidson diagonalization with overlap
     ethr =  7.57E-05,  avg # of iterations =  3.2

     total cpu time spent up to now is      107.0 secs

     total energy              =    -827.73469158 Ry
     estimated scf accuracy    <       0.00291068 Ry

     iteration #  5     ecut=    30.00 Ry     beta= 0.70
     Davidson diagonalization with overlap
     ethr =  3.64E-06,  avg # of iterations =  6.1

     total cpu time spent up to now is      139.8 secs

     total energy              =    -827.73535440 Ry
     estimated scf accuracy    <       0.00080467 Ry

     iteration #  6     ecut=    30.00 Ry     beta= 0.70
     Davidson diagonalization with overlap
     ethr =  1.01E-06,  avg # of iterations =  3.1

     total cpu time spent up to now is      164.8 secs

     total energy              =    -827.73554594 Ry
     estimated scf accuracy    <       0.00004474 Ry

     iteration #  7     ecut=    30.00 Ry     beta= 0.70
     Davidson diagonalization with overlap
     ethr =  5.59E-08,  avg # of iterations =  5.0

     total cpu time spent up to now is      194.5 secs

     total energy              =    -827.73556894 Ry
     estimated scf accuracy    <       0.00000265 Ry

     iteration #  8     ecut=    30.00 Ry     beta= 0.70
     Davidson diagonalization with overlap
     ethr =  3.32E-09,  avg # of iterations =  2.2

     total cpu time spent up to now is      215.7 secs

     total energy              =    -827.73556973 Ry
     estimated scf accuracy    <       0.00000044 Ry

     iteration #  9     ecut=    30.00 Ry     beta= 0.70
     Davidson diagonalization with overlap
     ethr =  5.50E-10,  avg # of iterations =  2.0

     total cpu time spent up to now is      236.2 secs

     End of self-consistent calculation

          k = 0.0000 0.0000 0.0000 (  3931 PWs)   bands (ev):

   -13.2633 -13.2518 -13.2485 -13.2462 -13.2461 -13.2421 -13.2392 -13.2350
   -13.2312 -13.2299 -13.2299 -13.2223 -13.2152 -13.2082 -13.1941 -13.1893
   -13.1842 -13.1807 -13.1726 -13.1633  -5.7476  -5.3974  -4.6608  -4.1608
     0.8105   1.9487   2.5391   3.0745   3.2292   4.6627   4.7024   4.7766
     5.1814   5.2379   5.8098   6.3112   6.5346   6.9884   7.3986   7.5678
     8.8501  10.9503  11.0992  11.1325  11.3571  11.4514  12.3338  12.6298
    12.7037  12.7427

     occupation numbers 
     1.0000   1.0000   1.0000   1.0000   1.0000   1.0000   1.0000   1.0000
     1.0000   1.0000   1.0000   1.0000   1.0000   1.0000   1.0000   1.0000
     1.0000   1.0000   1.0000   1.0000   1.0000   1.0000   1.0000   1.0000
     1.0000   1.0000   1.0000   1.0000   1.0000   1.0000   1.0000   1.0000
     1.0000   1.0000   1.0000   1.0000   1.0000   1.0000   1.0000   1.0000
     0.0000   0.0000   0.0000   0.0000   0.0000   0.0000   0.0000   0.0000
     0.0000   0.0000

          k = 0.0000 0.0000 0.3202 (  3939 PWs)   bands (ev):

   -13.2624 -13.2510 -13.2486 -13.2470 -13.2456 -13.2433 -13.2396 -13.2356
   -13.2308 -13.2292 -13.2275 -13.2225 -13.2147 -13.2086 -13.1942 -13.1888
   -13.1848 -13.1811 -13.1722 -13.1636  -5.6804  -5.3359  -4.6513  -4.1776
     0.5845   1.8062   2.1936   2.8123   3.2005   4.7339   4.7652   5.1516
     5.2742   5.6939   5.8782   6.3910   6.5693   7.2122   7.2700   7.5949
     8.9037  10.4013  10.9983  11.1383  11.1604  11.3512  12.1940  12.3131
    12.4638  12.6930

     occupation numbers 
     1.0000   1.0000   1.0000   1.0000   1.0000   1.0000   1.0000   1.0000
     1.0000   1.0000   1.0000   1.0000   1.0000   1.0000   1.0000   1.0000
     1.0000   1.0000   1.0000   1.0000   1.0000   1.0000   1.0000   1.0000
     1.0000   1.0000   1.0000   1.0000   1.0000   1.0000   1.0000   1.0000
     1.0000   1.0000   1.0000   1.0000   1.0000   1.0000   1.0000   1.0000
     0.0000   0.0000   0.0000   0.0000   0.0000   0.0000   0.0000   0.0000
     0.0000   0.0000

          k = 0.0000 0.0000 0.6403 (  3933 PWs)   bands (ev):

   -13.2599 -13.2491 -13.2490 -13.2487 -13.2461 -13.2445 -13.2404 -13.2372
   -13.2295 -13.2255 -13.2231 -13.2230 -13.2137 -13.2097 -13.1940 -13.1878
   -13.1864 -13.1822 -13.1711 -13.1646  -5.4906  -5.1616  -4.6514  -4.2444
     0.1698   1.3526   1.5093   2.3515   3.3698   5.0037   5.0589   5.5371
     5.7230   6.0386   6.1787   6.6242   6.8785   7.0114   7.5226   7.8393
     9.2173   9.4507  10.1736  10.2275  10.9513  11.2355  11.4561  11.5830
    12.6067  12.7501

     occupation numbers 
     1.0000   1.0000   1.0000   1.0000   1.0000   1.0000   1.0000   1.0000
     1.0000   1.0000   1.0000   1.0000   1.0000   1.0000   1.0000   1.0000
     1.0000   1.0000   1.0000   1.0000   1.0000   1.0000   1.0000   1.0000
     1.0000   1.0000   1.0000   1.0000   1.0000   1.0000   1.0000   1.0000
     1.0000   1.0000   1.0000   1.0000   1.0000   1.0000   1.0000   1.0000
     0.0000   0.0000   0.0000   0.0000   0.0000   0.0000   0.0000   0.0000
     0.0000   0.0000

          k = 0.0000 0.0000 0.9605 (  3946 PWs)   bands (ev):

   -13.2566 -13.2506 -13.2503 -13.2489 -13.2468 -13.2442 -13.2411 -13.2393
   -13.2277 -13.2243 -13.2202 -13.2184 -13.2137 -13.2118 -13.1929 -13.1886
   -13.1864 -13.1836 -13.1696 -13.1661  -5.2173  -4.9073  -4.7305  -4.3931
    -0.0660   0.5735   1.3328   1.8113   3.8103   4.9252   5.4912   5.9167
     6.1299   6.3137   6.4630   6.5657   6.9137   7.4270   7.8064   8.0314
     8.9996   9.3188   9.6078   9.7882  10.1811  10.2823  10.8446  11.1280
    11.6654  11.8378

     occupation numbers 
     1.0000   1.0000   1.0000   1.0000   1.0000   1.0000   1.0000   1.0000
     1.0000   1.0000   1.0000   1.0000   1.0000   1.0000   1.0000   1.0000
     1.0000   1.0000   1.0000   1.0000   1.0000   1.0000   1.0000   1.0000
     1.0000   1.0000   1.0000   1.0000   1.0000   1.0000   1.0000   1.0000
     1.0000   1.0000   1.0000   1.0000   1.0000   1.0000   1.0000   1.0000
     0.0000   0.0000   0.0000   0.0000   0.0000   0.0000   0.0000   0.0000
     0.0000   0.0000

          k = 0.0000 0.0000-1.2807 (  3962 PWs)   bands (ev):

   -13.2532 -13.2532 -13.2504 -13.2504 -13.2450 -13.2450 -13.2408 -13.2408
   -13.2259 -13.2259 -13.2157 -13.2157 -13.2148 -13.2148 -13.1909 -13.1909
   -13.1850 -13.1850 -13.1678 -13.1678  -4.9335  -4.9335  -4.6288  -4.6288
     0.0659   0.0659   1.4336   1.4336   4.3894   4.3894   5.9282   5.9282
     6.3054   6.3054   6.6781   6.6781   7.2601   7.2601   7.7971   7.7971
     9.3221   9.3221   9.6531   9.6531   9.7897   9.7897  10.7610  10.7610
    11.2269  11.2269

     occupation numbers 
     1.0000   1.0000   1.0000   1.0000   1.0000   1.0000   1.0000   1.0000
     1.0000   1.0000   1.0000   1.0000   1.0000   1.0000   1.0000   1.0000
     1.0000   1.0000   1.0000   1.0000   1.0000   1.0000   1.0000   1.0000
     1.0000   1.0000   1.0000   1.0000   1.0000   1.0000   1.0000   1.0000
     1.0000   1.0000   1.0000   1.0000   1.0000   1.0000   1.0000   1.0000
     0.0000   0.0000   0.0000   0.0000   0.0000   0.0000   0.0000   0.0000
     0.0000   0.0000

          k = 0.0000 0.3395 0.0000 (  3940 PWs)   bands (ev):

   -13.2598 -13.2502 -13.2475 -13.2457 -13.2447 -13.2446 -13.2417 -13.2366
   -13.2333 -13.2280 -13.2266 -13.2247 -13.2128 -13.2087 -13.1924 -13.1902
   -13.1831 -13.1825 -13.1727 -13.1646  -5.6635  -5.3258  -4.6240  -4.1649
     0.6919   1.7080   2.4621   2.6203   3.2109   4.5958   4.8816   4.9820
     5.1641   5.3300   6.0165   6.3594   6.5192   7.2447   7.4089   7.4922
     8.9812  10.3777  10.9748  11.3200  11.3405  11.3712  11.9441  12.1023
    12.5132  12.9372

     occupation numbers 
     1.0000   1.0000   1.0000   1.0000   1.0000   1.0000   1.0000   1.0000
     1.0000   1.0000   1.0000   1.0000   1.0000   1.0000   1.0000   1.0000
     1.0000   1.0000   1.0000   1.0000   1.0000   1.0000   1.0000   1.0000
     1.0000   1.0000   1.0000   1.0000   1.0000   1.0000   1.0000   1.0000
     1.0000   1.0000   1.0000   1.0000   1.0000   1.0000   1.0000   1.0000
     0.0000   0.0000   0.0000   0.0000   0.0000   0.0000   0.0000   0.0000
     0.0000   0.0000

          k = 0.0000 0.3395 0.3202 (  3942 PWs)   bands (ev):

   -13.2592 -13.2497 -13.2484 -13.2457 -13.2451 -13.2441 -13.2421 -13.2378
   -13.2329 -13.2263 -13.2251 -13.2248 -13.2127 -13.2088 -13.1926 -13.1897
   -13.1837 -13.1829 -13.1723 -13.1649  -5.5976  -5.2658  -4.6142  -4.1787
     0.5335   1.6546   2.1177   2.5389   3.2347   4.3287   4.5215   5.5009
     5.5053   5.7021   5.7428   6.3790   6.8159   7.2402   7.5447   7.5512
     9.0408   9.9496  10.5495  10.8370  11.1415  11.4821  11.8624  12.1093
    12.5283  12.9854

     occupation numbers 
     1.0000   1.0000   1.0000   1.0000   1.0000   1.0000   1.0000   1.0000
     1.0000   1.0000   1.0000   1.0000   1.0000   1.0000   1.0000   1.0000
     1.0000   1.0000   1.0000   1.0000   1.0000   1.0000   1.0000   1.0000
     1.0000   1.0000   1.0000   1.0000   1.0000   1.0000   1.0000   1.0000
     1.0000   1.0000   1.0000   1.0000   1.0000   1.0000   1.0000   1.0000
     0.0000   0.0000   0.0000   0.0000   0.0000   0.0000   0.0000   0.0000
     0.0000   0.0000

          k = 0.0000 0.3395 0.6403 (  3956 PWs)   bands (ev):

   -13.2578 -13.2506 -13.2492 -13.2460 -13.2452 -13.2440 -13.2423 -13.2405
   -13.2314 -13.2252 -13.2225 -13.2213 -13.2126 -13.2091 -13.1925 -13.1886
   -13.1852 -13.1838 -13.1713 -13.1657  -5.4122  -5.0967  -4.6122  -4.2363
     0.2167   1.3783   1.5045   2.2330   3.4624   4.2680   4.4507   5.5513
     5.7734   5.9490   6.2885   6.3505   7.0735   7.2769   7.5913   7.7017
     9.3057   9.6088   9.8714   9.8726  11.0552  11.0669  11.5292  12.0713
    12.6332  12.7992

     occupation numbers 
     1.0000   1.0000   1.0000   1.0000   1.0000   1.0000   1.0000   1.0000
     1.0000   1.0000   1.0000   1.0000   1.0000   1.0000   1.0000   1.0000
     1.0000   1.0000   1.0000   1.0000   1.0000   1.0000   1.0000   1.0000
     1.0000   1.0000   1.0000   1.0000   1.0000   1.0000   1.0000   1.0000
     1.0000   1.0000   1.0000   1.0000   1.0000   1.0000   1.0000   1.0000
     0.0000   0.0000   0.0000   0.0000   0.0000   0.0000   0.0000   0.0000
     0.0000   0.0000

          k = 0.0000 0.3395 0.9605 (  3944 PWs)   bands (ev):

   -13.2561 -13.2530 -13.2493 -13.2469 -13.2449 -13.2445 -13.2427 -13.2418
   -13.2294 -13.2262 -13.2183 -13.2166 -13.2131 -13.2102 -13.1914 -13.1873
   -13.1873 -13.1849 -13.1699 -13.1669  -5.1474  -4.8521  -4.6845  -4.3699
     0.0319   0.6567   1.3977   1.8168   3.8850   4.4974   4.6569   5.5455
     5.6629   5.7707   6.3468   6.6578   7.2832   7.2908   7.6425   7.6526
     9.2339   9.4895   9.5355   9.8951  10.6665  10.8060  11.1014  11.8001
    12.2179  12.5123

     occupation numbers 
     1.0000   1.0000   1.0000   1.0000   1.0000   1.0000   1.0000   1.0000
     1.0000   1.0000   1.0000   1.0000   1.0000   1.0000   1.0000   1.0000
     1.0000   1.0000   1.0000   1.0000   1.0000   1.0000   1.0000   1.0000
     1.0000   1.0000   1.0000   1.0000   1.0000   1.0000   1.0000   1.0000
     1.0000   1.0000   1.0000   1.0000   1.0000   1.0000   1.0000   1.0000
     0.0000   0.0000   0.0000   0.0000   0.0000   0.0000   0.0000   0.0000
     0.0000   0.0000

          k = 0.0000 0.3395-1.2807 (  3946 PWs)   bands (ev):

   -13.2547 -13.2547 -13.2483 -13.2483 -13.2450 -13.2450 -13.2423 -13.2423
   -13.2276 -13.2276 -13.2149 -13.2149 -13.2127 -13.2127 -13.1895 -13.1895
   -13.1860 -13.1860 -13.1683 -13.1683  -4.8757  -4.8757  -4.5883  -4.5883
     0.1718   0.1718   1.4964   1.4964   4.3660   4.3660   5.1518   5.1518
     5.5785   5.5785   6.5017   6.5017   7.4176   7.4176   7.6362   7.6362
     9.2067   9.2067   9.6729   9.6729  10.9065  10.9065  11.2620  11.2620
    11.9650  11.9650

     occupation numbers 
     1.0000   1.0000   1.0000   1.0000   1.0000   1.0000   1.0000   1.0000
     1.0000   1.0000   1.0000   1.0000   1.0000   1.0000   1.0000   1.0000
     1.0000   1.0000   1.0000   1.0000   1.0000   1.0000   1.0000   1.0000
     1.0000   1.0000   1.0000   1.0000   1.0000   1.0000   1.0000   1.0000
     1.0000   1.0000   1.0000   1.0000   1.0000   1.0000   1.0000   1.0000
     0.0000   0.0000   0.0000   0.0000   0.0000   0.0000   0.0000   0.0000
     0.0000   0.0000

          k = 0.0000 0.6790 0.0000 (  3954 PWs)   bands (ev):

   -13.2518 -13.2517 -13.2503 -13.2474 -13.2439 -13.2411 -13.2404 -13.2389
   -13.2340 -13.2284 -13.2255 -13.2210 -13.2108 -13.2088 -13.1930 -13.1882
   -13.1880 -13.1802 -13.1725 -13.1677  -5.4236  -5.1279  -4.5449  -4.2110
     0.4194   1.2438   1.7287   2.0624   3.4084   4.7916   5.1860   5.2483
     5.2648   5.5747   6.3290   6.4314   6.6190   7.2694   7.3926   7.8472
     9.0590   9.2951  10.3973  10.5668  10.5969  11.1926  11.2028  11.8960
    12.6261  12.7669

     occupation numbers 
     1.0000   1.0000   1.0000   1.0000   1.0000   1.0000   1.0000   1.0000
     1.0000   1.0000   1.0000   1.0000   1.0000   1.0000   1.0000   1.0000
     1.0000   1.0000   1.0000   1.0000   1.0000   1.0000   1.0000   1.0000
     1.0000   1.0000   1.0000   1.0000   1.0000   1.0000   1.0000   1.0000
     1.0000   1.0000   1.0000   1.0000   1.0000   1.0000   1.0000   1.0000
     0.0000   0.0000   0.0000   0.0000   0.0000   0.0000   0.0000   0.0000
     0.0000   0.0000

          k = 0.0000 0.6790 0.3202 (  3952 PWs)   bands (ev):

   -13.2547 -13.2515 -13.2500 -13.2482 -13.2435 -13.2410 -13.2404 -13.2388
   -13.2333 -13.2283 -13.2243 -13.2198 -13.2116 -13.2080 -13.1928 -13.1884
   -13.1879 -13.1807 -13.1722 -13.1677  -5.3624  -5.0732  -4.5333  -4.2148
     0.3940   1.2990   1.6974   1.9550   3.4911   4.1173   4.4360   5.2966
     5.7954   5.9270   5.9962   6.3347   6.9713   7.3040   7.4213   7.6286
     9.3058   9.4127   9.7916   9.9376  11.0865  11.1109  11.7155  12.0517
    12.6734  12.8193

     occupation numbers 
     1.0000   1.0000   1.0000   1.0000   1.0000   1.0000   1.0000   1.0000
     1.0000   1.0000   1.0000   1.0000   1.0000   1.0000   1.0000   1.0000
     1.0000   1.0000   1.0000   1.0000   1.0000   1.0000   1.0000   1.0000
     1.0000   1.0000   1.0000   1.0000   1.0000   1.0000   1.0000   1.0000
     1.0000   1.0000   1.0000   1.0000   1.0000   1.0000   1.0000   1.0000
     0.0000   0.0000   0.0000   0.0000   0.0000   0.0000   0.0000   0.0000
     0.0000   0.0000

          k = 0.0000 0.6790 0.6403 (  3963 PWs)   bands (ev):

   -13.2579 -13.2547 -13.2503 -13.2498 -13.2436 -13.2406 -13.2391 -13.2389
   -13.2317 -13.2283 -13.2209 -13.2167 -13.2123 -13.2075 -13.1920 -13.1887
   -13.1876 -13.1820 -13.1715 -13.1680  -5.1923  -4.9211  -4.5225  -4.2421
     0.3281   1.3831   1.4226   1.8482   3.6304   3.7305   3.9096   5.0009
     5.1907   6.0294   6.0383   6.5396   6.7372   7.1473   7.2611   7.4703
     9.0657   9.5840  10.2875  10.6318  10.8260  11.3085  11.5578  12.6048
    13.0040  13.0306

     occupation numbers 
     1.0000   1.0000   1.0000   1.0000   1.0000   1.0000   1.0000   1.0000
     1.0000   1.0000   1.0000   1.0000   1.0000   1.0000   1.0000   1.0000
     1.0000   1.0000   1.0000   1.0000   1.0000   1.0000   1.0000   1.0000
     1.0000   1.0000   1.0000   1.0000   1.0000   1.0000   1.0000   1.0000
     1.0000   1.0000   1.0000   1.0000   1.0000   1.0000   1.0000   1.0000
     0.0000   0.0000   0.0000   0.0000   0.0000   0.0000   0.0000   0.0000
     0.0000   0.0000

          k = 0.0000 0.6790 0.9605 (  3968 PWs)   bands (ev):

   -13.2603 -13.2583 -13.2522 -13.2515 -13.2428 -13.2397 -13.2393 -13.2382
   -13.2301 -13.2285 -13.2171 -13.2130 -13.2128 -13.2081 -13.1910 -13.1892
   -13.1866 -13.1835 -13.1704 -13.1685  -4.9557  -4.7083  -4.5712  -4.3278
     0.3066   0.8749   1.5294   1.7567   3.5966   3.8640   4.0362   4.6915
     4.8867   5.5833   5.5973   6.2636   6.4218   6.9383   7.0750   7.4820
     8.9950  10.2524  10.4579  11.3383  11.4148  11.5882  11.8736  12.8208
    12.8753  13.1560

     occupation numbers 
     1.0000   1.0000   1.0000   1.0000   1.0000   1.0000   1.0000   1.0000
     1.0000   1.0000   1.0000   1.0000   1.0000   1.0000   1.0000   1.0000
     1.0000   1.0000   1.0000   1.0000   1.0000   1.0000   1.0000   1.0000
     1.0000   1.0000   1.0000   1.0000   1.0000   1.0000   1.0000   1.0000
     1.0000   1.0000   1.0000   1.0000   1.0000   1.0000   1.0000   1.0000
     0.0000   0.0000   0.0000   0.0000   0.0000   0.0000   0.0000   0.0000
     0.0000   0.0000

          k = 0.0000 0.6790-1.2807 (  3960 PWs)   bands (ev):

   -13.2604 -13.2604 -13.2527 -13.2527 -13.2411 -13.2411 -13.2383 -13.2383
   -13.2290 -13.2290 -13.2142 -13.2142 -13.2099 -13.2099 -13.1899 -13.1899
   -13.1851 -13.1851 -13.1694 -13.1694  -4.7235  -4.7235  -4.4914  -4.4914
     0.4743   0.4743   1.6285   1.6285   3.9339   3.9339   4.1983   4.1983
     5.0412   5.0412   5.7301   5.7301   6.6122   6.6122   7.2067   7.2067
     9.6194   9.6194  11.0565  11.0565  12.0459  12.0459  12.5632  12.5632
    12.8549  12.8549

     occupation numbers 
     1.0000   1.0000   1.0000   1.0000   1.0000   1.0000   1.0000   1.0000
     1.0000   1.0000   1.0000   1.0000   1.0000   1.0000   1.0000   1.0000
     1.0000   1.0000   1.0000   1.0000   1.0000   1.0000   1.0000   1.0000
     1.0000   1.0000   1.0000   1.0000   1.0000   1.0000   1.0000   1.0000
     1.0000   1.0000   1.0000   1.0000   1.0000   1.0000   1.0000   1.0000
     0.0000   0.0000   0.0000   0.0000   0.0000   0.0000   0.0000   0.0000
     0.0000   0.0000

          k = 0.0000 1.0186 0.0000 (  3972 PWs)   bands (ev):

   -13.2556 -13.2531 -13.2525 -13.2498 -13.2392 -13.2391 -13.2380 -13.2339
   -13.2307 -13.2295 -13.2247 -13.2153 -13.2139 -13.2048 -13.1970 -13.1967
   -13.1822 -13.1767 -13.1724 -13.1715  -5.0702  -4.8596  -4.5127  -4.3737
     0.2261   0.8955   0.9604   1.4889   3.8803   4.9593   5.3829   5.5629
     5.7009   5.8441   6.2716   6.5716   6.9868   7.2219   7.2720   7.6287
     8.8525   9.5673   9.5832   9.6629   9.9265  10.3489  10.5311  11.2648
    11.5982  11.9953

     occupation numbers 
     1.0000   1.0000   1.0000   1.0000   1.0000   1.0000   1.0000   1.0000
     1.0000   1.0000   1.0000   1.0000   1.0000   1.0000   1.0000   1.0000
     1.0000   1.0000   1.0000   1.0000   1.0000   1.0000   1.0000   1.0000
     1.0000   1.0000   1.0000   1.0000   1.0000   1.0000   1.0000   1.0000
     1.0000   1.0000   1.0000   1.0000   1.0000   1.0000   1.0000   1.0000
     0.0000   0.0000   0.0000   0.0000   0.0000   0.0000   0.0000   0.0000
     0.0000   0.0000

          k = 0.0000 1.0186 0.3202 (  3976 PWs)   bands (ev):

   -13.2576 -13.2553 -13.2533 -13.2511 -13.2397 -13.2376 -13.2373 -13.2335
   -13.2299 -13.2293 -13.2238 -13.2153 -13.2134 -13.2051 -13.1965 -13.1961
   -13.1823 -13.1772 -13.1722 -13.1712  -5.0188  -4.8149  -4.4948  -4.3597
     0.2925   0.9652   1.0426   1.4814   3.9451   4.3148   4.6369   5.4185
     5.6578   5.6835   6.3314   6.4246   6.7063   7.1237   7.3368   7.4666
     9.1896   9.2013   9.4370   9.8021  10.8167  10.9212  11.1804  11.3981
    12.1995  12.6512

     occupation numbers 
     1.0000   1.0000   1.0000   1.0000   1.0000   1.0000   1.0000   1.0000
     1.0000   1.0000   1.0000   1.0000   1.0000   1.0000   1.0000   1.0000
     1.0000   1.0000   1.0000   1.0000   1.0000   1.0000   1.0000   1.0000
     1.0000   1.0000   1.0000   1.0000   1.0000   1.0000   1.0000   1.0000
     1.0000   1.0000   1.0000   1.0000   1.0000   1.0000   1.0000   1.0000
     0.0000   0.0000   0.0000   0.0000   0.0000   0.0000   0.0000   0.0000
     0.0000   0.0000

          k = 0.0000 1.0186 0.6403 (  3968 PWs)   bands (ev):

   -13.2619 -13.2597 -13.2557 -13.2544 -13.2393 -13.2366 -13.2349 -13.2328
   -13.2287 -13.2284 -13.2212 -13.2150 -13.2116 -13.2058 -13.1954 -13.1948
   -13.1823 -13.1784 -13.1717 -13.1707  -4.8798  -4.6950  -4.4608  -4.3342
     0.4686   1.1271   1.2664   1.4460   3.5177   3.9375   4.0926   4.6056
     4.9561   5.6190   5.6655   5.9860   6.3952   6.5237   7.0780   7.4374
     8.8915  10.2470  10.2817  10.9812  11.3406  11.6803  12.2705  12.4587
    12.6581  12.7663

     occupation numbers 
     1.0000   1.0000   1.0000   1.0000   1.0000   1.0000   1.0000   1.0000
     1.0000   1.0000   1.0000   1.0000   1.0000   1.0000   1.0000   1.0000
     1.0000   1.0000   1.0000   1.0000   1.0000   1.0000   1.0000   1.0000
     1.0000   1.0000   1.0000   1.0000   1.0000   1.0000   1.0000   1.0000
     1.0000   1.0000   1.0000   1.0000   1.0000   1.0000   1.0000   1.0000
     0.0000   0.0000   0.0000   0.0000   0.0000   0.0000   0.0000   0.0000
     0.0000   0.0000

          k = 0.0000 1.0186 0.9605 (  3955 PWs)   bands (ev):

   -13.2655 -13.2642 -13.2584 -13.2577 -13.2384 -13.2364 -13.2331 -13.2322
   -13.2278 -13.2275 -13.2182 -13.2149 -13.2093 -13.2065 -13.1942 -13.1938
   -13.1817 -13.1795 -13.1710 -13.1705  -4.6984  -4.5403  -4.4605  -4.3376
     0.6913   1.1181   1.5224   1.5341   3.1270   3.5840   3.8186   4.0857
     4.6704   5.0175   5.0684   5.6585   5.9384   6.1544   6.9230   6.9566
     9.5049  10.9626  11.2455  11.3543  12.3107  12.3739  12.6235  12.9611
    13.0956  13.2606

     occupation numbers 
     1.0000   1.0000   1.0000   1.0000   1.0000   1.0000   1.0000   1.0000
     1.0000   1.0000   1.0000   1.0000   1.0000   1.0000   1.0000   1.0000
     1.0000   1.0000   1.0000   1.0000   1.0000   1.0000   1.0000   1.0000
     1.0000   1.0000   1.0000   1.0000   1.0000   1.0000   1.0000   1.0000
     1.0000   1.0000   1.0000   1.0000   1.0000   1.0000   1.0000   1.0000
     0.0000   0.0000   0.0000   0.0000   0.0000   0.0000   0.0000   0.0000
     0.0000   0.0000

          k = 0.0000 1.0186-1.2807 (  3974 PWs)   bands (ev):

   -13.2665 -13.2665 -13.2593 -13.2593 -13.2373 -13.2373 -13.2323 -13.2323
   -13.2273 -13.2273 -13.2160 -13.2160 -13.2075 -13.2075 -13.1936 -13.1936
   -13.1806 -13.1806 -13.1706 -13.1706  -4.5405  -4.5405  -4.4068  -4.4068
     0.9126   0.9126   1.6409   1.6409   3.2559   3.2559   3.7441   3.7441
     4.5814   4.5814   5.3362   5.3362   5.8418   5.8418   6.8302   6.8302
    10.2678  10.2678  11.6657  11.6657  12.7740  12.7740  13.0108  13.0108
    13.2131  13.2131

     occupation numbers 
     1.0000   1.0000   1.0000   1.0000   1.0000   1.0000   1.0000   1.0000
     1.0000   1.0000   1.0000   1.0000   1.0000   1.0000   1.0000   1.0000
     1.0000   1.0000   1.0000   1.0000   1.0000   1.0000   1.0000   1.0000
     1.0000   1.0000   1.0000   1.0000   1.0000   1.0000   1.0000   1.0000
     1.0000   1.0000   1.0000   1.0000   1.0000   1.0000   1.0000   1.0000
     0.0000   0.0000   0.0000   0.0000   0.0000   0.0000   0.0000   0.0000
     0.0000   0.0000

          k = 0.0000-1.3581 0.0000 (  3994 PWs)   bands (ev):

   -13.2563 -13.2563 -13.2524 -13.2524 -13.2373 -13.2373 -13.2355 -13.2355
   -13.2261 -13.2261 -13.2226 -13.2226 -13.2057 -13.2057 -13.2010 -13.2010
   -13.1764 -13.1764 -13.1738 -13.1738  -4.6837  -4.6837  -4.6203  -4.6203
     0.3589   0.3589   1.0556   1.0556   4.4838   4.4838   5.8495   5.8495
     5.8646   5.8646   6.3763   6.3763   7.1074   7.1074   7.3071   7.3071
     9.1113   9.1113   9.5454   9.5454   9.8213   9.8213  10.6277  10.6277
    11.3373  11.3373

     occupation numbers 
     1.0000   1.0000   1.0000   1.0000   1.0000   1.0000   1.0000   1.0000
     1.0000   1.0000   1.0000   1.0000   1.0000   1.0000   1.0000   1.0000
     1.0000   1.0000   1.0000   1.0000   1.0000   1.0000   1.0000   1.0000
     1.0000   1.0000   1.0000   1.0000   1.0000   1.0000   1.0000   1.0000
     1.0000   1.0000   1.0000   1.0000   1.0000   1.0000   1.0000   1.0000
     0.0000   0.0000   0.0000   0.0000   0.0000   0.0000   0.0000   0.0000
     0.0000   0.0000

          k = 0.0000-1.3581 0.3202 (  3990 PWs)   bands (ev):

   -13.2583 -13.2583 -13.2537 -13.2537 -13.2372 -13.2372 -13.2344 -13.2344
   -13.2259 -13.2259 -13.2218 -13.2218 -13.2064 -13.2064 -13.1997 -13.1997
   -13.1769 -13.1769 -13.1733 -13.1733  -4.6489  -4.6489  -4.5896  -4.5896
     0.4514   0.4514   1.1131   1.1131   4.4274   4.4274   4.9877   4.9877
     5.5638   5.5638   6.4645   6.4645   6.7110   6.7110   7.4345   7.4345
     8.9533   8.9533   9.7742   9.7742  10.6432  10.6432  11.3873  11.3873
    11.8566  11.8566

     occupation numbers 
     1.0000   1.0000   1.0000   1.0000   1.0000   1.0000   1.0000   1.0000
     1.0000   1.0000   1.0000   1.0000   1.0000   1.0000   1.0000   1.0000
     1.0000   1.0000   1.0000   1.0000   1.0000   1.0000   1.0000   1.0000
     1.0000   1.0000   1.0000   1.0000   1.0000   1.0000   1.0000   1.0000
     1.0000   1.0000   1.0000   1.0000   1.0000   1.0000   1.0000   1.0000
     0.0000   0.0000   0.0000   0.0000   0.0000   0.0000   0.0000   0.0000
     0.0000   0.0000

          k = 0.0000-1.3581 0.6403 (  3970 PWs)   bands (ev):

   -13.2629 -13.2629 -13.2571 -13.2571 -13.2368 -13.2368 -13.2322 -13.2322
   -13.2253 -13.2253 -13.2201 -13.2201 -13.2069 -13.2069 -13.1976 -13.1976
   -13.1777 -13.1777 -13.1724 -13.1724  -4.5610  -4.5610  -4.5142  -4.5142
     0.7128   0.7128   1.2579   1.2579   3.9055   3.9055   4.2939   4.2939
     5.0686   5.0686   5.7329   5.7329   6.1390   6.1390   7.1996   7.1996
     9.4533   9.4533  11.0088  11.0088  11.9104  11.9104  12.2329  12.2329
    12.6168  12.6168

     occupation numbers 
     1.0000   1.0000   1.0000   1.0000   1.0000   1.0000   1.0000   1.0000
     1.0000   1.0000   1.0000   1.0000   1.0000   1.0000   1.0000   1.0000
     1.0000   1.0000   1.0000   1.0000   1.0000   1.0000   1.0000   1.0000
     1.0000   1.0000   1.0000   1.0000   1.0000   1.0000   1.0000   1.0000
     1.0000   1.0000   1.0000   1.0000   1.0000   1.0000   1.0000   1.0000
     0.0000   0.0000   0.0000   0.0000   0.0000   0.0000   0.0000   0.0000
     0.0000   0.0000

          k = 0.0000-1.3581 0.9605 (  3962 PWs)   bands (ev):

   -13.2673 -13.2673 -13.2604 -13.2604 -13.2365 -13.2365 -13.2305 -13.2305
   -13.2245 -13.2245 -13.2188 -13.2188 -13.2066 -13.2066 -13.1959 -13.1959
   -13.1780 -13.1780 -13.1719 -13.1719  -4.4655  -4.4655  -4.4382  -4.4382
     1.0697   1.0697   1.4019   1.4019   3.2705   3.2705   3.8274   3.8274
     4.5579   4.5579   5.3429   5.3429   5.7141   5.7141   6.8224   6.8224
    10.2931  10.2931  11.5289  11.5289  12.6432  12.6432  12.8370  12.8370
    13.1707  13.1707

     occupation numbers 
     1.0000   1.0000   1.0000   1.0000   1.0000   1.0000   1.0000   1.0000
     1.0000   1.0000   1.0000   1.0000   1.0000   1.0000   1.0000   1.0000
     1.0000   1.0000   1.0000   1.0000   1.0000   1.0000   1.0000   1.0000
     1.0000   1.0000   1.0000   1.0000   1.0000   1.0000   1.0000   1.0000
     1.0000   1.0000   1.0000   1.0000   1.0000   1.0000   1.0000   1.0000
     0.0000   0.0000   0.0000   0.0000   0.0000   0.0000   0.0000   0.0000
     0.0000   0.0000

          k = 0.0000-1.3581-1.2807 (  3956 PWs)   bands (ev):

   -13.2691 -13.2691 -13.2618 -13.2618 -13.2364 -13.2364 -13.2299 -13.2299
   -13.2242 -13.2242 -13.2184 -13.2184 -13.2062 -13.2062 -13.1953 -13.1953
   -13.1780 -13.1780 -13.1717 -13.1717  -4.4199  -4.4199  -4.4101  -4.4101
     1.2897   1.2897   1.4399   1.4399   3.0381   3.0381   3.5535   3.5535
     4.4684   4.4684   4.9496   4.9496   5.8008   5.8008   6.6420   6.6420
    10.8679  10.8679  11.1748  11.1748  12.8449  12.8449  12.9777  12.9777
    13.7135  13.7135

     occupation numbers 
     1.0000   1.0000   1.0000   1.0000   1.0000   1.0000   1.0000   1.0000
     1.0000   1.0000   1.0000   1.0000   1.0000   1.0000   1.0000   1.0000
     1.0000   1.0000   1.0000   1.0000   1.0000   1.0000   1.0000   1.0000
     1.0000   1.0000   1.0000   1.0000   1.0000   1.0000   1.0000   1.0000
     1.0000   1.0000   1.0000   1.0000   1.0000   1.0000   1.0000   1.0000
     0.0000   0.0000   0.0000   0.0000   0.0000   0.0000   0.0000   0.0000
     0.0000   0.0000

          k = 0.3333 0.0000 0.0000 (  3944 PWs)   bands (ev):

   -13.2606 -13.2545 -13.2489 -13.2472 -13.2456 -13.2438 -13.2375 -13.2356
   -13.2295 -13.2293 -13.2293 -13.2249 -13.2134 -13.2099 -13.1928 -13.1904
   -13.1833 -13.1815 -13.1700 -13.1654  -5.6828  -5.5173  -4.5037  -4.2632
     0.9610   1.4149   2.9565   3.0517   3.5854   4.3866   4.7505   4.9341
     4.9853   5.3939   6.0558   6.1296   6.1493   6.3936   7.4750   7.5637
    10.0736  10.7138  10.8040  11.2456  11.5929  11.7144  12.0124  12.3252
    12.9929  13.0559

     occupation numbers 
     1.0000   1.0000   1.0000   1.0000   1.0000   1.0000   1.0000   1.0000
     1.0000   1.0000   1.0000   1.0000   1.0000   1.0000   1.0000   1.0000
     1.0000   1.0000   1.0000   1.0000   1.0000   1.0000   1.0000   1.0000
     1.0000   1.0000   1.0000   1.0000   1.0000   1.0000   1.0000   1.0000
     1.0000   1.0000   1.0000   1.0000   1.0000   1.0000   1.0000   1.0000
     0.0000   0.0000   0.0000   0.0000   0.0000   0.0000   0.0000   0.0000
     0.0000   0.0000

          k = 0.3333 0.0000 0.3202 (  3955 PWs)   bands (ev):

   -13.2599 -13.2541 -13.2483 -13.2466 -13.2463 -13.2446 -13.2383 -13.2364
   -13.2289 -13.2282 -13.2275 -13.2248 -13.2132 -13.2101 -13.1928 -13.1902
   -13.1837 -13.1820 -13.1698 -13.1656  -5.6169  -5.4545  -4.5004  -4.2734
     0.7488   1.2340   2.5484   2.7667   3.6875   4.5708   4.8515   5.0818
     5.1484   5.5645   6.1150   6.2620   6.4363   6.6100   7.3677   7.5526
    10.0279  10.5420  10.9484  11.1499  11.1863  11.3822  11.5910  12.1848
    12.8268  12.9476

     occupation numbers 
     1.0000   1.0000   1.0000   1.0000   1.0000   1.0000   1.0000   1.0000
     1.0000   1.0000   1.0000   1.0000   1.0000   1.0000   1.0000   1.0000
     1.0000   1.0000   1.0000   1.0000   1.0000   1.0000   1.0000   1.0000
     1.0000   1.0000   1.0000   1.0000   1.0000   1.0000   1.0000   1.0000
     1.0000   1.0000   1.0000   1.0000   1.0000   1.0000   1.0000   1.0000
     0.0000   0.0000   0.0000   0.0000   0.0000   0.0000   0.0000   0.0000
     0.0000   0.0000

          k = 0.3333 0.0000 0.6403 (  3945 PWs)   bands (ev):

   -13.2579 -13.2531 -13.2480 -13.2470 -13.2466 -13.2454 -13.2401 -13.2383
   -13.2278 -13.2246 -13.2244 -13.2233 -13.2129 -13.2109 -13.1926 -13.1898
   -13.1848 -13.1830 -13.1694 -13.1661  -5.4314  -5.2782  -4.5152  -4.3230
     0.3445   0.8274   1.8540   2.1865   3.9252   4.8997   5.1398   5.3552
     5.5867   5.8977   6.2471   6.5162   6.7724   7.0576   7.3350   7.6205
     9.7223  10.1147  10.3343  10.5298  10.7742  10.8060  11.2582  12.0413
    12.1244  12.5344

     occupation numbers 
     1.0000   1.0000   1.0000   1.0000   1.0000   1.0000   1.0000   1.0000
     1.0000   1.0000   1.0000   1.0000   1.0000   1.0000   1.0000   1.0000
     1.0000   1.0000   1.0000   1.0000   1.0000   1.0000   1.0000   1.0000
     1.0000   1.0000   1.0000   1.0000   1.0000   1.0000   1.0000   1.0000
     1.0000   1.0000   1.0000   1.0000   1.0000   1.0000   1.0000   1.0000
     0.0000   0.0000   0.0000   0.0000   0.0000   0.0000   0.0000   0.0000
     0.0000   0.0000

          k = 0.3333 0.0000 0.9605 (  3947 PWs)   bands (ev):

   -13.2552 -13.2523 -13.2496 -13.2487 -13.2460 -13.2448 -13.2415 -13.2404
   -13.2265 -13.2248 -13.2195 -13.2186 -13.2134 -13.2124 -13.1918 -13.1897
   -13.1856 -13.1842 -13.1687 -13.1669  -5.1679  -5.0347  -4.5968  -4.4499
     0.0844   0.4161   1.3619   1.6217   4.3348   5.2107   5.5594   5.6129
     5.7418   6.2055   6.3053   6.4928   7.0322   7.1959   7.8029   7.9732
     9.1600   9.5170   9.7543  10.0302  10.0856  10.4857  10.8688  11.2991
    11.6480  11.7683

     occupation numbers 
     1.0000   1.0000   1.0000   1.0000   1.0000   1.0000   1.0000   1.0000
     1.0000   1.0000   1.0000   1.0000   1.0000   1.0000   1.0000   1.0000
     1.0000   1.0000   1.0000   1.0000   1.0000   1.0000   1.0000   1.0000
     1.0000   1.0000   1.0000   1.0000   1.0000   1.0000   1.0000   1.0000
     1.0000   1.0000   1.0000   1.0000   1.0000   1.0000   1.0000   1.0000
     0.0000   0.0000   0.0000   0.0000   0.0000   0.0000   0.0000   0.0000
     0.0000   0.0000

          k = 0.3333 0.0000-1.2807 (  3952 PWs)   bands (ev):

   -13.2530 -13.2530 -13.2499 -13.2499 -13.2452 -13.2452 -13.2417 -13.2417
   -13.2255 -13.2255 -13.2154 -13.2154 -13.2150 -13.2150 -13.1906 -13.1906
   -13.1852 -13.1852 -13.1678 -13.1678  -4.9312  -4.9312  -4.6321  -4.6321
     0.1240   0.1240   1.2936   1.2936   4.8629   4.8629   5.9222   5.9222
     5.9381   5.9381   6.2908   6.2908   7.4889   7.4889   7.8283   7.8283
     9.2578   9.2578   9.6997   9.6997   9.8306   9.8306  11.1470  11.1470
    11.2309  11.2309

     occupation numbers 
     1.0000   1.0000   1.0000   1.0000   1.0000   1.0000   1.0000   1.0000
     1.0000   1.0000   1.0000   1.0000   1.0000   1.0000   1.0000   1.0000
     1.0000   1.0000   1.0000   1.0000   1.0000   1.0000   1.0000   1.0000
     1.0000   1.0000   1.0000   1.0000   1.0000   1.0000   1.0000   1.0000
     1.0000   1.0000   1.0000   1.0000   1.0000   1.0000   1.0000   1.0000
     0.0000   0.0000   0.0000   0.0000   0.0000   0.0000   0.0000   0.0000
     0.0000   0.0000

          k = 0.3333 0.3395 0.0000 (  3948 PWs)   bands (ev):

   -13.2575 -13.2523 -13.2470 -13.2470 -13.2456 -13.2455 -13.2396 -13.2374
   -13.2314 -13.2281 -13.2264 -13.2261 -13.2119 -13.2099 -13.1914 -13.1903
   -13.1832 -13.1829 -13.1704 -13.1664  -5.6008  -5.4410  -4.4782  -4.2577
     0.8378   1.2677   2.6454   2.6586   3.6473   4.4781   4.7000   4.9832
     5.2116   5.5056   6.0526   6.1864   6.4031   6.4667   7.5235   7.5607
    10.1513  10.5912  10.9296  11.0250  11.2605  11.4541  11.5305  12.1905
    12.8261  13.1034

     occupation numbers 
     1.0000   1.0000   1.0000   1.0000   1.0000   1.0000   1.0000   1.0000
     1.0000   1.0000   1.0000   1.0000   1.0000   1.0000   1.0000   1.0000
     1.0000   1.0000   1.0000   1.0000   1.0000   1.0000   1.0000   1.0000
     1.0000   1.0000   1.0000   1.0000   1.0000   1.0000   1.0000   1.0000
     1.0000   1.0000   1.0000   1.0000   1.0000   1.0000   1.0000   1.0000
     0.0000   0.0000   0.0000   0.0000   0.0000   0.0000   0.0000   0.0000
     0.0000   0.0000

          k = 0.3333 0.3395 0.3202 (  3946 PWs)   bands (ev):

   -13.2570 -13.2521 -13.2478 -13.2464 -13.2462 -13.2450 -13.2403 -13.2383
   -13.2309 -13.2273 -13.2252 -13.2250 -13.2120 -13.2100 -13.1915 -13.1900
   -13.1838 -13.1834 -13.1702 -13.1666  -5.5362  -5.3796  -4.4742  -4.2657
     0.6943   1.1602   2.3589   2.5018   3.7363   4.3558   4.6046   4.9388
     5.4550   5.8145   5.8918   6.0539   6.7990   7.0209   7.4320   7.5795
     9.9547  10.1132  10.5215  10.9583  11.1369  11.3811  11.7763  12.1915
    12.4165  12.7056

     occupation numbers 
     1.0000   1.0000   1.0000   1.0000   1.0000   1.0000   1.0000   1.0000
     1.0000   1.0000   1.0000   1.0000   1.0000   1.0000   1.0000   1.0000
     1.0000   1.0000   1.0000   1.0000   1.0000   1.0000   1.0000   1.0000
     1.0000   1.0000   1.0000   1.0000   1.0000   1.0000   1.0000   1.0000
     1.0000   1.0000   1.0000   1.0000   1.0000   1.0000   1.0000   1.0000
     0.0000   0.0000   0.0000   0.0000   0.0000   0.0000   0.0000   0.0000
     0.0000   0.0000

          k = 0.3333 0.3395 0.6403 (  3950 PWs)   bands (ev):

   -13.2559 -13.2517 -13.2499 -13.2479 -13.2447 -13.2438 -13.2417 -13.2403
   -13.2296 -13.2266 -13.2220 -13.2214 -13.2121 -13.2103 -13.1912 -13.1893
   -13.1852 -13.1845 -13.1697 -13.1669  -5.3552  -5.2081  -4.4855  -4.3082
     0.3898   0.8644   1.8233   2.0992   3.9584   4.3301   4.5788   5.2605
     5.4044   5.7524   6.3111   6.4524   7.1564   7.2439   7.4168   7.5910
     9.5958   9.6834  10.1421  10.4812  10.7814  11.2057  11.6115  11.7242
    12.4026  12.5429

     occupation numbers 
     1.0000   1.0000   1.0000   1.0000   1.0000   1.0000   1.0000   1.0000
     1.0000   1.0000   1.0000   1.0000   1.0000   1.0000   1.0000   1.0000
     1.0000   1.0000   1.0000   1.0000   1.0000   1.0000   1.0000   1.0000
     1.0000   1.0000   1.0000   1.0000   1.0000   1.0000   1.0000   1.0000
     1.0000   1.0000   1.0000   1.0000   1.0000   1.0000   1.0000   1.0000
     0.0000   0.0000   0.0000   0.0000   0.0000   0.0000   0.0000   0.0000
     0.0000   0.0000

          k = 0.3333 0.3395 0.9605 (  3946 PWs)   bands (ev):

   -13.2548 -13.2525 -13.2511 -13.2495 -13.2439 -13.2433 -13.2427 -13.2417
   -13.2283 -13.2267 -13.2179 -13.2171 -13.2126 -13.2112 -13.1904 -13.1885
   -13.1867 -13.1857 -13.1689 -13.1674  -5.1001  -4.9729  -4.5593  -4.4225
     0.1792   0.5028   1.4202   1.6493   4.2963   4.5898   4.8809   5.2989
     5.5527   5.7449   6.1154   6.5548   7.1167   7.2871   7.4848   7.5910
     9.4314   9.7747   9.8924  10.1524  10.6053  10.9846  11.0927  11.3467
    12.3077  12.4347

     occupation numbers 
     1.0000   1.0000   1.0000   1.0000   1.0000   1.0000   1.0000   1.0000
     1.0000   1.0000   1.0000   1.0000   1.0000   1.0000   1.0000   1.0000
     1.0000   1.0000   1.0000   1.0000   1.0000   1.0000   1.0000   1.0000
     1.0000   1.0000   1.0000   1.0000   1.0000   1.0000   1.0000   1.0000
     1.0000   1.0000   1.0000   1.0000   1.0000   1.0000   1.0000   1.0000
     0.0000   0.0000   0.0000   0.0000   0.0000   0.0000   0.0000   0.0000
     0.0000   0.0000

          k = 0.3333 0.3395-1.2807 (  3956 PWs)   bands (ev):

   -13.2539 -13.2539 -13.2505 -13.2505 -13.2437 -13.2437 -13.2423 -13.2423
   -13.2273 -13.2273 -13.2149 -13.2149 -13.2129 -13.2129 -13.1890 -13.1890
   -13.1868 -13.1868 -13.1681 -13.1681  -4.8735  -4.8735  -4.5913  -4.5913
     0.2260   0.2260   1.3680   1.3680   4.7007   4.7007   5.1594   5.1594
     5.5488   5.5488   6.2270   6.2270   7.2137   7.2137   7.5433   7.5433
     9.5962   9.5962   9.9527   9.9527  10.6573  10.6573  11.2787  11.2787
    12.0580  12.0580

     occupation numbers 
     1.0000   1.0000   1.0000   1.0000   1.0000   1.0000   1.0000   1.0000
     1.0000   1.0000   1.0000   1.0000   1.0000   1.0000   1.0000   1.0000
     1.0000   1.0000   1.0000   1.0000   1.0000   1.0000   1.0000   1.0000
     1.0000   1.0000   1.0000   1.0000   1.0000   1.0000   1.0000   1.0000
     1.0000   1.0000   1.0000   1.0000   1.0000   1.0000   1.0000   1.0000
     0.0000   0.0000   0.0000   0.0000   0.0000   0.0000   0.0000   0.0000
     0.0000   0.0000

          k = 0.3333 0.6790 0.0000 (  3973 PWs)   bands (ev):

   -13.2526 -13.2523 -13.2484 -13.2470 -13.2429 -13.2419 -13.2408 -13.2406
   -13.2324 -13.2296 -13.2244 -13.2222 -13.2103 -13.2093 -13.1923 -13.1906
   -13.1848 -13.1816 -13.1712 -13.1688  -5.3679  -5.2274  -4.4348  -4.2753
     0.5572   0.9368   1.8210   2.0060   3.8859   4.7508   4.8903   5.1280
     5.5241   5.7674   6.1791   6.3068   6.4689   6.7998   7.5033   7.7023
     9.3647  10.0143  10.3878  10.5545  10.7490  11.2869  11.3464  11.9460
    12.3042  12.3555

     occupation numbers 
     1.0000   1.0000   1.0000   1.0000   1.0000   1.0000   1.0000   1.0000
     1.0000   1.0000   1.0000   1.0000   1.0000   1.0000   1.0000   1.0000
     1.0000   1.0000   1.0000   1.0000   1.0000   1.0000   1.0000   1.0000
     1.0000   1.0000   1.0000   1.0000   1.0000   1.0000   1.0000   1.0000
     1.0000   1.0000   1.0000   1.0000   1.0000   1.0000   1.0000   1.0000
     0.0000   0.0000   0.0000   0.0000   0.0000   0.0000   0.0000   0.0000
     0.0000   0.0000

          k = 0.3333 0.6790 0.3202 (  3959 PWs)   bands (ev):

   -13.2543 -13.2527 -13.2493 -13.2476 -13.2430 -13.2415 -13.2408 -13.2397
   -13.2318 -13.2294 -13.2231 -13.2210 -13.2106 -13.2089 -13.1922 -13.1907
   -13.1849 -13.1820 -13.1710 -13.1688  -5.3081  -5.1710  -4.4273  -4.2756
     0.5445   0.9544   1.7909   1.9244   3.9106   4.1949   4.5515   5.0462
     5.4624   5.7898   6.1742   6.2905   6.9124   7.0283   7.4739   7.5768
     9.4190   9.6083  10.2550  10.5208  10.8770  11.1741  11.5487  11.8707
    12.2319  12.6103

     occupation numbers 
     1.0000   1.0000   1.0000   1.0000   1.0000   1.0000   1.0000   1.0000
     1.0000   1.0000   1.0000   1.0000   1.0000   1.0000   1.0000   1.0000
     1.0000   1.0000   1.0000   1.0000   1.0000   1.0000   1.0000   1.0000
     1.0000   1.0000   1.0000   1.0000   1.0000   1.0000   1.0000   1.0000
     1.0000   1.0000   1.0000   1.0000   1.0000   1.0000   1.0000   1.0000
     0.0000   0.0000   0.0000   0.0000   0.0000   0.0000   0.0000   0.0000
     0.0000   0.0000

          k = 0.3333 0.6790 0.6403 (  3953 PWs)   bands (ev):

   -13.2571 -13.2551 -13.2515 -13.2498 -13.2425 -13.2410 -13.2392 -13.2388
   -13.2307 -13.2290 -13.2201 -13.2182 -13.2107 -13.2086 -13.1919 -13.1907
   -13.1853 -13.1829 -13.1704 -13.1687  -5.1425  -5.0155  -4.4255  -4.2939
     0.4928   0.9293   1.6493   1.7869   3.7203   3.8365   4.3869   4.8520
     4.9674   5.5766   6.3146   6.5205   6.6045   6.6845   7.4471   7.6024
     9.5986   9.9762  10.1433  10.5124  10.8664  11.2945  11.5968  12.1449
    12.5399  12.9372

     occupation numbers 
     1.0000   1.0000   1.0000   1.0000   1.0000   1.0000   1.0000   1.0000
     1.0000   1.0000   1.0000   1.0000   1.0000   1.0000   1.0000   1.0000
     1.0000   1.0000   1.0000   1.0000   1.0000   1.0000   1.0000   1.0000
     1.0000   1.0000   1.0000   1.0000   1.0000   1.0000   1.0000   1.0000
     1.0000   1.0000   1.0000   1.0000   1.0000   1.0000   1.0000   1.0000
     0.0000   0.0000   0.0000   0.0000   0.0000   0.0000   0.0000   0.0000
     0.0000   0.0000

          k = 0.3333 0.6790 0.9605 (  3956 PWs)   bands (ev):

   -13.2594 -13.2581 -13.2536 -13.2526 -13.2415 -13.2403 -13.2382 -13.2380
   -13.2296 -13.2288 -13.2170 -13.2156 -13.2101 -13.2085 -13.1914 -13.1907
   -13.1853 -13.1839 -13.1696 -13.1687  -4.9153  -4.8081  -4.4726  -4.3674
     0.4423   0.7352   1.5278   1.6562   3.6731   3.8188   4.4698   4.6082
     4.8112   5.4538   5.8624   6.1223   6.3305   6.4919   7.1297   7.3856
     9.8236  10.4119  10.6533  10.8634  11.3356  11.5431  11.7612  12.2111
    12.6674  12.9727

     occupation numbers 
     1.0000   1.0000   1.0000   1.0000   1.0000   1.0000   1.0000   1.0000
     1.0000   1.0000   1.0000   1.0000   1.0000   1.0000   1.0000   1.0000
     1.0000   1.0000   1.0000   1.0000   1.0000   1.0000   1.0000   1.0000
     1.0000   1.0000   1.0000   1.0000   1.0000   1.0000   1.0000   1.0000
     1.0000   1.0000   1.0000   1.0000   1.0000   1.0000   1.0000   1.0000
     0.0000   0.0000   0.0000   0.0000   0.0000   0.0000   0.0000   0.0000
     0.0000   0.0000

          k = 0.3333 0.6790-1.2807 (  3948 PWs)   bands (ev):

   -13.2598 -13.2598 -13.2541 -13.2541 -13.2405 -13.2405 -13.2379 -13.2379
   -13.2289 -13.2289 -13.2151 -13.2151 -13.2091 -13.2091 -13.1910 -13.1910
   -13.1848 -13.1848 -13.1690 -13.1690  -4.7218  -4.7218  -4.4937  -4.4937
     0.5155   0.5155   1.5395   1.5395   3.9844   3.9844   4.2011   4.2011
     5.1947   5.1947   5.8287   5.8287   6.3224   6.3224   7.0448   7.0448
    10.2105  10.2105  11.2047  11.2047  11.4169  11.4169  12.1454  12.1454
    12.9381  12.9381

     occupation numbers 
     1.0000   1.0000   1.0000   1.0000   1.0000   1.0000   1.0000   1.0000
     1.0000   1.0000   1.0000   1.0000   1.0000   1.0000   1.0000   1.0000
     1.0000   1.0000   1.0000   1.0000   1.0000   1.0000   1.0000   1.0000
     1.0000   1.0000   1.0000   1.0000   1.0000   1.0000   1.0000   1.0000
     1.0000   1.0000   1.0000   1.0000   1.0000   1.0000   1.0000   1.0000
     0.0000   0.0000   0.0000   0.0000   0.0000   0.0000   0.0000   0.0000
     0.0000   0.0000

          k = 0.3333 1.0186 0.0000 (  3971 PWs)   bands (ev):

   -13.2553 -13.2538 -13.2521 -13.2503 -13.2389 -13.2385 -13.2380 -13.2356
   -13.2298 -13.2292 -13.2231 -13.2196 -13.2097 -13.2062 -13.1971 -13.1970
   -13.1807 -13.1780 -13.1722 -13.1717  -5.0288  -4.9279  -4.4620  -4.3969
     0.3660   0.7192   1.0298   1.3258   4.3331   5.1998   5.2025   5.4592
     5.5970   6.0860   6.2516   6.2749   6.6868   6.7347   7.4799   7.6192
     9.0143   9.2595   9.9394   9.9868  10.5147  10.5391  10.6937  11.0722
    11.3453  12.0742

     occupation numbers 
     1.0000   1.0000   1.0000   1.0000   1.0000   1.0000   1.0000   1.0000
     1.0000   1.0000   1.0000   1.0000   1.0000   1.0000   1.0000   1.0000
     1.0000   1.0000   1.0000   1.0000   1.0000   1.0000   1.0000   1.0000
     1.0000   1.0000   1.0000   1.0000   1.0000   1.0000   1.0000   1.0000
     1.0000   1.0000   1.0000   1.0000   1.0000   1.0000   1.0000   1.0000
     0.0000   0.0000   0.0000   0.0000   0.0000   0.0000   0.0000   0.0000
     0.0000   0.0000

          k = 0.3333 1.0186 0.3202 (  3968 PWs)   bands (ev):

   -13.2570 -13.2552 -13.2536 -13.2518 -13.2387 -13.2376 -13.2372 -13.2353
   -13.2291 -13.2289 -13.2224 -13.2192 -13.2093 -13.2061 -13.1970 -13.1966
   -13.1807 -13.1782 -13.1720 -13.1716  -4.9788  -4.8813  -4.4454  -4.3823
     0.4359   0.7932   1.0885   1.3440   4.2674   4.4036   4.8432   5.2191
     5.5519   5.7480   6.0572   6.4149   6.7041   6.8444   7.2028   7.3734
     9.4645   9.5411   9.7803   9.9325  10.8274  10.8497  11.2282  11.5115
    11.8861  12.4361

     occupation numbers 
     1.0000   1.0000   1.0000   1.0000   1.0000   1.0000   1.0000   1.0000
     1.0000   1.0000   1.0000   1.0000   1.0000   1.0000   1.0000   1.0000
     1.0000   1.0000   1.0000   1.0000   1.0000   1.0000   1.0000   1.0000
     1.0000   1.0000   1.0000   1.0000   1.0000   1.0000   1.0000   1.0000
     1.0000   1.0000   1.0000   1.0000   1.0000   1.0000   1.0000   1.0000
     0.0000   0.0000   0.0000   0.0000   0.0000   0.0000   0.0000   0.0000
     0.0000   0.0000

          k = 0.3333 1.0186 0.6403 (  3953 PWs)   bands (ev):

   -13.2608 -13.2590 -13.2569 -13.2553 -13.2381 -13.2362 -13.2357 -13.2345
   -13.2280 -13.2276 -13.2205 -13.2181 -13.2081 -13.2058 -13.1965 -13.1959
   -13.1806 -13.1787 -13.1716 -13.1712  -4.8444  -4.7569  -4.4134  -4.3551
     0.6135   0.9622   1.2507   1.3868   3.6329   3.8360   4.5820   4.6463
     4.8052   5.3281   5.6359   6.0980   6.1651   6.6129   6.8872   7.3439
     9.6864  10.2701  10.4658  10.8692  11.1964  11.3698  12.0771  12.1750
    12.2576  12.5554

     occupation numbers 
     1.0000   1.0000   1.0000   1.0000   1.0000   1.0000   1.0000   1.0000
     1.0000   1.0000   1.0000   1.0000   1.0000   1.0000   1.0000   1.0000
     1.0000   1.0000   1.0000   1.0000   1.0000   1.0000   1.0000   1.0000
     1.0000   1.0000   1.0000   1.0000   1.0000   1.0000   1.0000   1.0000
     1.0000   1.0000   1.0000   1.0000   1.0000   1.0000   1.0000   1.0000
     0.0000   0.0000   0.0000   0.0000   0.0000   0.0000   0.0000   0.0000
     0.0000   0.0000

          k = 0.3333 1.0186 0.9605 (  3952 PWs)   bands (ev):

   -13.2642 -13.2631 -13.2598 -13.2589 -13.2373 -13.2359 -13.2343 -13.2337
   -13.2269 -13.2265 -13.2186 -13.2172 -13.2064 -13.2053 -13.1957 -13.1953
   -13.1803 -13.1792 -13.1711 -13.1709  -4.6714  -4.6018  -4.4080  -4.3560
     0.7999   1.0218   1.4798   1.4992   3.2632   3.5154   3.9399   4.2933
     4.4070   4.8404   4.9996   5.5925   6.0134   6.4884   6.7087   6.9986
    10.0948  10.7200  11.0412  11.3922  11.5483  11.8710  12.6957  12.8068
    13.0931  13.2609

     occupation numbers 
     1.0000   1.0000   1.0000   1.0000   1.0000   1.0000   1.0000   1.0000
     1.0000   1.0000   1.0000   1.0000   1.0000   1.0000   1.0000   1.0000
     1.0000   1.0000   1.0000   1.0000   1.0000   1.0000   1.0000   1.0000
     1.0000   1.0000   1.0000   1.0000   1.0000   1.0000   1.0000   1.0000
     1.0000   1.0000   1.0000   1.0000   1.0000   1.0000   1.0000   1.0000
     0.0000   0.0000   0.0000   0.0000   0.0000   0.0000   0.0000   0.0000
     0.0000   0.0000

          k = 0.3333 1.0186-1.2807 (  3952 PWs)   bands (ev):

   -13.2652 -13.2652 -13.2607 -13.2607 -13.2365 -13.2365 -13.2336 -13.2336
   -13.2263 -13.2263 -13.2174 -13.2174 -13.2052 -13.2052 -13.1952 -13.1952
   -13.1798 -13.1798 -13.1708 -13.1708  -4.5393  -4.5393  -4.4081  -4.4081
     0.9301   0.9301   1.6021   1.6021   3.3822   3.3822   3.6949   3.6949
     4.5305   4.5305   5.0589   5.0589   6.2053   6.2053   6.8061   6.8061
    10.3736  10.3736  11.2932  11.2932  12.4623  12.4623  12.5957  12.5957
    13.8779  13.8779

     occupation numbers 
     1.0000   1.0000   1.0000   1.0000   1.0000   1.0000   1.0000   1.0000
     1.0000   1.0000   1.0000   1.0000   1.0000   1.0000   1.0000   1.0000
     1.0000   1.0000   1.0000   1.0000   1.0000   1.0000   1.0000   1.0000
     1.0000   1.0000   1.0000   1.0000   1.0000   1.0000   1.0000   1.0000
     1.0000   1.0000   1.0000   1.0000   1.0000   1.0000   1.0000   1.0000
     0.0000   0.0000   0.0000   0.0000   0.0000   0.0000   0.0000   0.0000
     0.0000   0.0000

          k = 0.3333-1.3581 0.0000 (  3978 PWs)   bands (ev):

   -13.2554 -13.2554 -13.2535 -13.2535 -13.2369 -13.2369 -13.2361 -13.2361
   -13.2250 -13.2250 -13.2232 -13.2232 -13.2045 -13.2045 -13.2021 -13.2021
   -13.1757 -13.1757 -13.1744 -13.1744  -4.6683  -4.6683  -4.6366  -4.6366
     0.5054   0.5054   0.8469   0.8469   4.8999   4.8999   5.6544   5.6544
     5.9030   5.9030   6.1158   6.1158   7.0132   7.0132   7.1687   7.1687
     9.3744   9.3744   9.6791   9.6791  10.0656  10.0656  10.4235  10.4235
    11.5387  11.5387

     occupation numbers 
     1.0000   1.0000   1.0000   1.0000   1.0000   1.0000   1.0000   1.0000
     1.0000   1.0000   1.0000   1.0000   1.0000   1.0000   1.0000   1.0000
     1.0000   1.0000   1.0000   1.0000   1.0000   1.0000   1.0000   1.0000
     1.0000   1.0000   1.0000   1.0000   1.0000   1.0000   1.0000   1.0000
     1.0000   1.0000   1.0000   1.0000   1.0000   1.0000   1.0000   1.0000
     0.0000   0.0000   0.0000   0.0000   0.0000   0.0000   0.0000   0.0000
     0.0000   0.0000

          k = 0.3333-1.3581 0.3202 (  3982 PWs)   bands (ev):

   -13.2573 -13.2573 -13.2550 -13.2550 -13.2366 -13.2366 -13.2352 -13.2352
   -13.2248 -13.2248 -13.2227 -13.2227 -13.2046 -13.2046 -13.2013 -13.2013
   -13.1759 -13.1759 -13.1741 -13.1741  -4.6345  -4.6345  -4.6049  -4.6049
     0.5914   0.5914   0.9163   0.9163   4.7215   4.7215   5.0045   5.0045
     5.5539   5.5539   6.0980   6.0980   6.8278   6.8278   7.1331   7.1331
     9.4457   9.4457   9.7401   9.7401  10.8533  10.8533  11.2394  11.2394
    11.8496  11.8496

     occupation numbers 
     1.0000   1.0000   1.0000   1.0000   1.0000   1.0000   1.0000   1.0000
     1.0000   1.0000   1.0000   1.0000   1.0000   1.0000   1.0000   1.0000
     1.0000   1.0000   1.0000   1.0000   1.0000   1.0000   1.0000   1.0000
     1.0000   1.0000   1.0000   1.0000   1.0000   1.0000   1.0000   1.0000
     1.0000   1.0000   1.0000   1.0000   1.0000   1.0000   1.0000   1.0000
     0.0000   0.0000   0.0000   0.0000   0.0000   0.0000   0.0000   0.0000
     0.0000   0.0000

          k = 0.3333-1.3581 0.6403 (  3972 PWs)   bands (ev):

   -13.2615 -13.2615 -13.2586 -13.2586 -13.2359 -13.2359 -13.2337 -13.2337
   -13.2240 -13.2240 -13.2216 -13.2216 -13.2042 -13.2042 -13.1997 -13.1997
   -13.1762 -13.1762 -13.1736 -13.1736  -4.5496  -4.5496  -4.5262  -4.5262
     0.8302   0.8302   1.0988   1.0988   4.0324   4.0324   4.2856   4.2856
     5.0585   5.0585   5.6405   5.6405   6.2840   6.2840   6.9212   6.9212
    10.0369  10.0369  10.8895  10.8895  11.4822  11.4822  11.8235  11.8235
    12.8102  12.8102

     occupation numbers 
     1.0000   1.0000   1.0000   1.0000   1.0000   1.0000   1.0000   1.0000
     1.0000   1.0000   1.0000   1.0000   1.0000   1.0000   1.0000   1.0000
     1.0000   1.0000   1.0000   1.0000   1.0000   1.0000   1.0000   1.0000
     1.0000   1.0000   1.0000   1.0000   1.0000   1.0000   1.0000   1.0000
     1.0000   1.0000   1.0000   1.0000   1.0000   1.0000   1.0000   1.0000
     0.0000   0.0000   0.0000   0.0000   0.0000   0.0000   0.0000   0.0000
     0.0000   0.0000

          k = 0.3333-1.3581 0.9605 (  3950 PWs)   bands (ev):

   -13.2656 -13.2656 -13.2622 -13.2622 -13.2355 -13.2355 -13.2326 -13.2326
   -13.2230 -13.2230 -13.2205 -13.2205 -13.2034 -13.2034 -13.1982 -13.1982
   -13.1762 -13.1762 -13.1732 -13.1732  -4.4587  -4.4587  -4.4451  -4.4451
     1.1404   1.1404   1.3041   1.3041   3.4388   3.4388   3.8056   3.8056
     4.4405   4.4405   4.9487   4.9487   6.2270   6.2270   6.7852   6.7852
    10.4369  10.4369  11.0985  11.0985  12.3419  12.3419  12.4066  12.4066
    13.9362  13.9362

     occupation numbers 
     1.0000   1.0000   1.0000   1.0000   1.0000   1.0000   1.0000   1.0000
     1.0000   1.0000   1.0000   1.0000   1.0000   1.0000   1.0000   1.0000
     1.0000   1.0000   1.0000   1.0000   1.0000   1.0000   1.0000   1.0000
     1.0000   1.0000   1.0000   1.0000   1.0000   1.0000   1.0000   1.0000
     1.0000   1.0000   1.0000   1.0000   1.0000   1.0000   1.0000   1.0000
     0.0000   0.0000   0.0000   0.0000   0.0000   0.0000   0.0000   0.0000
     0.0000   0.0000

          k = 0.3333-1.3581-1.2807 (  3924 PWs)   bands (ev):

   -13.2673 -13.2673 -13.2636 -13.2636 -13.2354 -13.2354 -13.2323 -13.2323
   -13.2225 -13.2225 -13.2200 -13.2200 -13.2029 -13.2029 -13.1976 -13.1976
   -13.1762 -13.1762 -13.1730 -13.1730  -4.4174  -4.4174  -4.4125  -4.4125
     1.3135   1.3135   1.3874   1.3874   3.2441   3.2441   3.6134   3.6134
     4.2006   4.2006   4.5812   4.5812   6.3027   6.3027   6.7202   6.7202
    10.6056  10.6056  10.8286  10.8286  12.8419  12.8419  12.8660  12.8660
    14.4545  14.4545

     occupation numbers 
     1.0000   1.0000   1.0000   1.0000   1.0000   1.0000   1.0000   1.0000
     1.0000   1.0000   1.0000   1.0000   1.0000   1.0000   1.0000   1.0000
     1.0000   1.0000   1.0000   1.0000   1.0000   1.0000   1.0000   1.0000
     1.0000   1.0000   1.0000   1.0000   1.0000   1.0000   1.0000   1.0000
     1.0000   1.0000   1.0000   1.0000   1.0000   1.0000   1.0000   1.0000
     0.0000   0.0000   0.0000   0.0000   0.0000   0.0000   0.0000   0.0000
     0.0000   0.0000

     highest occupied, lowest unoccupied level (ev):     8.0314    8.8501

!    total energy              =    -827.73556984 Ry
     estimated scf accuracy    <          1.7E-09 Ry

     The total energy is the sum of the following terms:
     one-electron contribution =    -256.98999344 Ry
     hartree contribution      =     179.10935466 Ry
     xc contribution           =    -309.12808150 Ry
     ewald contribution        =    -440.60481620 Ry
     DFT-D3 Dispersion         =      -0.12203337 Ry

     convergence has been achieved in   9 iterations

     Forces acting on atoms (cartesian axes, Ry/au):

     atom    1 type  2   force =     0.00788365   -0.00000000    0.00004222
     atom    2 type  1   force =    -0.00868615    0.00000000   -0.00061120
     atom    3 type  2   force =    -0.00788365    0.00000000    0.00004222
     atom    4 type  1   force =     0.00868615   -0.00000000   -0.00061120
     atom    5 type  2   force =     0.00788365    0.00000000   -0.00004222
     atom    6 type  1   force =    -0.00868615    0.00000000    0.00061120
     atom    7 type  2   force =    -0.00788365   -0.00000000   -0.00004222
     atom    8 type  1   force =     0.00868615    0.00000000    0.00061120
     The non-local contrib.  to forces
     atom    1 type  2   force =    -0.11568584    0.00000000    0.09849323
     atom    2 type  1   force =     0.36506482    0.00000000    0.26961122
     atom    3 type  2   force =     0.11568584    0.00000000    0.09849323
     atom    4 type  1   force =    -0.36506482    0.00000000    0.26961122
     atom    5 type  2   force =    -0.11568584    0.00000000   -0.09849323
     atom    6 type  1   force =     0.36506482    0.00000000   -0.26961122
     atom    7 type  2   force =     0.11568584    0.00000000   -0.09849323
     atom    8 type  1   force =    -0.36506482    0.00000000   -0.26961122
     The ionic contribution  to forces
     atom    1 type  2   force =     1.53473235    0.00000000   -1.05154455
     atom    2 type  1   force =    -1.03769718    0.00000000   -0.57506129
     atom    3 type  2   force =    -1.53473235   -0.00000000   -1.05154455
     atom    4 type  1   force =     1.03769718   -0.00000000   -0.57506129
     atom    5 type  2   force =     1.53473235    0.00000000    1.05154455
     atom    6 type  1   force =    -1.03769718    0.00000000    0.57506129
     atom    7 type  2   force =    -1.53473235    0.00000000    1.05154455
     atom    8 type  1   force =     1.03769718    0.00000000    0.57506129
     The local contribution  to forces
     atom    1 type  2   force =    -1.42323897   -0.00000000    0.96297420
     atom    2 type  1   force =     0.67009536    0.00000000    0.30839410
     atom    3 type  2   force =     1.42323897    0.00000000    0.96297420
     atom    4 type  1   force =    -0.67009536    0.00000000    0.30839410
     atom    5 type  2   force =    -1.42323897    0.00000000   -0.96297420
     atom    6 type  1   force =     0.67009536    0.00000000   -0.30839410
     atom    7 type  2   force =     1.42323897   -0.00000000   -0.96297420
     atom    8 type  1   force =    -0.67009536    0.00000000   -0.30839410
     The core correction contribution to forces
     atom    1 type  2   force =     0.01283525   -0.00000000   -0.01107518
     atom    2 type  1   force =    -0.00555034    0.00000000   -0.00448104
     atom    3 type  2   force =    -0.01283525   -0.00000000   -0.01107518
     atom    4 type  1   force =     0.00555034    0.00000000   -0.00448104
     atom    5 type  2   force =     0.01283525   -0.00000000    0.01107518
     atom    6 type  1   force =    -0.00555034    0.00000000    0.00448104
     atom    7 type  2   force =    -0.01283525   -0.00000000    0.01107518
     atom    8 type  1   force =     0.00555034   -0.00000000    0.00448104
     The Hubbard contrib.    to forces
     atom    1 type  2   force =     0.00000000    0.00000000    0.00000000
     atom    2 type  1   force =     0.00000000    0.00000000    0.00000000
     atom    3 type  2   force =     0.00000000    0.00000000    0.00000000
     atom    4 type  1   force =     0.00000000    0.00000000    0.00000000
     atom    5 type  2   force =     0.00000000    0.00000000    0.00000000
     atom    6 type  1   force =     0.00000000    0.00000000    0.00000000
     atom    7 type  2   force =     0.00000000    0.00000000    0.00000000
     atom    8 type  1   force =     0.00000000    0.00000000    0.00000000
     The SCF correction term to forces
     atom    1 type  2   force =     0.00002549   -0.00000000    0.00000085
     atom    2 type  1   force =    -0.00004378    0.00000000    0.00003098
     atom    3 type  2   force =    -0.00002549    0.00000000    0.00000085
     atom    4 type  1   force =     0.00004378    0.00000000    0.00003098
     atom    5 type  2   force =     0.00002549   -0.00000000   -0.00000085
     atom    6 type  1   force =    -0.00004378   -0.00000000   -0.00003098
     atom    7 type  2   force =    -0.00002549    0.00000000   -0.00000085
     atom    8 type  1   force =     0.00004378   -0.00000000   -0.00003098

     DFT-D3 dispersion contribution to forces:
     atom    1 type  2   force =    -0.00078462   -0.00000000    0.00119368
     atom    2 type  1   force =    -0.00055504    0.00000000    0.00089483
     atom    3 type  2   force =     0.00078462    0.00000000    0.00119368
     atom    4 type  1   force =     0.00055504   -0.00000000    0.00089483
     atom    5 type  2   force =    -0.00078462   -0.00000000   -0.00119368
     atom    6 type  1   force =    -0.00055504   -0.00000000   -0.00089483
     atom    7 type  2   force =     0.00078462    0.00000000   -0.00119368
     atom    8 type  1   force =     0.00055504    0.00000000   -0.00089483

     Total force =     0.023493     Total SCF correction =     0.000119

     DFT-D3 dispersion Force =     0.003549

     Writing output data file ./tmp/SnSe_pnma.save/

     init_run     :      5.55s CPU      8.01s WALL (       1 calls)
     electrons    :    184.67s CPU    227.96s WALL (       1 calls)
     forces       :      4.56s CPU      6.01s WALL (       1 calls)

     Called by init_run:
     wfcinit      :      3.01s CPU      5.01s WALL (       1 calls)
     wfcinit:atom :      0.03s CPU      0.02s WALL (      17 calls)
     wfcinit:wfcr :      2.80s CPU      4.83s WALL (      17 calls)
     potinit      :      0.64s CPU      0.68s WALL (       1 calls)
     hinit0       :      1.00s CPU      1.03s WALL (       1 calls)

     Called by electrons:
     c_bands      :    161.27s CPU    199.13s WALL (       9 calls)
     sum_band     :     15.51s CPU     17.94s WALL (       9 calls)
     v_of_rho     :      1.67s CPU      1.95s WALL (      10 calls)
     v_h          :      0.13s CPU      0.15s WALL (      10 calls)
     v_xc         :      1.75s CPU      1.98s WALL (      11 calls)
     newd         :      6.38s CPU      9.55s WALL (      10 calls)
     mix_rho      :      0.27s CPU      0.27s WALL (       9 calls)

     Called by c_bands:
     init_us_2    :      0.95s CPU      0.89s WALL (     340 calls)
     cegterg      :    102.45s CPU    141.59s WALL (     153 calls)

     Called by sum_band:
     sum_band:wei :      0.04s CPU      0.03s WALL (       9 calls)
     sum_band:loo :     11.30s CPU     13.28s WALL (       9 calls)
     sum_band:buf :      0.07s CPU      0.07s WALL (     153 calls)
     sum_band:ini :      0.43s CPU      0.38s WALL (     153 calls)
     sum_band:cal :      4.50s CPU      6.55s WALL (     153 calls)
     sum_band:bec :      0.02s CPU      0.02s WALL (     153 calls)
     addusdens    :      2.68s CPU      3.28s WALL (       9 calls)
     addusd:skk   :      0.01s CPU      0.01s WALL (      18 calls)
     addusd:dgemm :      0.85s CPU      1.03s WALL (      18 calls)
     addusd:qvan2 :      1.24s CPU      1.21s WALL (      18 calls)

     Called by *egterg:
     cdiaghg      :     19.50s CPU     50.02s WALL (     665 calls)
     cegterg:over :     14.87s CPU     22.07s WALL (     512 calls)
     cegterg:upda :      2.90s CPU      3.63s WALL (     512 calls)
     cegterg:last :      4.64s CPU      3.49s WALL (     308 calls)
     h_psi        :     49.32s CPU     51.53s WALL (     682 calls)
     s_psi        :      5.44s CPU      3.48s WALL (     682 calls)
     g_psi        :      0.30s CPU      0.26s WALL (     512 calls)

     Called by h_psi:
     h_psi:calbec :     12.89s CPU     18.60s WALL (     682 calls)
     vloc_psi     :     30.57s CPU     29.03s WALL (     682 calls)
     add_vuspsi   :      5.68s CPU      3.66s WALL (     682 calls)

     General routines
     calbec       :     18.55s CPU     27.41s WALL (     903 calls)
     fft          :      1.57s CPU      1.65s WALL (     139 calls)
     ffts         :      0.02s CPU      0.02s WALL (      19 calls)
     fftw         :     31.99s CPU     30.71s WALL (   48130 calls)
     interpolate  :      0.14s CPU      0.15s WALL (      10 calls)

     Parallel routines
     fft_scatt_xy :      4.65s CPU      4.39s WALL (   48288 calls)
     fft_scatt_yz :      9.47s CPU      9.72s WALL (   48288 calls)

     PWSCF        :   3m15.09s CPU   4m 2.42s WALL


   This run was terminated on:  21:11:32  18May2026            

=------------------------------------------------------------------------------=
   JOB DONE.
=------------------------------------------------------------------------------=
