
     Program PWSCF v.7.3.1 starts on 19May2026 at 12:37:29 

     This program is part of the open-source Quantum ESPRESSO suite
     for quantum simulation of materials; please cite
         "P. Giannozzi et al., J. Phys.:Condens. Matter 21 395502 (2009);
         "P. Giannozzi et al., J. Phys.:Condens. Matter 29 465901 (2017);
         "P. Giannozzi et al., J. Chem. Phys. 152 154105 (2020);
          URL http://www.quantum-espresso.org", 
     in publications or presentations arising from this work. More details at
     http://www.quantum-espresso.org/quote

     Parallel version (MPI & OpenMP), running on       6 processor cores
     Number of MPI processes:                 6
     Threads/MPI process:                     1

     MPI processes distributed on     1 nodes
     12278 MiB available memory on the printing compute node when the environment starts
 
     Waiting for input...
     Reading input from standard input

     Current dimensions of program PWSCF are:
     Max number of different atomic species (ntypx) = 10
     Max number of k-points (npk) =  40000
     Max angular momentum in pseudopotentials (lmaxx) =  4
 
     K-points division:     npool     =       3
     R & G space division:  proc/nbgrp/npool/nimage =       2
     Subspace diagonalization in iterative solution of the eigenvalue problem:
     a serial algorithm will be used

 
     Parallelization info
     --------------------
     sticks:   dense  smooth     PW     G-vecs:    dense   smooth      PW
     Min        3382    1355    390               134537    34027    5216
     Max        3383    1356    391               134538    34028    5217
     Sum        6765    2711    781               269075    68055   10433
 
     Using Slab Decomposition
 


     bravais-lattice index     =            8
     lattice parameter (alat)  =      21.4862  a.u.
     unit-cell volume          =    1425.7436 (a.u.)^3
     number of atoms/cell      =            8
     number of atomic types    =            2
     number of electrons       =        80.00
     number of Kohn-Sham states=           40
     kinetic-energy cutoff     =      50.0000  Ry
     charge density cutoff     =     500.0000  Ry
     scf convergence threshold =      1.0E-08
     mixing beta               =       0.7000
     number of iterations used =            8  plain     mixing
     energy convergence thresh.=      1.0E-04
     force convergence thresh. =      1.0E-03
     press convergence thresh. =      5.0E-01
     Exchange-correlation= SLA  PW   PBE  PBE
                           (   1   4   3   4   0   0   0)
     nstep                     =           50


     celldm(1)=  21.486186  celldm(2)=   0.368162  celldm(3)=   0.390413
     celldm(4)=   0.000000  celldm(5)=   0.000000  celldm(6)=   0.000000

     crystal axes: (cart. coord. in units of alat)
               a(1) = (   1.000000   0.000000   0.000000 )  
               a(2) = (   0.000000   0.368162   0.000000 )  
               a(3) = (   0.000000   0.000000   0.390413 )  

     reciprocal axes: (cart. coord. in units 2 pi/alat)
               b(1) = (  1.000000  0.000000  0.000000 )  
               b(2) = (  0.000000  2.716197  0.000000 )  
               b(3) = (  0.000000  0.000000  2.561388 )  


     PseudoPot. # 1 for Sn read from file:
     ../pseudo/Sn_pbe_v1.uspp.F.UPF
     MD5 check sum: 4cf58ce39ec5d5d420df3dd08604eb00
     Pseudo is Ultrasoft + core correction, Zval = 14.0
     Generated by new atomic code, or converted to UPF format
     Using radial grid of  891 points,  6 beta functions with: 
                l(1) =   0
                l(2) =   0
                l(3) =   1
                l(4) =   1
                l(5) =   2
                l(6) =   2
     Q(r) pseudized with  6 coefficients,  rinner =    1.200   1.200   1.200
                                                       1.200   1.200

     PseudoPot. # 2 for Se read from file:
     ../pseudo/Se_pbe_v1.uspp.F.UPF
     MD5 check sum: 1b3568f3a8ae88f9a2a0ad0698632c85
     Pseudo is Ultrasoft + core correction, Zval =  6.0
     Generated by new atomic code, or converted to UPF format
     Using radial grid of  877 points,  6 beta functions with: 
                l(1) =   0
                l(2) =   0
                l(3) =   1
                l(4) =   1
                l(5) =   2
                l(6) =   2
     Q(r) pseudized with  8 coefficients,  rinner =    1.300   1.300   1.300
                                                       1.300   1.300

     atomic species   valence    mass     pseudopotential
     Sn               14.00   118.71000     Sn( 1.00)
     Se                6.00    78.97100     Se( 1.00)

      8 Sym. Ops., with inversion, found ( 6 have fractional translation)


                                    s                        frac. trans.

      isym =  1     identity                                     

 cryst.   s( 1) = (     1          0          0      )
                  (     0          1          0      )
                  (     0          0          1      )

 cart.    s( 1) = (  1.0000000  0.0000000  0.0000000 )
                  (  0.0000000  1.0000000  0.0000000 )
                  (  0.0000000  0.0000000  1.0000000 )


      isym =  2     180 deg rotation - cart. axis [0,0,1]        

 cryst.   s( 2) = (    -1          0          0      )    f =(  0.5000000 )
                  (     0         -1          0      )       (  0.0000000 )
                  (     0          0          1      )       (  0.5000000 )

 cart.    s( 2) = ( -1.0000000  0.0000000  0.0000000 )    f =(  0.5000000 )
                  (  0.0000000 -1.0000000  0.0000000 )       (  0.0000000 )
                  (  0.0000000  0.0000000  1.0000000 )       (  0.1952067 )


      isym =  3     180 deg rotation - cart. axis [0,1,0]        

 cryst.   s( 3) = (    -1          0          0      )    f =( -0.0000000 )
                  (     0          1          0      )       ( -0.5000000 )
                  (     0          0         -1      )       ( -0.0000000 )

 cart.    s( 3) = ( -1.0000000  0.0000000  0.0000000 )    f =( -0.0000000 )
                  (  0.0000000  1.0000000  0.0000000 )       ( -0.1840809 )
                  (  0.0000000  0.0000000 -1.0000000 )       ( -0.0000000 )


      isym =  4     180 deg rotation - cart. axis [1,0,0]        

 cryst.   s( 4) = (     1          0          0      )    f =(  0.5000000 )
                  (     0         -1          0      )       (  0.5000000 )
                  (     0          0         -1      )       (  0.5000000 )

 cart.    s( 4) = (  1.0000000  0.0000000  0.0000000 )    f =(  0.5000000 )
                  (  0.0000000 -1.0000000  0.0000000 )       (  0.1840809 )
                  (  0.0000000  0.0000000 -1.0000000 )       (  0.1952067 )


      isym =  5     inversion                                    

 cryst.   s( 5) = (    -1          0          0      )
                  (     0         -1          0      )
                  (     0          0         -1      )

 cart.    s( 5) = ( -1.0000000  0.0000000  0.0000000 )
                  (  0.0000000 -1.0000000  0.0000000 )
                  (  0.0000000  0.0000000 -1.0000000 )


      isym =  6     inv. 180 deg rotation - cart. axis [0,0,1]   

 cryst.   s( 6) = (     1          0          0      )    f =(  0.5000000 )
                  (     0          1          0      )       (  0.0000000 )
                  (     0          0         -1      )       (  0.5000000 )

 cart.    s( 6) = (  1.0000000  0.0000000  0.0000000 )    f =(  0.5000000 )
                  (  0.0000000  1.0000000  0.0000000 )       (  0.0000000 )
                  (  0.0000000  0.0000000 -1.0000000 )       (  0.1952067 )


      isym =  7     inv. 180 deg rotation - cart. axis [0,1,0]   

 cryst.   s( 7) = (     1          0          0      )    f =(  0.0000000 )
                  (     0         -1          0      )       (  0.5000000 )
                  (     0          0          1      )       (  0.0000000 )

 cart.    s( 7) = (  1.0000000  0.0000000  0.0000000 )    f =(  0.0000000 )
                  (  0.0000000 -1.0000000  0.0000000 )       (  0.1840809 )
                  (  0.0000000  0.0000000  1.0000000 )       (  0.0000000 )


      isym =  8     inv. 180 deg rotation - cart. axis [1,0,0]   

 cryst.   s( 8) = (    -1          0          0      )    f =(  0.5000000 )
                  (     0          1          0      )       ( -0.5000000 )
                  (     0          0          1      )       (  0.5000000 )

 cart.    s( 8) = ( -1.0000000  0.0000000  0.0000000 )    f =(  0.5000000 )
                  (  0.0000000  1.0000000  0.0000000 )       ( -0.1840809 )
                  (  0.0000000  0.0000000  1.0000000 )       (  0.1952067 )


     point group D_2h (mmm) 
     there are  8 classes
     the character table:

       E     C2    C2'   C2''  i     s_v   s_v'  s_v''
A_g    1.00  1.00  1.00  1.00  1.00  1.00  1.00  1.00
B_1g   1.00  1.00 -1.00 -1.00  1.00  1.00 -1.00 -1.00
B_2g   1.00 -1.00  1.00 -1.00  1.00 -1.00  1.00 -1.00
B_3g   1.00 -1.00 -1.00  1.00  1.00 -1.00 -1.00  1.00
A_u    1.00  1.00  1.00  1.00 -1.00 -1.00 -1.00 -1.00
B_1u   1.00  1.00 -1.00 -1.00 -1.00 -1.00  1.00  1.00
B_2u   1.00 -1.00  1.00 -1.00 -1.00  1.00 -1.00  1.00
B_3u   1.00 -1.00 -1.00  1.00 -1.00  1.00  1.00 -1.00

     the symmetry operations in each class and the name of the first element:

     E        1
          identity                                               
     C2       2
          180 deg rotation - cart. axis [0,0,1]                  
     C2'      4
          180 deg rotation - cart. axis [1,0,0]                  
     C2''     3
          180 deg rotation - cart. axis [0,1,0]                  
     i        5
          inversion                                              
     s_v      6
          inv. 180 deg rotation - cart. axis [0,0,1]             
     s_v'     8
          inv. 180 deg rotation - cart. axis [1,0,0]             
     s_v''    7
          inv. 180 deg rotation - cart. axis [0,1,0]             

   Cartesian axes

     site n.     atom                  positions (alat units)
         1        Se     tau(   1) = (   0.8555000   0.0920405   0.1884916  )
         2        Sn     tau(   2) = (   0.1187000   0.0920405   0.0385728  )
         3        Se     tau(   3) = (   0.6445000   0.2761214   0.3836983  )
         4        Sn     tau(   4) = (   0.3813000   0.2761214   0.2337795  )
         5        Se     tau(   5) = (   0.3555000   0.0920405   0.0067151  )
         6        Sn     tau(   6) = (   0.6187000   0.0920405   0.1566338  )
         7        Se     tau(   7) = (   0.1445000   0.2761214   0.2019218  )
         8        Sn     tau(   8) = (   0.8813000   0.2761214   0.3518405  )

     --------------------------------------------
     DFT-D3 Dispersion Correction (3-body terms):
     --------------------------------------------
       Reference C6 values for interpolation: 

         atom   Coordination number   C6
         Se         0.000           427.35
         Se         0.990           427.57
         Se         1.981           421.05
         Sn         0.000          1255.14
         Sn         0.951          1084.09
         Sn         1.950          1010.83
         Sn         2.926           818.29
         Sn         3.912           672.20

       Values used:

         atom   Coordination number  R0_AB[au]  C6      C8
         Se         3.637            3.332    421.05  29958.36
         Sn         4.405            3.957    672.26  84376.19
         Se         3.637            3.332    421.05  29958.36
         Sn         4.405            3.957    672.26  84376.19
         Se         3.637            3.332    421.05  29958.36
         Sn         4.405            3.957    672.26  84376.19
         Se         3.637            3.332    421.05  29958.36
         Sn         4.405            3.957    672.26  84376.19

         Molecular C6 ( Ry / a.u.^6 ) =     34497.83


   Crystallographic axes

     site n.     atom                  positions (cryst. coord.)
         1        Se     tau(   1) = (  0.8555000  0.2500000  0.4828000  )
         2        Sn     tau(   2) = (  0.1187000  0.2500000  0.0988000  )
         3        Se     tau(   3) = (  0.6445000  0.7500000  0.9828000  )
         4        Sn     tau(   4) = (  0.3813000  0.7500000  0.5988000  )
         5        Se     tau(   5) = (  0.3555000  0.2500000  0.0172000  )
         6        Sn     tau(   6) = (  0.6187000  0.2500000  0.4012000  )
         7        Se     tau(   7) = (  0.1445000  0.7500000  0.5172000  )
         8        Sn     tau(   8) = (  0.8813000  0.7500000  0.9012000  )

     number of k points=    32
                       cart. coord. in units 2pi/alat
        k(    1) = (   0.1666667   0.1697623   0.1600867), wk =   0.0833333
        k(    2) = (   0.1666667   0.1697623   0.4802602), wk =   0.0833333
        k(    3) = (   0.1666667   0.1697623   0.8004337), wk =   0.0833333
        k(    4) = (   0.1666667   0.1697623   1.1206071), wk =   0.0833333
        k(    5) = (   0.1666667   0.5092869   0.1600867), wk =   0.0833333
        k(    6) = (   0.1666667   0.5092869   0.4802602), wk =   0.0833333
        k(    7) = (   0.1666667   0.5092869   0.8004337), wk =   0.0833333
        k(    8) = (   0.1666667   0.5092869   1.1206071), wk =   0.0833333
        k(    9) = (   0.1666667   0.8488115   0.1600867), wk =   0.0833333
        k(   10) = (   0.1666667   0.8488115   0.4802602), wk =   0.0833333
        k(   11) = (   0.1666667   0.8488115   0.8004337), wk =   0.0833333
        k(   12) = (   0.1666667   0.8488115   1.1206071), wk =   0.0833333
        k(   13) = (   0.1666667   1.1883361   0.1600867), wk =   0.0833333
        k(   14) = (   0.1666667   1.1883361   0.4802602), wk =   0.0833333
        k(   15) = (   0.1666667   1.1883361   0.8004337), wk =   0.0833333
        k(   16) = (   0.1666667   1.1883361   1.1206071), wk =   0.0833333
        k(   17) = (  -0.5000000   0.1697623   0.1600867), wk =   0.0416667
        k(   18) = (  -0.5000000   0.1697623   0.4802602), wk =   0.0416667
        k(   19) = (  -0.5000000   0.1697623   0.8004337), wk =   0.0416667
        k(   20) = (  -0.5000000   0.1697623   1.1206071), wk =   0.0416667
        k(   21) = (  -0.5000000   0.5092869   0.1600867), wk =   0.0416667
        k(   22) = (  -0.5000000   0.5092869   0.4802602), wk =   0.0416667
        k(   23) = (  -0.5000000   0.5092869   0.8004337), wk =   0.0416667
        k(   24) = (  -0.5000000   0.5092869   1.1206071), wk =   0.0416667
        k(   25) = (  -0.5000000   0.8488115   0.1600867), wk =   0.0416667
        k(   26) = (  -0.5000000   0.8488115   0.4802602), wk =   0.0416667
        k(   27) = (  -0.5000000   0.8488115   0.8004337), wk =   0.0416667
        k(   28) = (  -0.5000000   0.8488115   1.1206071), wk =   0.0416667
        k(   29) = (  -0.5000000   1.1883361   0.1600867), wk =   0.0416667
        k(   30) = (  -0.5000000   1.1883361   0.4802602), wk =   0.0416667
        k(   31) = (  -0.5000000   1.1883361   0.8004337), wk =   0.0416667
        k(   32) = (  -0.5000000   1.1883361   1.1206071), wk =   0.0416667

                       cryst. coord.
        k(    1) = (   0.1666667   0.0625000   0.0625000), wk =   0.0833333
        k(    2) = (   0.1666667   0.0625000   0.1875000), wk =   0.0833333
        k(    3) = (   0.1666667   0.0625000   0.3125000), wk =   0.0833333
        k(    4) = (   0.1666667   0.0625000   0.4375000), wk =   0.0833333
        k(    5) = (   0.1666667   0.1875000   0.0625000), wk =   0.0833333
        k(    6) = (   0.1666667   0.1875000   0.1875000), wk =   0.0833333
        k(    7) = (   0.1666667   0.1875000   0.3125000), wk =   0.0833333
        k(    8) = (   0.1666667   0.1875000   0.4375000), wk =   0.0833333
        k(    9) = (   0.1666667   0.3125000   0.0625000), wk =   0.0833333
        k(   10) = (   0.1666667   0.3125000   0.1875000), wk =   0.0833333
        k(   11) = (   0.1666667   0.3125000   0.3125000), wk =   0.0833333
        k(   12) = (   0.1666667   0.3125000   0.4375000), wk =   0.0833333
        k(   13) = (   0.1666667   0.4375000   0.0625000), wk =   0.0833333
        k(   14) = (   0.1666667   0.4375000   0.1875000), wk =   0.0833333
        k(   15) = (   0.1666667   0.4375000   0.3125000), wk =   0.0833333
        k(   16) = (   0.1666667   0.4375000   0.4375000), wk =   0.0833333
        k(   17) = (  -0.5000000   0.0625000   0.0625000), wk =   0.0416667
        k(   18) = (  -0.5000000   0.0625000   0.1875000), wk =   0.0416667
        k(   19) = (  -0.5000000   0.0625000   0.3125000), wk =   0.0416667
        k(   20) = (  -0.5000000   0.0625000   0.4375000), wk =   0.0416667
        k(   21) = (  -0.5000000   0.1875000   0.0625000), wk =   0.0416667
        k(   22) = (  -0.5000000   0.1875000   0.1875000), wk =   0.0416667
        k(   23) = (  -0.5000000   0.1875000   0.3125000), wk =   0.0416667
        k(   24) = (  -0.5000000   0.1875000   0.4375000), wk =   0.0416667
        k(   25) = (  -0.5000000   0.3125000   0.0625000), wk =   0.0416667
        k(   26) = (  -0.5000000   0.3125000   0.1875000), wk =   0.0416667
        k(   27) = (  -0.5000000   0.3125000   0.3125000), wk =   0.0416667
        k(   28) = (  -0.5000000   0.3125000   0.4375000), wk =   0.0416667
        k(   29) = (  -0.5000000   0.4375000   0.0625000), wk =   0.0416667
        k(   30) = (  -0.5000000   0.4375000   0.1875000), wk =   0.0416667
        k(   31) = (  -0.5000000   0.4375000   0.3125000), wk =   0.0416667
        k(   32) = (  -0.5000000   0.4375000   0.4375000), wk =   0.0416667

     Dense  grid:   269075 G-vectors     FFT dimensions: ( 160,  60,  60)

     Smooth grid:    68055 G-vectors     FFT dimensions: ( 100,  36,  40)

     Dynamical RAM for                 wfc:       2.60 MB

     Dynamical RAM for     wfc (w. buffer):      31.17 MB

     Dynamical RAM for           str. fact:       4.11 MB

     Dynamical RAM for           local pot:       0.00 MB

     Dynamical RAM for          nlocal pot:       9.35 MB

     Dynamical RAM for                qrad:       7.18 MB

     Dynamical RAM for          rho,v,vnew:      12.75 MB

     Dynamical RAM for               rhoin:       4.25 MB

     Dynamical RAM for            rho*nmix:      32.85 MB

     Dynamical RAM for           G-vectors:       7.96 MB

     Dynamical RAM for          h,s,v(r/c):       0.29 MB

     Dynamical RAM for          <psi|beta>:       0.09 MB

     Dynamical RAM for                 psi:       5.20 MB

     Dynamical RAM for                hpsi:       5.20 MB

     Dynamical RAM for                spsi:       5.20 MB

     Dynamical RAM for      wfcinit/wfcrot:       6.82 MB

     Dynamical RAM for           addusdens:     131.38 MB

     Dynamical RAM for          addusforce:     135.16 MB

     Dynamical RAM for         addusstress:     138.23 MB

     Estimated static dynamical RAM per process >      93.91 MB

     Estimated max dynamical RAM per process >     264.98 MB

     Estimated total dynamical RAM >       1.42 GB

     Initial potential from superposition of free atoms

     starting charge      75.9995, renormalised to      80.0000
     Starting wfcs are   52 randomized atomic wfcs

     total cpu time spent up to now is        4.0 secs

     Self-consistent Calculation

     iteration #  1     ecut=    50.00 Ry     beta= 0.70
     Davidson diagonalization with overlap

---- Real-time Memory Report at c_bands before calling an iterative solver
           321 MiB given to the printing process from OS
             0 MiB allocation reported by mallinfo(arena+hblkhd)
         11473 MiB available memory on the node where the printing process lives
------------------
     ethr =  1.00E-02,  avg # of iterations =  2.0

     total cpu time spent up to now is        8.8 secs

     total energy              =    -826.63820472 Ry
     estimated scf accuracy    <       2.66559023 Ry

     iteration #  2     ecut=    50.00 Ry     beta= 0.70
     Davidson diagonalization with overlap

---- Real-time Memory Report at c_bands before calling an iterative solver
           410 MiB given to the printing process from OS
             0 MiB allocation reported by mallinfo(arena+hblkhd)
         11164 MiB available memory on the node where the printing process lives
------------------
     ethr =  3.33E-03,  avg # of iterations =  3.0

     total cpu time spent up to now is       14.0 secs

     total energy              =    -827.55471789 Ry
     estimated scf accuracy    <       0.92223738 Ry

     iteration #  3     ecut=    50.00 Ry     beta= 0.70
     Davidson diagonalization with overlap

---- Real-time Memory Report at c_bands before calling an iterative solver
           433 MiB given to the printing process from OS
             0 MiB allocation reported by mallinfo(arena+hblkhd)
         11068 MiB available memory on the node where the printing process lives
------------------
     ethr =  1.15E-03,  avg # of iterations =  2.3

     total cpu time spent up to now is       18.1 secs

     total energy              =    -827.73598552 Ry
     estimated scf accuracy    <       0.00810341 Ry

     iteration #  4     ecut=    50.00 Ry     beta= 0.70
     Davidson diagonalization with overlap

---- Real-time Memory Report at c_bands before calling an iterative solver
           445 MiB given to the printing process from OS
             0 MiB allocation reported by mallinfo(arena+hblkhd)
         11030 MiB available memory on the node where the printing process lives
------------------
     ethr =  1.01E-05,  avg # of iterations =  5.0

     total cpu time spent up to now is       24.1 secs

     total energy              =    -827.74153938 Ry
     estimated scf accuracy    <       0.00489048 Ry

     iteration #  5     ecut=    50.00 Ry     beta= 0.70
     Davidson diagonalization with overlap

---- Real-time Memory Report at c_bands before calling an iterative solver
           450 MiB given to the printing process from OS
             0 MiB allocation reported by mallinfo(arena+hblkhd)
         11022 MiB available memory on the node where the printing process lives
------------------
     ethr =  6.11E-06,  avg # of iterations =  3.8

     total cpu time spent up to now is       29.0 secs

     total energy              =    -827.74323684 Ry
     estimated scf accuracy    <       0.00235760 Ry

     iteration #  6     ecut=    50.00 Ry     beta= 0.70
     Davidson diagonalization with overlap

---- Real-time Memory Report at c_bands before calling an iterative solver
           452 MiB given to the printing process from OS
             0 MiB allocation reported by mallinfo(arena+hblkhd)
         10897 MiB available memory on the node where the printing process lives
------------------
     ethr =  2.95E-06,  avg # of iterations =  2.0

     total cpu time spent up to now is       33.1 secs

     total energy              =    -827.74338836 Ry
     estimated scf accuracy    <       0.00029517 Ry

     iteration #  7     ecut=    50.00 Ry     beta= 0.70
     Davidson diagonalization with overlap

---- Real-time Memory Report at c_bands before calling an iterative solver
           453 MiB given to the printing process from OS
             0 MiB allocation reported by mallinfo(arena+hblkhd)
         10892 MiB available memory on the node where the printing process lives
------------------
     ethr =  3.69E-07,  avg # of iterations =  3.9

     total cpu time spent up to now is       38.1 secs

     total energy              =    -827.74348411 Ry
     estimated scf accuracy    <       0.00000491 Ry

     iteration #  8     ecut=    50.00 Ry     beta= 0.70
     Davidson diagonalization with overlap

---- Real-time Memory Report at c_bands before calling an iterative solver
           455 MiB given to the printing process from OS
             0 MiB allocation reported by mallinfo(arena+hblkhd)
         10884 MiB available memory on the node where the printing process lives
------------------
     ethr =  6.14E-09,  avg # of iterations =  6.8

     total cpu time spent up to now is       45.8 secs

     total energy              =    -827.74349127 Ry
     estimated scf accuracy    <       0.00000025 Ry

     iteration #  9     ecut=    50.00 Ry     beta= 0.70
     Davidson diagonalization with overlap

---- Real-time Memory Report at c_bands before calling an iterative solver
           460 MiB given to the printing process from OS
             0 MiB allocation reported by mallinfo(arena+hblkhd)
         10879 MiB available memory on the node where the printing process lives
------------------
     ethr =  3.16E-10,  avg # of iterations =  3.7

     total cpu time spent up to now is       50.6 secs

     total energy              =    -827.74349132 Ry
     estimated scf accuracy    <       0.00000002 Ry

     iteration # 10     ecut=    50.00 Ry     beta= 0.70
     Davidson diagonalization with overlap

---- Real-time Memory Report at c_bands before calling an iterative solver
           462 MiB given to the printing process from OS
             0 MiB allocation reported by mallinfo(arena+hblkhd)
         10867 MiB available memory on the node where the printing process lives
------------------
     ethr =  2.34E-11,  avg # of iterations =  5.6

     total cpu time spent up to now is       57.3 secs

     End of self-consistent calculation

          k = 0.1667 0.1698 0.1601 (  8491 PWs)   bands (ev):

   -13.2640 -13.2544 -13.2510 -13.2495 -13.2487 -13.2465 -13.2424 -13.2386
   -13.2345 -13.2311 -13.2310 -13.2264 -13.2165 -13.2112 -13.1958 -13.1924
   -13.1864 -13.1843 -13.1745 -13.1669  -5.6951  -5.4019  -4.6056  -4.1934
     0.7610   1.6486   2.6114   2.8822   3.2981   4.5917   4.6823   4.9626
     5.1934   5.4452   5.9044   6.2821   6.4986   6.8572   7.3782   7.5712

     occupation numbers 
     1.0000   1.0000   1.0000   1.0000   1.0000   1.0000   1.0000   1.0000
     1.0000   1.0000   1.0000   1.0000   1.0000   1.0000   1.0000   1.0000
     1.0000   1.0000   1.0000   1.0000   1.0000   1.0000   1.0000   1.0000
     1.0000   1.0000   1.0000   1.0000   1.0000   1.0000   1.0000   1.0000
     1.0000   1.0000   1.0000   1.0000   1.0000   1.0000   1.0000   1.0000

          k = 0.1667 0.1698 0.4803 (  8495 PWs)   bands (ev):

   -13.2625 -13.2534 -13.2510 -13.2505 -13.2481 -13.2477 -13.2434 -13.2402
   -13.2334 -13.2286 -13.2278 -13.2265 -13.2161 -13.2118 -13.1959 -13.1917
   -13.1875 -13.1851 -13.1738 -13.1674  -5.5650  -5.2819  -4.5965  -4.2267
     0.4187   1.3711   1.9889   2.5358   3.4055   4.6028   4.7677   5.3985
     5.5968   5.8813   5.9572   6.3352   6.8394   7.1489   7.3561   7.6049

     occupation numbers 
     1.0000   1.0000   1.0000   1.0000   1.0000   1.0000   1.0000   1.0000
     1.0000   1.0000   1.0000   1.0000   1.0000   1.0000   1.0000   1.0000
     1.0000   1.0000   1.0000   1.0000   1.0000   1.0000   1.0000   1.0000
     1.0000   1.0000   1.0000   1.0000   1.0000   1.0000   1.0000   1.0000
     1.0000   1.0000   1.0000   1.0000   1.0000   1.0000   1.0000   1.0000

          k = 0.1667 0.1698 0.8004 (  8507 PWs)   bands (ev):

   -13.2599 -13.2533 -13.2525 -13.2511 -13.2490 -13.2468 -13.2446 -13.2424
   -13.2316 -13.2272 -13.2242 -13.2231 -13.2158 -13.2131 -13.1954 -13.1909
   -13.1890 -13.1863 -13.1727 -13.1685  -5.3299  -5.0663  -4.6272  -4.3228
     0.0765   0.8521   1.4547   2.0119   3.7350   4.8562   5.0040   5.6692
     5.9319   6.0624   6.3192   6.4220   7.0032   7.3956   7.4954   7.8892

     occupation numbers 
     1.0000   1.0000   1.0000   1.0000   1.0000   1.0000   1.0000   1.0000
     1.0000   1.0000   1.0000   1.0000   1.0000   1.0000   1.0000   1.0000
     1.0000   1.0000   1.0000   1.0000   1.0000   1.0000   1.0000   1.0000
     1.0000   1.0000   1.0000   1.0000   1.0000   1.0000   1.0000   1.0000
     1.0000   1.0000   1.0000   1.0000   1.0000   1.0000   1.0000   1.0000

          k = 0.1667 0.1698 1.1206 (  8488 PWs)   bands (ev):

   -13.2571 -13.2549 -13.2530 -13.2527 -13.2478 -13.2469 -13.2449 -13.2442
   -13.2298 -13.2283 -13.2195 -13.2188 -13.2168 -13.2153 -13.1939 -13.1919
   -13.1888 -13.1876 -13.1713 -13.1698  -5.0475  -4.8564  -4.7064  -4.5064
     0.0080   0.2994   1.3323   1.5520   4.2338   4.7594   5.4419   5.7443
     5.9719   6.1176   6.3392   6.6160   7.2800   7.5364   7.7218   7.8275

     occupation numbers 
     1.0000   1.0000   1.0000   1.0000   1.0000   1.0000   1.0000   1.0000
     1.0000   1.0000   1.0000   1.0000   1.0000   1.0000   1.0000   1.0000
     1.0000   1.0000   1.0000   1.0000   1.0000   1.0000   1.0000   1.0000
     1.0000   1.0000   1.0000   1.0000   1.0000   1.0000   1.0000   1.0000
     1.0000   1.0000   1.0000   1.0000   1.0000   1.0000   1.0000   1.0000

          k = 0.1667 0.5093 0.1601 (  8514 PWs)   bands (ev):

   -13.2581 -13.2530 -13.2518 -13.2489 -13.2471 -13.2458 -13.2452 -13.2419
   -13.2360 -13.2298 -13.2284 -13.2267 -13.2136 -13.2119 -13.1941 -13.1929
   -13.1877 -13.1847 -13.1747 -13.1691  -5.5317  -5.2606  -4.5463  -4.2039
     0.5757   1.3498   2.1714   2.3061   3.4105   4.4581   4.7540   5.1574
     5.4620   5.6210   5.9869   6.3324   6.6449   7.2184   7.4327   7.5616

     occupation numbers 
     1.0000   1.0000   1.0000   1.0000   1.0000   1.0000   1.0000   1.0000
     1.0000   1.0000   1.0000   1.0000   1.0000   1.0000   1.0000   1.0000
     1.0000   1.0000   1.0000   1.0000   1.0000   1.0000   1.0000   1.0000
     1.0000   1.0000   1.0000   1.0000   1.0000   1.0000   1.0000   1.0000
     1.0000   1.0000   1.0000   1.0000   1.0000   1.0000   1.0000   1.0000

          k = 0.1667 0.5093 0.4803 (  8519 PWs)   bands (ev):

   -13.2586 -13.2539 -13.2528 -13.2490 -13.2470 -13.2460 -13.2445 -13.2435
   -13.2349 -13.2298 -13.2258 -13.2240 -13.2143 -13.2114 -13.1941 -13.1923
   -13.1883 -13.1857 -13.1741 -13.1693  -5.4076  -5.1472  -4.5345  -4.2253
     0.4153   1.2944   1.8332   2.1523   3.5626   4.0087   4.2566   5.2536
     5.4023   5.9797   6.1903   6.3580   7.0980   7.1832   7.4591   7.6068

     occupation numbers 
     1.0000   1.0000   1.0000   1.0000   1.0000   1.0000   1.0000   1.0000
     1.0000   1.0000   1.0000   1.0000   1.0000   1.0000   1.0000   1.0000
     1.0000   1.0000   1.0000   1.0000   1.0000   1.0000   1.0000   1.0000
     1.0000   1.0000   1.0000   1.0000   1.0000   1.0000   1.0000   1.0000
     1.0000   1.0000   1.0000   1.0000   1.0000   1.0000   1.0000   1.0000

          k = 0.1667 0.5093 0.8004 (  8518 PWs)   bands (ev):

   -13.2596 -13.2568 -13.2528 -13.2505 -13.2473 -13.2457 -13.2446 -13.2432
   -13.2334 -13.2301 -13.2218 -13.2200 -13.2148 -13.2116 -13.1934 -13.1915
   -13.1893 -13.1872 -13.1731 -13.1699  -5.1858  -4.9461  -4.5557  -4.2972
     0.2264   0.9675   1.5073   1.9101   3.8299   3.9627   4.2014   5.1240
     5.2677   6.0148   6.0210   6.6151   6.8251   7.0887   7.3950   7.6387

     occupation numbers 
     1.0000   1.0000   1.0000   1.0000   1.0000   1.0000   1.0000   1.0000
     1.0000   1.0000   1.0000   1.0000   1.0000   1.0000   1.0000   1.0000
     1.0000   1.0000   1.0000   1.0000   1.0000   1.0000   1.0000   1.0000
     1.0000   1.0000   1.0000   1.0000   1.0000   1.0000   1.0000   1.0000
     1.0000   1.0000   1.0000   1.0000   1.0000   1.0000   1.0000   1.0000

          k = 0.1667 0.5093 1.1206 (  8501 PWs)   bands (ev):

   -13.2602 -13.2592 -13.2529 -13.2521 -13.2473 -13.2462 -13.2437 -13.2429
   -13.2319 -13.2308 -13.2183 -13.2167 -13.2150 -13.2129 -13.1922 -13.1910
   -13.1898 -13.1887 -13.1719 -13.1708  -4.9250  -4.7537  -4.6214  -4.4478
     0.2148   0.4891   1.4664   1.6294   4.1662   4.2309   4.4815   4.8438
     5.1469   5.4695   6.0499   6.3696   6.7544   7.0095   7.3149   7.5286

     occupation numbers 
     1.0000   1.0000   1.0000   1.0000   1.0000   1.0000   1.0000   1.0000
     1.0000   1.0000   1.0000   1.0000   1.0000   1.0000   1.0000   1.0000
     1.0000   1.0000   1.0000   1.0000   1.0000   1.0000   1.0000   1.0000
     1.0000   1.0000   1.0000   1.0000   1.0000   1.0000   1.0000   1.0000
     1.0000   1.0000   1.0000   1.0000   1.0000   1.0000   1.0000   1.0000

          k = 0.1667 0.8488 0.1601 (  8533 PWs)   bands (ev):

   -13.2574 -13.2553 -13.2535 -13.2520 -13.2442 -13.2429 -13.2421 -13.2388
   -13.2351 -13.2323 -13.2266 -13.2212 -13.2144 -13.2097 -13.1976 -13.1955
   -13.1872 -13.1815 -13.1747 -13.1723  -5.2320  -5.0125  -4.4900  -4.2862
     0.3386   0.9978   1.3273   1.7323   3.7635   4.6305   4.9662   5.4194
     5.7082   5.8488   6.1781   6.3315   6.8158   7.1944   7.3168   7.7605

     occupation numbers 
     1.0000   1.0000   1.0000   1.0000   1.0000   1.0000   1.0000   1.0000
     1.0000   1.0000   1.0000   1.0000   1.0000   1.0000   1.0000   1.0000
     1.0000   1.0000   1.0000   1.0000   1.0000   1.0000   1.0000   1.0000
     1.0000   1.0000   1.0000   1.0000   1.0000   1.0000   1.0000   1.0000
     1.0000   1.0000   1.0000   1.0000   1.0000   1.0000   1.0000   1.0000

          k = 0.1667 0.8488 0.4803 (  8523 PWs)   bands (ev):

   -13.2607 -13.2579 -13.2556 -13.2536 -13.2440 -13.2414 -13.2409 -13.2384
   -13.2337 -13.2320 -13.2245 -13.2196 -13.2145 -13.2095 -13.1971 -13.1953
   -13.1871 -13.1823 -13.1743 -13.1721  -5.1223  -4.9144  -4.4689  -4.2810
     0.3953   1.1169   1.3876   1.6428   3.7947   3.8863   4.2265   4.9841
     5.3616   5.9286   6.0289   6.5384   6.6259   6.9332   7.2306   7.4850

     occupation numbers 
     1.0000   1.0000   1.0000   1.0000   1.0000   1.0000   1.0000   1.0000
     1.0000   1.0000   1.0000   1.0000   1.0000   1.0000   1.0000   1.0000
     1.0000   1.0000   1.0000   1.0000   1.0000   1.0000   1.0000   1.0000
     1.0000   1.0000   1.0000   1.0000   1.0000   1.0000   1.0000   1.0000
     1.0000   1.0000   1.0000   1.0000   1.0000   1.0000   1.0000   1.0000

          k = 0.1667 0.8488 0.8004 (  8515 PWs)   bands (ev):

   -13.2644 -13.2621 -13.2581 -13.2567 -13.2430 -13.2400 -13.2395 -13.2381
   -13.2322 -13.2315 -13.2214 -13.2176 -13.2136 -13.2097 -13.1963 -13.1950
   -13.1868 -13.1834 -13.1736 -13.1720  -4.9319  -4.7461  -4.4651  -4.3003
     0.4750   1.1076   1.4702   1.6169   3.3625   3.6568   4.1831   4.5106
     4.7957   5.3344   5.7439   6.0468   6.3795   6.6642   6.8721   7.4094

     occupation numbers 
     1.0000   1.0000   1.0000   1.0000   1.0000   1.0000   1.0000   1.0000
     1.0000   1.0000   1.0000   1.0000   1.0000   1.0000   1.0000   1.0000
     1.0000   1.0000   1.0000   1.0000   1.0000   1.0000   1.0000   1.0000
     1.0000   1.0000   1.0000   1.0000   1.0000   1.0000   1.0000   1.0000
     1.0000   1.0000   1.0000   1.0000   1.0000   1.0000   1.0000   1.0000

          k = 0.1667 0.8488 1.1206 (  8499 PWs)   bands (ev):

   -13.2663 -13.2655 -13.2596 -13.2592 -13.2416 -13.2403 -13.2384 -13.2379
   -13.2313 -13.2311 -13.2186 -13.2171 -13.2118 -13.2104 -13.1954 -13.1950
   -13.1858 -13.1846 -13.1728 -13.1723  -4.7200  -4.5927  -4.4985  -4.3808
     0.5939   0.8237   1.6106   1.6539   3.3878   3.6947   3.8554   4.1883
     4.6368   5.0269   5.3701   5.7741   5.9964   6.3024   6.9299   7.0723

     occupation numbers 
     1.0000   1.0000   1.0000   1.0000   1.0000   1.0000   1.0000   1.0000
     1.0000   1.0000   1.0000   1.0000   1.0000   1.0000   1.0000   1.0000
     1.0000   1.0000   1.0000   1.0000   1.0000   1.0000   1.0000   1.0000
     1.0000   1.0000   1.0000   1.0000   1.0000   1.0000   1.0000   1.0000
     1.0000   1.0000   1.0000   1.0000   1.0000   1.0000   1.0000   1.0000

          k = 0.1667 1.1883 0.1601 (  8542 PWs)   bands (ev):

   -13.2597 -13.2583 -13.2564 -13.2549 -13.2405 -13.2399 -13.2394 -13.2372
   -13.2299 -13.2290 -13.2269 -13.2215 -13.2120 -13.2065 -13.2035 -13.2018
   -13.1816 -13.1782 -13.1762 -13.1755  -4.8578  -4.7347  -4.5373  -4.5094
     0.3009   0.6390   0.9133   1.1959   4.2974   4.7999   5.2157   5.6192
     5.8143   5.8300   6.2445   6.4892   6.9755   7.0740   7.2046   7.3526

     occupation numbers 
     1.0000   1.0000   1.0000   1.0000   1.0000   1.0000   1.0000   1.0000
     1.0000   1.0000   1.0000   1.0000   1.0000   1.0000   1.0000   1.0000
     1.0000   1.0000   1.0000   1.0000   1.0000   1.0000   1.0000   1.0000
     1.0000   1.0000   1.0000   1.0000   1.0000   1.0000   1.0000   1.0000
     1.0000   1.0000   1.0000   1.0000   1.0000   1.0000   1.0000   1.0000

          k = 0.1667 1.1883 0.4803 (  8522 PWs)   bands (ev):

   -13.2632 -13.2619 -13.2587 -13.2575 -13.2404 -13.2392 -13.2373 -13.2360
   -13.2294 -13.2283 -13.2252 -13.2209 -13.2115 -13.2078 -13.2015 -13.2008
   -13.1818 -13.1792 -13.1753 -13.1751  -4.7747  -4.6619  -4.4947  -4.4646
     0.4687   0.8006   1.0609   1.2611   4.0954   4.2504   4.5046   4.8414
     5.1100   5.5394   6.0141   6.1968   6.3495   6.6186   7.1099   7.4213

     occupation numbers 
     1.0000   1.0000   1.0000   1.0000   1.0000   1.0000   1.0000   1.0000
     1.0000   1.0000   1.0000   1.0000   1.0000   1.0000   1.0000   1.0000
     1.0000   1.0000   1.0000   1.0000   1.0000   1.0000   1.0000   1.0000
     1.0000   1.0000   1.0000   1.0000   1.0000   1.0000   1.0000   1.0000
     1.0000   1.0000   1.0000   1.0000   1.0000   1.0000   1.0000   1.0000

          k = 0.1667 1.1883 0.8004 (  8515 PWs)   bands (ev):

   -13.2677 -13.2668 -13.2620 -13.2613 -13.2399 -13.2387 -13.2352 -13.2346
   -13.2285 -13.2275 -13.2229 -13.2202 -13.2103 -13.2083 -13.1996 -13.1993
   -13.1817 -13.1801 -13.1746 -13.1745  -4.6401  -4.5470  -4.4427  -4.4070
     0.7586   1.0660   1.2916   1.3585   3.3746   3.8142   3.9117   4.2565
     4.5965   4.9818   5.3011   5.7415   5.8799   6.1124   6.8982   7.0626

     occupation numbers 
     1.0000   1.0000   1.0000   1.0000   1.0000   1.0000   1.0000   1.0000
     1.0000   1.0000   1.0000   1.0000   1.0000   1.0000   1.0000   1.0000
     1.0000   1.0000   1.0000   1.0000   1.0000   1.0000   1.0000   1.0000
     1.0000   1.0000   1.0000   1.0000   1.0000   1.0000   1.0000   1.0000
     1.0000   1.0000   1.0000   1.0000   1.0000   1.0000   1.0000   1.0000

          k = 0.1667 1.1883 1.1206 (  8499 PWs)   bands (ev):

   -13.2706 -13.2702 -13.2643 -13.2641 -13.2393 -13.2388 -13.2340 -13.2338
   -13.2276 -13.2272 -13.2211 -13.2201 -13.2090 -13.2084 -13.1985 -13.1984
   -13.1812 -13.1807 -13.1742 -13.1742  -4.5106  -4.4549  -4.4201  -4.3851
     1.0473   1.1882   1.4716   1.5257   3.0821   3.3074   3.5997   3.7811
     4.3958   4.4463   4.8842   5.2335   5.8199   6.0275   6.7362   6.7927

     occupation numbers 
     1.0000   1.0000   1.0000   1.0000   1.0000   1.0000   1.0000   1.0000
     1.0000   1.0000   1.0000   1.0000   1.0000   1.0000   1.0000   1.0000
     1.0000   1.0000   1.0000   1.0000   1.0000   1.0000   1.0000   1.0000
     1.0000   1.0000   1.0000   1.0000   1.0000   1.0000   1.0000   1.0000
     1.0000   1.0000   1.0000   1.0000   1.0000   1.0000   1.0000   1.0000

          k =-0.5000 0.1698 0.1601 (  8486 PWs)   bands (ev):

   -13.2594 -13.2594 -13.2503 -13.2503 -13.2483 -13.2483 -13.2401 -13.2401
   -13.2316 -13.2316 -13.2297 -13.2297 -13.2139 -13.2139 -13.1939 -13.1939
   -13.1854 -13.1854 -13.1704 -13.1704  -5.5735  -5.5735  -4.3745  -4.3745
     1.0692   1.0692   2.8360   2.8360   4.0718   4.0718   4.8239   4.8239
     5.3326   5.3326   6.0203   6.0203   6.3784   6.3784   7.5251   7.5251

     occupation numbers 
     1.0000   1.0000   1.0000   1.0000   1.0000   1.0000   1.0000   1.0000
     1.0000   1.0000   1.0000   1.0000   1.0000   1.0000   1.0000   1.0000
     1.0000   1.0000   1.0000   1.0000   1.0000   1.0000   1.0000   1.0000
     1.0000   1.0000   1.0000   1.0000   1.0000   1.0000   1.0000   1.0000
     1.0000   1.0000   1.0000   1.0000   1.0000   1.0000   1.0000   1.0000

          k =-0.5000 0.1698 0.4803 (  8514 PWs)   bands (ev):

   -13.2584 -13.2584 -13.2499 -13.2499 -13.2490 -13.2490 -13.2417 -13.2417
   -13.2302 -13.2302 -13.2277 -13.2277 -13.2141 -13.2141 -13.1937 -13.1937
   -13.1863 -13.1863 -13.1705 -13.1705  -5.4485  -5.4485  -4.3864  -4.3864
     0.7581   0.7581   2.3222   2.3222   4.2802   4.2802   4.8939   4.8939
     5.6337   5.6337   6.1576   6.1576   6.8852   6.8852   7.4489   7.4489

     occupation numbers 
     1.0000   1.0000   1.0000   1.0000   1.0000   1.0000   1.0000   1.0000
     1.0000   1.0000   1.0000   1.0000   1.0000   1.0000   1.0000   1.0000
     1.0000   1.0000   1.0000   1.0000   1.0000   1.0000   1.0000   1.0000
     1.0000   1.0000   1.0000   1.0000   1.0000   1.0000   1.0000   1.0000
     1.0000   1.0000   1.0000   1.0000   1.0000   1.0000   1.0000   1.0000

          k =-0.5000 0.1698 0.8004 (  8520 PWs)   bands (ev):

   -13.2568 -13.2568 -13.2519 -13.2519 -13.2477 -13.2477 -13.2438 -13.2438
   -13.2292 -13.2292 -13.2234 -13.2234 -13.2147 -13.2147 -13.1932 -13.1932
   -13.1876 -13.1876 -13.1705 -13.1705  -5.2249  -5.2249  -4.4484  -4.4484
     0.3959   0.3959   1.7221   1.7221   4.5828   4.5828   5.2080   5.2080
     5.8097   5.8097   6.3972   6.3972   7.1064   7.1064   7.6157   7.6157

     occupation numbers 
     1.0000   1.0000   1.0000   1.0000   1.0000   1.0000   1.0000   1.0000
     1.0000   1.0000   1.0000   1.0000   1.0000   1.0000   1.0000   1.0000
     1.0000   1.0000   1.0000   1.0000   1.0000   1.0000   1.0000   1.0000
     1.0000   1.0000   1.0000   1.0000   1.0000   1.0000   1.0000   1.0000
     1.0000   1.0000   1.0000   1.0000   1.0000   1.0000   1.0000   1.0000

          k =-0.5000 0.1698 1.1206 (  8504 PWs)   bands (ev):

   -13.2554 -13.2554 -13.2534 -13.2534 -13.2472 -13.2472 -13.2452 -13.2452
   -13.2287 -13.2287 -13.2191 -13.2191 -13.2162 -13.2162 -13.1926 -13.1926
   -13.1885 -13.1885 -13.1705 -13.1705  -4.9764  -4.9764  -4.5828  -4.5828
     0.1952   0.1952   1.3234   1.3234   5.0045   5.0045   5.5657   5.5657
     5.6483   5.6483   6.2649   6.2649   7.4620   7.4620   7.7101   7.7101

     occupation numbers 
     1.0000   1.0000   1.0000   1.0000   1.0000   1.0000   1.0000   1.0000
     1.0000   1.0000   1.0000   1.0000   1.0000   1.0000   1.0000   1.0000
     1.0000   1.0000   1.0000   1.0000   1.0000   1.0000   1.0000   1.0000
     1.0000   1.0000   1.0000   1.0000   1.0000   1.0000   1.0000   1.0000
     1.0000   1.0000   1.0000   1.0000   1.0000   1.0000   1.0000   1.0000

          k =-0.5000 0.5093 0.1601 (  8526 PWs)   bands (ev):

   -13.2555 -13.2555 -13.2504 -13.2504 -13.2471 -13.2471 -13.2433 -13.2433
   -13.2329 -13.2329 -13.2272 -13.2272 -13.2130 -13.2130 -13.1932 -13.1932
   -13.1864 -13.1864 -13.1718 -13.1718  -5.4187  -5.4187  -4.3518  -4.3518
     0.8640   0.8640   2.2746   2.2746   4.1766   4.1766   4.7818   4.7818
     5.7010   5.7010   5.9386   5.9386   6.6828   6.6828   7.5945   7.5945

     occupation numbers 
     1.0000   1.0000   1.0000   1.0000   1.0000   1.0000   1.0000   1.0000
     1.0000   1.0000   1.0000   1.0000   1.0000   1.0000   1.0000   1.0000
     1.0000   1.0000   1.0000   1.0000   1.0000   1.0000   1.0000   1.0000
     1.0000   1.0000   1.0000   1.0000   1.0000   1.0000   1.0000   1.0000
     1.0000   1.0000   1.0000   1.0000   1.0000   1.0000   1.0000   1.0000

          k =-0.5000 0.5093 0.4803 (  8502 PWs)   bands (ev):

   -13.2563 -13.2563 -13.2514 -13.2514 -13.2464 -13.2464 -13.2438 -13.2438
   -13.2322 -13.2322 -13.2247 -13.2247 -13.2131 -13.2131 -13.1930 -13.1930
   -13.1872 -13.1872 -13.1715 -13.1715  -5.2998  -5.2998  -4.3570  -4.3570
     0.7408   0.7408   2.0393   2.0393   4.0685   4.0685   4.6678   4.6678
     5.3424   5.3424   6.3954   6.3954   7.0727   7.0727   7.5468   7.5468

     occupation numbers 
     1.0000   1.0000   1.0000   1.0000   1.0000   1.0000   1.0000   1.0000
     1.0000   1.0000   1.0000   1.0000   1.0000   1.0000   1.0000   1.0000
     1.0000   1.0000   1.0000   1.0000   1.0000   1.0000   1.0000   1.0000
     1.0000   1.0000   1.0000   1.0000   1.0000   1.0000   1.0000   1.0000
     1.0000   1.0000   1.0000   1.0000   1.0000   1.0000   1.0000   1.0000

          k =-0.5000 0.5093 0.8004 (  8494 PWs)   bands (ev):

   -13.2577 -13.2577 -13.2532 -13.2532 -13.2459 -13.2459 -13.2434 -13.2434
   -13.2316 -13.2316 -13.2210 -13.2210 -13.2133 -13.2133 -13.1925 -13.1925
   -13.1884 -13.1884 -13.1712 -13.1712  -5.0897  -5.0897  -4.4028  -4.4028
     0.5353   0.5353   1.7051   1.7051   4.0310   4.0310   4.8882   4.8882
     5.1697   5.1697   6.4556   6.4556   6.7894   6.7894   7.5555   7.5555

     occupation numbers 
     1.0000   1.0000   1.0000   1.0000   1.0000   1.0000   1.0000   1.0000
     1.0000   1.0000   1.0000   1.0000   1.0000   1.0000   1.0000   1.0000
     1.0000   1.0000   1.0000   1.0000   1.0000   1.0000   1.0000   1.0000
     1.0000   1.0000   1.0000   1.0000   1.0000   1.0000   1.0000   1.0000
     1.0000   1.0000   1.0000   1.0000   1.0000   1.0000   1.0000   1.0000

          k =-0.5000 0.5093 1.1206 (  8508 PWs)   bands (ev):

   -13.2590 -13.2590 -13.2545 -13.2545 -13.2456 -13.2456 -13.2429 -13.2429
   -13.2312 -13.2312 -13.2179 -13.2179 -13.2137 -13.2137 -13.1921 -13.1921
   -13.1893 -13.1893 -13.1710 -13.1710  -4.8610  -4.8610  -4.5136  -4.5136
     0.3879   0.3879   1.4500   1.4500   4.2967   4.2967   4.7670   4.7670
     5.4119   5.4119   6.0538   6.0538   6.6391   6.6391   7.3180   7.3180

     occupation numbers 
     1.0000   1.0000   1.0000   1.0000   1.0000   1.0000   1.0000   1.0000
     1.0000   1.0000   1.0000   1.0000   1.0000   1.0000   1.0000   1.0000
     1.0000   1.0000   1.0000   1.0000   1.0000   1.0000   1.0000   1.0000
     1.0000   1.0000   1.0000   1.0000   1.0000   1.0000   1.0000   1.0000
     1.0000   1.0000   1.0000   1.0000   1.0000   1.0000   1.0000   1.0000

          k =-0.5000 0.8488 0.1601 (  8558 PWs)   bands (ev):

   -13.2569 -13.2569 -13.2522 -13.2522 -13.2431 -13.2431 -13.2414 -13.2414
   -13.2333 -13.2333 -13.2244 -13.2244 -13.2116 -13.2116 -13.1969 -13.1969
   -13.1840 -13.1840 -13.1735 -13.1735  -5.1391  -5.1391  -4.3705  -4.3705
     0.6074   0.6074   1.5267   1.5267   4.4610   4.4610   5.0284   5.0284
     5.8911   5.8911   6.1275   6.1275   6.7192   6.7192   7.5518   7.5518

     occupation numbers 
     1.0000   1.0000   1.0000   1.0000   1.0000   1.0000   1.0000   1.0000
     1.0000   1.0000   1.0000   1.0000   1.0000   1.0000   1.0000   1.0000
     1.0000   1.0000   1.0000   1.0000   1.0000   1.0000   1.0000   1.0000
     1.0000   1.0000   1.0000   1.0000   1.0000   1.0000   1.0000   1.0000
     1.0000   1.0000   1.0000   1.0000   1.0000   1.0000   1.0000   1.0000

          k =-0.5000 0.8488 0.4803 (  8530 PWs)   bands (ev):

   -13.2593 -13.2593 -13.2547 -13.2547 -13.2421 -13.2421 -13.2403 -13.2403
   -13.2325 -13.2325 -13.2226 -13.2226 -13.2114 -13.2114 -13.1968 -13.1968
   -13.1843 -13.1843 -13.1732 -13.1732  -5.0348  -5.0348  -4.3580  -4.3580
     0.6875   0.6875   1.5270   1.5270   3.9545   3.9545   4.8255   4.8255
     5.2515   5.2515   6.3460   6.3460   6.5935   6.5935   7.4445   7.4445

     occupation numbers 
     1.0000   1.0000   1.0000   1.0000   1.0000   1.0000   1.0000   1.0000
     1.0000   1.0000   1.0000   1.0000   1.0000   1.0000   1.0000   1.0000
     1.0000   1.0000   1.0000   1.0000   1.0000   1.0000   1.0000   1.0000
     1.0000   1.0000   1.0000   1.0000   1.0000   1.0000   1.0000   1.0000
     1.0000   1.0000   1.0000   1.0000   1.0000   1.0000   1.0000   1.0000

          k =-0.5000 0.8488 0.8004 (  8504 PWs)   bands (ev):

   -13.2627 -13.2627 -13.2582 -13.2582 -13.2411 -13.2411 -13.2391 -13.2391
   -13.2315 -13.2315 -13.2204 -13.2204 -13.2106 -13.2106 -13.1967 -13.1967
   -13.1845 -13.1845 -13.1727 -13.1727  -4.8561  -4.8561  -4.3655  -4.3655
     0.7507   0.7507   1.5371   1.5371   3.5577   3.5577   4.4862   4.4862
     5.0150   5.0150   5.7320   5.7320   6.3981   6.3981   7.2364   7.2364

     occupation numbers 
     1.0000   1.0000   1.0000   1.0000   1.0000   1.0000   1.0000   1.0000
     1.0000   1.0000   1.0000   1.0000   1.0000   1.0000   1.0000   1.0000
     1.0000   1.0000   1.0000   1.0000   1.0000   1.0000   1.0000   1.0000
     1.0000   1.0000   1.0000   1.0000   1.0000   1.0000   1.0000   1.0000
     1.0000   1.0000   1.0000   1.0000   1.0000   1.0000   1.0000   1.0000

          k =-0.5000 0.8488 1.1206 (  8492 PWs)   bands (ev):

   -13.2650 -13.2650 -13.2606 -13.2606 -13.2404 -13.2404 -13.2384 -13.2384
   -13.2308 -13.2308 -13.2190 -13.2190 -13.2097 -13.2097 -13.1965 -13.1965
   -13.1847 -13.1847 -13.1724 -13.1724  -4.6717  -4.6717  -4.4246  -4.4246
     0.7320   0.7320   1.5758   1.5758   3.5681   3.5681   3.9992   3.9992
     4.9989   4.9989   5.3382   5.3382   6.3299   6.3299   6.8505   6.8505

     occupation numbers 
     1.0000   1.0000   1.0000   1.0000   1.0000   1.0000   1.0000   1.0000
     1.0000   1.0000   1.0000   1.0000   1.0000   1.0000   1.0000   1.0000
     1.0000   1.0000   1.0000   1.0000   1.0000   1.0000   1.0000   1.0000
     1.0000   1.0000   1.0000   1.0000   1.0000   1.0000   1.0000   1.0000
     1.0000   1.0000   1.0000   1.0000   1.0000   1.0000   1.0000   1.0000

          k =-0.5000 1.1883 0.1601 (  8546 PWs)   bands (ev):

   -13.2583 -13.2583 -13.2565 -13.2565 -13.2399 -13.2399 -13.2388 -13.2388
   -13.2290 -13.2290 -13.2246 -13.2246 -13.2086 -13.2086 -13.2031 -13.2031
   -13.1797 -13.1797 -13.1759 -13.1759  -4.8032  -4.8032  -4.5170  -4.5170
     0.5690   0.5690   0.8958   0.8958   4.9430   4.9430   5.3342   5.3342
     5.7740   5.7740   6.0773   6.0773   6.8848   6.8848   7.2548   7.2548

     occupation numbers 
     1.0000   1.0000   1.0000   1.0000   1.0000   1.0000   1.0000   1.0000
     1.0000   1.0000   1.0000   1.0000   1.0000   1.0000   1.0000   1.0000
     1.0000   1.0000   1.0000   1.0000   1.0000   1.0000   1.0000   1.0000
     1.0000   1.0000   1.0000   1.0000   1.0000   1.0000   1.0000   1.0000
     1.0000   1.0000   1.0000   1.0000   1.0000   1.0000   1.0000   1.0000

          k =-0.5000 1.1883 0.4803 (  8548 PWs)   bands (ev):

   -13.2613 -13.2613 -13.2596 -13.2596 -13.2388 -13.2388 -13.2381 -13.2381
   -13.2282 -13.2282 -13.2238 -13.2238 -13.2078 -13.2078 -13.2026 -13.2026
   -13.1797 -13.1797 -13.1758 -13.1758  -4.7249  -4.7249  -4.4735  -4.4735
     0.7262   0.7262   1.0194   1.0194   4.2619   4.2619   4.8133   4.8133
     5.3527   5.3527   5.8183   5.8183   6.5732   6.5732   7.0300   7.0300

     occupation numbers 
     1.0000   1.0000   1.0000   1.0000   1.0000   1.0000   1.0000   1.0000
     1.0000   1.0000   1.0000   1.0000   1.0000   1.0000   1.0000   1.0000
     1.0000   1.0000   1.0000   1.0000   1.0000   1.0000   1.0000   1.0000
     1.0000   1.0000   1.0000   1.0000   1.0000   1.0000   1.0000   1.0000
     1.0000   1.0000   1.0000   1.0000   1.0000   1.0000   1.0000   1.0000

          k =-0.5000 1.1883 0.8004 (  8518 PWs)   bands (ev):

   -13.2653 -13.2653 -13.2636 -13.2636 -13.2378 -13.2378 -13.2370 -13.2370
   -13.2271 -13.2271 -13.2228 -13.2228 -13.2065 -13.2065 -13.2017 -13.2017
   -13.1796 -13.1796 -13.1754 -13.1754  -4.6001  -4.6001  -4.4185  -4.4185
     0.9696   0.9696   1.2337   1.2337   3.6204   3.6204   4.1599   4.1599
     4.7699   4.7699   5.2342   5.2342   6.4002   6.4002   6.7745   6.7745

     occupation numbers 
     1.0000   1.0000   1.0000   1.0000   1.0000   1.0000   1.0000   1.0000
     1.0000   1.0000   1.0000   1.0000   1.0000   1.0000   1.0000   1.0000
     1.0000   1.0000   1.0000   1.0000   1.0000   1.0000   1.0000   1.0000
     1.0000   1.0000   1.0000   1.0000   1.0000   1.0000   1.0000   1.0000
     1.0000   1.0000   1.0000   1.0000   1.0000   1.0000   1.0000   1.0000

          k =-0.5000 1.1883 1.1206 (  8490 PWs)   bands (ev):

   -13.2681 -13.2681 -13.2665 -13.2665 -13.2375 -13.2375 -13.2364 -13.2364
   -13.2262 -13.2262 -13.2220 -13.2220 -13.2053 -13.2053 -13.2010 -13.2010
   -13.1795 -13.1795 -13.1752 -13.1752  -4.4884  -4.4884  -4.3971  -4.3971
     1.1301   1.1301   1.4614   1.4614   3.3887   3.3887   3.6459   3.6459
     4.3622   4.3622   4.6512   4.6512   6.4847   6.4847   6.6702   6.6702

     occupation numbers 
     1.0000   1.0000   1.0000   1.0000   1.0000   1.0000   1.0000   1.0000
     1.0000   1.0000   1.0000   1.0000   1.0000   1.0000   1.0000   1.0000
     1.0000   1.0000   1.0000   1.0000   1.0000   1.0000   1.0000   1.0000
     1.0000   1.0000   1.0000   1.0000   1.0000   1.0000   1.0000   1.0000
     1.0000   1.0000   1.0000   1.0000   1.0000   1.0000   1.0000   1.0000

     highest occupied level (ev):     7.8892

!    total energy              =    -827.74349133 Ry
     estimated scf accuracy    <          3.2E-09 Ry

     The total energy is the sum of the following terms:
     one-electron contribution =    -257.00386138 Ry
     hartree contribution      =     179.10535370 Ry
     xc contribution           =    -309.11813409 Ry
     ewald contribution        =    -440.60481620 Ry
     DFT-D3 Dispersion         =      -0.12203337 Ry

     convergence has been achieved in  10 iterations

     Forces acting on atoms (cartesian axes, Ry/au):

     atom    1 type  2   force =     0.00807963    0.00000000   -0.00009695
     atom    2 type  1   force =    -0.00894798   -0.00000000   -0.00063661
     atom    3 type  2   force =    -0.00807963    0.00000000   -0.00009695
     atom    4 type  1   force =     0.00894798    0.00000000   -0.00063661
     atom    5 type  2   force =     0.00807963    0.00000000    0.00009695
     atom    6 type  1   force =    -0.00894798    0.00000000    0.00063661
     atom    7 type  2   force =    -0.00807963    0.00000000    0.00009695
     atom    8 type  1   force =     0.00894798   -0.00000000    0.00063661
     The non-local contrib.  to forces
     atom    1 type  2   force =    -0.11356775    0.00000000    0.09866514
     atom    2 type  1   force =     0.36110337    0.00000000    0.27150083
     atom    3 type  2   force =     0.11356775    0.00000000    0.09866514
     atom    4 type  1   force =    -0.36110337    0.00000000    0.27150083
     atom    5 type  2   force =    -0.11356775    0.00000000   -0.09866514
     atom    6 type  1   force =     0.36110337    0.00000000   -0.27150083
     atom    7 type  2   force =     0.11356775    0.00000000   -0.09866514
     atom    8 type  1   force =    -0.36110337    0.00000000   -0.27150083
     The ionic contribution  to forces
     atom    1 type  2   force =     1.53473235    0.00000000   -1.05154455
     atom    2 type  1   force =    -1.03769718    0.00000000   -0.57506129
     atom    3 type  2   force =    -1.53473235    0.00000000   -1.05154455
     atom    4 type  1   force =     1.03769718   -0.00000000   -0.57506129
     atom    5 type  2   force =     1.53473235    0.00000000    1.05154455
     atom    6 type  1   force =    -1.03769718    0.00000000    0.57506129
     atom    7 type  2   force =    -1.53473235   -0.00000000    1.05154455
     atom    8 type  1   force =     1.03769718   -0.00000000    0.57506129
     The local contribution  to forces
     atom    1 type  2   force =    -1.42473736   -0.00000000    0.96250422
     atom    2 type  1   force =     0.67367829   -0.00000000    0.30657367
     atom    3 type  2   force =     1.42473736   -0.00000000    0.96250422
     atom    4 type  1   force =    -0.67367829    0.00000000    0.30657367
     atom    5 type  2   force =    -1.42473736   -0.00000000   -0.96250422
     atom    6 type  1   force =     0.67367829    0.00000000   -0.30657367
     atom    7 type  2   force =     1.42473736    0.00000000   -0.96250422
     atom    8 type  1   force =    -0.67367829    0.00000000   -0.30657367
     The core correction contribution to forces
     atom    1 type  2   force =     0.01242271   -0.00000000   -0.01091841
     atom    2 type  1   force =    -0.00539521   -0.00000000   -0.00453650
     atom    3 type  2   force =    -0.01242271    0.00000000   -0.01091841
     atom    4 type  1   force =     0.00539521    0.00000000   -0.00453650
     atom    5 type  2   force =     0.01242271   -0.00000000    0.01091841
     atom    6 type  1   force =    -0.00539521   -0.00000000    0.00453650
     atom    7 type  2   force =    -0.01242271    0.00000000    0.01091841
     atom    8 type  1   force =     0.00539521   -0.00000000    0.00453650
     The Hubbard contrib.    to forces
     atom    1 type  2   force =     0.00000000    0.00000000    0.00000000
     atom    2 type  1   force =     0.00000000    0.00000000    0.00000000
     atom    3 type  2   force =     0.00000000    0.00000000    0.00000000
     atom    4 type  1   force =     0.00000000    0.00000000    0.00000000
     atom    5 type  2   force =     0.00000000    0.00000000    0.00000000
     atom    6 type  1   force =     0.00000000    0.00000000    0.00000000
     atom    7 type  2   force =     0.00000000    0.00000000    0.00000000
     atom    8 type  1   force =     0.00000000    0.00000000    0.00000000
     The SCF correction term to forces
     atom    1 type  2   force =     0.00001430   -0.00000000    0.00000298
     atom    2 type  1   force =    -0.00008221    0.00000000   -0.00000815
     atom    3 type  2   force =    -0.00001430   -0.00000000    0.00000298
     atom    4 type  1   force =     0.00008221   -0.00000000   -0.00000815
     atom    5 type  2   force =     0.00001430    0.00000000   -0.00000298
     atom    6 type  1   force =    -0.00008221   -0.00000000    0.00000815
     atom    7 type  2   force =    -0.00001430    0.00000000   -0.00000298
     atom    8 type  1   force =     0.00008221    0.00000000    0.00000815

     DFT-D3 dispersion contribution to forces:
     atom    1 type  2   force =    -0.00078462   -0.00000000    0.00119368
     atom    2 type  1   force =    -0.00055504    0.00000000    0.00089483
     atom    3 type  2   force =     0.00078462    0.00000000    0.00119368
     atom    4 type  1   force =     0.00055504    0.00000000    0.00089483
     atom    5 type  2   force =    -0.00078462   -0.00000000   -0.00119368
     atom    6 type  1   force =    -0.00055504   -0.00000000   -0.00089483
     atom    7 type  2   force =     0.00078462    0.00000000   -0.00119368
     atom    8 type  1   force =     0.00055504   -0.00000000   -0.00089483

     Total force =     0.024146     Total SCF correction =     0.000168

     DFT-D3 dispersion Force =     0.003549


     Computing stress (Cartesian axis) and pressure

          total   stress  (Ry/bohr**3)                   (kbar)     P=       16.56
   0.00020310   0.00000000   0.00000000           29.88        0.00        0.00
   0.00000000   0.00005661   0.00000000            0.00        8.33        0.00
   0.00000000   0.00000000   0.00007802            0.00        0.00       11.48

     kinetic stress (kbar)   7547.36      0.00      0.00
                                0.00   7512.70      0.00
                                0.00      0.00   7541.90

     local   stress (kbar)  -1401.11     -0.00     -0.00
                               -0.00   -819.64      0.00
                               -0.00      0.00   2178.37

     nonloc. stress (kbar)   5883.40      0.00      0.00
                                0.00   5835.71      0.00
                                0.00      0.00   5836.43

     hartree stress (kbar)   6698.89     -0.00     -0.00
                               -0.00   6514.42      0.00
                               -0.00      0.00   5266.39

     exc-cor stress (kbar)  17895.27      0.00     -0.00
                                0.00  17893.18     -0.00
                               -0.00     -0.00  17892.47

     corecor stress (kbar) -22248.52     -0.00      0.00
                               -0.00 -22245.29     -0.00
                                0.00     -0.00 -22245.65

     ewald   stress (kbar) -14336.89      0.00      0.00
                                0.00 -14673.12      0.00
                                0.00      0.00 -16450.62

     hubbard stress (kbar)      0.00      0.00      0.00
                                0.00      0.00      0.00
                                0.00      0.00      0.00

     DFT-D   stress (kbar)     -8.53     -0.00      0.00
                               -0.00     -9.65      0.00
                                0.00      0.00     -7.80

     XDM     stress (kbar)      0.00      0.00      0.00
                                0.00      0.00      0.00
                                0.00      0.00      0.00

     dft-nl  stress (kbar)      0.00      0.00      0.00
                                0.00      0.00      0.00
                                0.00      0.00      0.00

     TS-vdW  stress (kbar)      0.00      0.00      0.00
                                0.00      0.00      0.00
                                0.00      0.00      0.00

     MDB     stress (kbar)      0.00      0.00      0.00
                                0.00      0.00      0.00
                                0.00      0.00      0.00

     3D-RISM stress (kbar)      0.00      0.00      0.00
                                0.00      0.00      0.00
                                0.00      0.00      0.00


     BFGS Geometry Optimization
     Energy error            =      0.0E+00 Ry
     Gradient error          =      8.9E-03 Ry/Bohr
     Cell gradient error     =      3.0E+01 kbar

     number of scf cycles    =   1
     number of bfgs steps    =   0

     enthalpy           new  =    -827.7434913345 Ry

     new trust radius        =       0.0383440944 bohr
ibrav =      8
 celldm(1) =     21.59528160
 celldm(2) =      0.36682037
 celldm(3) =      0.38919871
Input lattice vectors:
     1.00507747     0.00000000     0.00000000
     0.00000000     0.36868289     0.00000000
     0.00000000     0.00000000     0.39117486
New lattice vectors in INITIAL alat:
     1.00507747     0.00000000     0.00000000
     0.00000000     0.36868289     0.00000000
     0.00000000     0.00000000     0.39117486
New lattice vectors in NEW alat (for information only):
     1.00000000     0.00000000     0.00000000
     0.00000000     0.36682037     0.00000000
     0.00000000     0.00000000     0.38919871
Discrepancy in bohr =     0.000000    0.000000    0.000000
     new conv_thr            =       0.0000000100 Ry

     new unit-cell volume =   1437.80983 a.u.^3 (   213.06143 Ang^3 )
     density =      6.16267 g/cm^3

CELL_PARAMETERS (alat= 21.48618604)
   1.005077475   0.000000000   0.000000000
   0.000000000   0.368682888   0.000000000
   0.000000000   0.000000000   0.391174856

ATOMIC_POSITIONS (crystal)
Se               0.8558760382        0.2500000000        0.4827884428
Sn               0.1182835472        0.2500000000        0.0987241087
Se               0.6441239618        0.7500000000        0.9827884428
Sn               0.3817164528        0.7500000000        0.5987241087
Se               0.3558760382        0.2500000000        0.0172115572
Sn               0.6182835472        0.2500000000        0.4012758913
Se               0.1441239618        0.7500000000        0.5172115572
Sn               0.8817164528        0.7500000000        0.9012758913



     Writing config-only to output data dir ./tmp/SnSe_pnma.save/ :
     XML data file
     NEW-OLD atomic charge density approx. for the potential

     total cpu time spent up to now is       69.5 secs

     Self-consistent Calculation

     iteration #  1     ecut=    50.00 Ry     beta= 0.70
     Davidson diagonalization with overlap

---- Real-time Memory Report at c_bands before calling an iterative solver
           483 MiB given to the printing process from OS
             0 MiB allocation reported by mallinfo(arena+hblkhd)
         10830 MiB available memory on the node where the printing process lives
------------------
     ethr =  1.00E-06,  avg # of iterations =  5.6

     Threshold (ethr) on eigenvalues was too large:
     Diagonalizing with lowered threshold

     Davidson diagonalization with overlap

---- Real-time Memory Report at c_bands before calling an iterative solver
           483 MiB given to the printing process from OS
             0 MiB allocation reported by mallinfo(arena+hblkhd)
         10908 MiB available memory on the node where the printing process lives
------------------
     ethr =  3.86E-08,  avg # of iterations =  4.8

     total cpu time spent up to now is       81.9 secs

     total energy              =    -827.74540923 Ry
     estimated scf accuracy    <       0.00003974 Ry

     iteration #  2     ecut=    50.00 Ry     beta= 0.70
     Davidson diagonalization with overlap

---- Real-time Memory Report at c_bands before calling an iterative solver
           486 MiB given to the printing process from OS
             0 MiB allocation reported by mallinfo(arena+hblkhd)
         10906 MiB available memory on the node where the printing process lives
------------------
     ethr =  4.97E-08,  avg # of iterations =  2.7

     total cpu time spent up to now is       86.3 secs

     total energy              =    -827.74541867 Ry
     estimated scf accuracy    <       0.00001375 Ry

     iteration #  3     ecut=    50.00 Ry     beta= 0.70
     Davidson diagonalization with overlap

---- Real-time Memory Report at c_bands before calling an iterative solver
           487 MiB given to the printing process from OS
             0 MiB allocation reported by mallinfo(arena+hblkhd)
         10905 MiB available memory on the node where the printing process lives
------------------
     ethr =  1.72E-08,  avg # of iterations =  2.0

     total cpu time spent up to now is       90.6 secs

     total energy              =    -827.74542264 Ry
     estimated scf accuracy    <       0.00000116 Ry

     iteration #  4     ecut=    50.00 Ry     beta= 0.70
     Davidson diagonalization with overlap

---- Real-time Memory Report at c_bands before calling an iterative solver
           488 MiB given to the printing process from OS
             0 MiB allocation reported by mallinfo(arena+hblkhd)
         10906 MiB available memory on the node where the printing process lives
------------------
     ethr =  1.46E-09,  avg # of iterations =  4.3

     total cpu time spent up to now is       95.6 secs

     total energy              =    -827.74542304 Ry
     estimated scf accuracy    <       0.00000006 Ry

     iteration #  5     ecut=    50.00 Ry     beta= 0.70
     Davidson diagonalization with overlap

---- Real-time Memory Report at c_bands before calling an iterative solver
           488 MiB given to the printing process from OS
             0 MiB allocation reported by mallinfo(arena+hblkhd)
         10907 MiB available memory on the node where the printing process lives
------------------
     ethr =  7.73E-11,  avg # of iterations =  4.9

     total cpu time spent up to now is      101.3 secs

     End of self-consistent calculation

          k = 0.1658 0.1695 0.1598 (  8491 PWs)   bands (ev):

   -13.3797 -13.3709 -13.3677 -13.3657 -13.3655 -13.3629 -13.3586 -13.3554
   -13.3521 -13.3477 -13.3472 -13.3451 -13.3340 -13.3288 -13.3145 -13.3108
   -13.3056 -13.3032 -13.2933 -13.2863  -5.7403  -5.4479  -4.6917  -4.2853
     0.6943   1.5742   2.4814   2.7720   3.2357   4.5304   4.6150   4.8971
     5.1295   5.3522   5.8061   6.1764   6.3937   6.7321   7.2619   7.4558

     occupation numbers 
     1.0000   1.0000   1.0000   1.0000   1.0000   1.0000   1.0000   1.0000
     1.0000   1.0000   1.0000   1.0000   1.0000   1.0000   1.0000   1.0000
     1.0000   1.0000   1.0000   1.0000   1.0000   1.0000   1.0000   1.0000
     1.0000   1.0000   1.0000   1.0000   1.0000   1.0000   1.0000   1.0000
     1.0000   1.0000   1.0000   1.0000   1.0000   1.0000   1.0000   1.0000

          k = 0.1658 0.1695 0.4793 (  8495 PWs)   bands (ev):

   -13.3783 -13.3699 -13.3674 -13.3670 -13.3646 -13.3645 -13.3596 -13.3567
   -13.3514 -13.3453 -13.3450 -13.3441 -13.3334 -13.3294 -13.3145 -13.3102
   -13.3066 -13.3039 -13.2928 -13.2868  -5.6125  -5.3305  -4.6801  -4.3150
     0.3511   1.2869   1.8845   2.4285   3.3406   4.5398   4.7036   5.3227
     5.5215   5.7911   5.8630   6.2353   6.7314   7.0416   7.2336   7.4835

     occupation numbers 
     1.0000   1.0000   1.0000   1.0000   1.0000   1.0000   1.0000   1.0000
     1.0000   1.0000   1.0000   1.0000   1.0000   1.0000   1.0000   1.0000
     1.0000   1.0000   1.0000   1.0000   1.0000   1.0000   1.0000   1.0000
     1.0000   1.0000   1.0000   1.0000   1.0000   1.0000   1.0000   1.0000
     1.0000   1.0000   1.0000   1.0000   1.0000   1.0000   1.0000   1.0000

          k = 0.1658 0.1695 0.7989 (  8507 PWs)   bands (ev):

   -13.3759 -13.3696 -13.3689 -13.3675 -13.3656 -13.3637 -13.3607 -13.3587
   -13.3499 -13.3458 -13.3408 -13.3398 -13.3331 -13.3304 -13.3140 -13.3096
   -13.3078 -13.3051 -13.2917 -13.2878  -5.3821  -5.1203  -4.7047  -4.4038
     0.0046   0.7534   1.3753   1.9121   3.6665   4.7882   4.9403   5.5906
     5.8401   5.9758   6.2286   6.3405   6.9040   7.2793   7.3806   7.7713

     occupation numbers 
     1.0000   1.0000   1.0000   1.0000   1.0000   1.0000   1.0000   1.0000
     1.0000   1.0000   1.0000   1.0000   1.0000   1.0000   1.0000   1.0000
     1.0000   1.0000   1.0000   1.0000   1.0000   1.0000   1.0000   1.0000
     1.0000   1.0000   1.0000   1.0000   1.0000   1.0000   1.0000   1.0000
     1.0000   1.0000   1.0000   1.0000   1.0000   1.0000   1.0000   1.0000

          k = 0.1658 0.1695 1.1184 (  8488 PWs)   bands (ev):

   -13.3733 -13.3712 -13.3693 -13.3690 -13.3645 -13.3637 -13.3611 -13.3604
   -13.3483 -13.3469 -13.3364 -13.3357 -13.3339 -13.3324 -13.3126 -13.3108
   -13.3074 -13.3063 -13.2904 -13.2891  -5.1073  -4.9215  -4.7717  -4.5775
    -0.0730   0.2071   1.2512   1.4617   4.1626   4.6874   5.3721   5.6661
     5.8932   6.0343   6.2464   6.5304   7.1795   7.4325   7.6032   7.7230

     occupation numbers 
     1.0000   1.0000   1.0000   1.0000   1.0000   1.0000   1.0000   1.0000
     1.0000   1.0000   1.0000   1.0000   1.0000   1.0000   1.0000   1.0000
     1.0000   1.0000   1.0000   1.0000   1.0000   1.0000   1.0000   1.0000
     1.0000   1.0000   1.0000   1.0000   1.0000   1.0000   1.0000   1.0000
     1.0000   1.0000   1.0000   1.0000   1.0000   1.0000   1.0000   1.0000

          k = 0.1658 0.5086 0.1598 (  8514 PWs)   bands (ev):

   -13.3739 -13.3692 -13.3679 -13.3653 -13.3634 -13.3628 -13.3619 -13.3585
   -13.3536 -13.3481 -13.3450 -13.3436 -13.3312 -13.3295 -13.3124 -13.3115
   -13.3065 -13.3039 -13.2936 -13.2884  -5.5792  -5.3090  -4.6307  -4.2924
     0.5110   1.2765   2.0638   2.1826   3.3506   4.3962   4.6902   5.0803
     5.3842   5.5453   5.8877   6.2296   6.5392   7.1049   7.3167   7.4314

     occupation numbers 
     1.0000   1.0000   1.0000   1.0000   1.0000   1.0000   1.0000   1.0000
     1.0000   1.0000   1.0000   1.0000   1.0000   1.0000   1.0000   1.0000
     1.0000   1.0000   1.0000   1.0000   1.0000   1.0000   1.0000   1.0000
     1.0000   1.0000   1.0000   1.0000   1.0000   1.0000   1.0000   1.0000
     1.0000   1.0000   1.0000   1.0000   1.0000   1.0000   1.0000   1.0000

          k = 0.1658 0.5086 0.4793 (  8519 PWs)   bands (ev):

   -13.3745 -13.3700 -13.3689 -13.3650 -13.3637 -13.3626 -13.3614 -13.3600
   -13.3528 -13.3482 -13.3424 -13.3409 -13.3318 -13.3290 -13.3124 -13.3109
   -13.3071 -13.3048 -13.2931 -13.2887  -5.4573  -5.1982  -4.6168  -4.3110
     0.3477   1.2126   1.7269   2.0479   3.4998   3.9508   4.1956   5.1571
     5.3056   5.8862   6.1162   6.2762   6.9985   7.0803   7.3425   7.4875

     occupation numbers 
     1.0000   1.0000   1.0000   1.0000   1.0000   1.0000   1.0000   1.0000
     1.0000   1.0000   1.0000   1.0000   1.0000   1.0000   1.0000   1.0000
     1.0000   1.0000   1.0000   1.0000   1.0000   1.0000   1.0000   1.0000
     1.0000   1.0000   1.0000   1.0000   1.0000   1.0000   1.0000   1.0000
     1.0000   1.0000   1.0000   1.0000   1.0000   1.0000   1.0000   1.0000

          k = 0.1658 0.5086 0.7989 (  8518 PWs)   bands (ev):

   -13.3754 -13.3728 -13.3688 -13.3664 -13.3638 -13.3625 -13.3613 -13.3602
   -13.3515 -13.3485 -13.3387 -13.3369 -13.3321 -13.3291 -13.3119 -13.3100
   -13.3080 -13.3062 -13.2921 -13.2892  -5.2401  -5.0023  -4.6329  -4.3771
     0.1533   0.8686   1.4257   1.8130   3.7668   3.9024   4.1388   5.0306
     5.1759   5.9300   5.9409   6.5296   6.7240   6.9840   7.2856   7.5163

     occupation numbers 
     1.0000   1.0000   1.0000   1.0000   1.0000   1.0000   1.0000   1.0000
     1.0000   1.0000   1.0000   1.0000   1.0000   1.0000   1.0000   1.0000
     1.0000   1.0000   1.0000   1.0000   1.0000   1.0000   1.0000   1.0000
     1.0000   1.0000   1.0000   1.0000   1.0000   1.0000   1.0000   1.0000
     1.0000   1.0000   1.0000   1.0000   1.0000   1.0000   1.0000   1.0000

          k = 0.1658 0.5086 1.1184 (  8501 PWs)   bands (ev):

   -13.3760 -13.3751 -13.3687 -13.3680 -13.3638 -13.3628 -13.3606 -13.3599
   -13.3501 -13.3491 -13.3353 -13.3338 -13.3322 -13.3303 -13.3107 -13.3095
   -13.3086 -13.3075 -13.2911 -13.2900  -4.9864  -4.8200  -4.6879  -4.5194
     0.1330   0.3967   1.3846   1.5401   4.1018   4.1673   4.4146   4.7682
     5.0659   5.3913   5.9620   6.2781   6.6459   6.8913   7.2007   7.4099

     occupation numbers 
     1.0000   1.0000   1.0000   1.0000   1.0000   1.0000   1.0000   1.0000
     1.0000   1.0000   1.0000   1.0000   1.0000   1.0000   1.0000   1.0000
     1.0000   1.0000   1.0000   1.0000   1.0000   1.0000   1.0000   1.0000
     1.0000   1.0000   1.0000   1.0000   1.0000   1.0000   1.0000   1.0000
     1.0000   1.0000   1.0000   1.0000   1.0000   1.0000   1.0000   1.0000

          k = 0.1658 0.8476 0.1598 (  8533 PWs)   bands (ev):

   -13.3732 -13.3713 -13.3693 -13.3679 -13.3611 -13.3599 -13.3592 -13.3557
   -13.3524 -13.3503 -13.3435 -13.3383 -13.3319 -13.3275 -13.3157 -13.3139
   -13.3061 -13.3006 -13.2937 -13.2915  -5.2842  -5.0662  -4.5701  -4.3672
     0.2738   0.9196   1.2349   1.6164   3.6999   4.5659   4.9032   5.3361
     5.6333   5.7641   6.0807   6.2406   6.7129   7.0850   7.2081   7.6357

     occupation numbers 
     1.0000   1.0000   1.0000   1.0000   1.0000   1.0000   1.0000   1.0000
     1.0000   1.0000   1.0000   1.0000   1.0000   1.0000   1.0000   1.0000
     1.0000   1.0000   1.0000   1.0000   1.0000   1.0000   1.0000   1.0000
     1.0000   1.0000   1.0000   1.0000   1.0000   1.0000   1.0000   1.0000
     1.0000   1.0000   1.0000   1.0000   1.0000   1.0000   1.0000   1.0000

          k = 0.1658 0.8476 0.4793 (  8523 PWs)   bands (ev):

   -13.3763 -13.3738 -13.3713 -13.3694 -13.3611 -13.3583 -13.3580 -13.3554
   -13.3512 -13.3500 -13.3416 -13.3367 -13.3319 -13.3272 -13.3153 -13.3137
   -13.3060 -13.3014 -13.2933 -13.2914  -5.1766  -4.9704  -4.5477  -4.3608
     0.3269   1.0346   1.2950   1.5351   3.7354   3.8268   4.1638   4.8903
     5.2672   5.8510   5.9482   6.4512   6.5391   6.8154   7.1157   7.3657

     occupation numbers 
     1.0000   1.0000   1.0000   1.0000   1.0000   1.0000   1.0000   1.0000
     1.0000   1.0000   1.0000   1.0000   1.0000   1.0000   1.0000   1.0000
     1.0000   1.0000   1.0000   1.0000   1.0000   1.0000   1.0000   1.0000
     1.0000   1.0000   1.0000   1.0000   1.0000   1.0000   1.0000   1.0000
     1.0000   1.0000   1.0000   1.0000   1.0000   1.0000   1.0000   1.0000

          k = 0.1658 0.8476 0.7989 (  8515 PWs)   bands (ev):

   -13.3799 -13.3778 -13.3737 -13.3723 -13.3602 -13.3571 -13.3565 -13.3552
   -13.3500 -13.3495 -13.3386 -13.3348 -13.3310 -13.3273 -13.3145 -13.3133
   -13.3056 -13.3024 -13.2926 -13.2913  -4.9904  -4.8066  -4.5407  -4.3772
     0.4002   1.0108   1.3860   1.5247   3.3068   3.5996   4.1174   4.4288
     4.6999   5.2624   5.6560   5.9613   6.2902   6.5449   6.7543   7.2869

     occupation numbers 
     1.0000   1.0000   1.0000   1.0000   1.0000   1.0000   1.0000   1.0000
     1.0000   1.0000   1.0000   1.0000   1.0000   1.0000   1.0000   1.0000
     1.0000   1.0000   1.0000   1.0000   1.0000   1.0000   1.0000   1.0000
     1.0000   1.0000   1.0000   1.0000   1.0000   1.0000   1.0000   1.0000
     1.0000   1.0000   1.0000   1.0000   1.0000   1.0000   1.0000   1.0000

          k = 0.1658 0.8476 1.1184 (  8499 PWs)   bands (ev):

   -13.3818 -13.3810 -13.3752 -13.3748 -13.3588 -13.3576 -13.3554 -13.3550
   -13.3491 -13.3491 -13.3360 -13.3345 -13.3291 -13.3278 -13.3137 -13.3132
   -13.3047 -13.3035 -13.2919 -13.2915  -4.7845  -4.6609  -4.5670  -4.4528
     0.5110   0.7319   1.5277   1.5679   3.3294   3.6353   3.7876   4.1217
     4.5523   4.9457   5.2783   5.6850   5.8983   6.1939   6.8108   6.9520

     occupation numbers 
     1.0000   1.0000   1.0000   1.0000   1.0000   1.0000   1.0000   1.0000
     1.0000   1.0000   1.0000   1.0000   1.0000   1.0000   1.0000   1.0000
     1.0000   1.0000   1.0000   1.0000   1.0000   1.0000   1.0000   1.0000
     1.0000   1.0000   1.0000   1.0000   1.0000   1.0000   1.0000   1.0000
     1.0000   1.0000   1.0000   1.0000   1.0000   1.0000   1.0000   1.0000

          k = 0.1658 1.1867 0.1598 (  8542 PWs)   bands (ev):

   -13.3754 -13.3740 -13.3723 -13.3708 -13.3578 -13.3572 -13.3566 -13.3547
   -13.3473 -13.3460 -13.3441 -13.3387 -13.3297 -13.3243 -13.3216 -13.3198
   -13.3006 -13.2972 -13.2953 -13.2945  -4.9177  -4.7966  -4.6091  -4.5796
     0.2303   0.5581   0.8243   1.0936   4.2319   4.7370   5.1438   5.5411
     5.7292   5.7502   6.1585   6.4023   6.8724   6.9632   7.0984   7.2417

     occupation numbers 
     1.0000   1.0000   1.0000   1.0000   1.0000   1.0000   1.0000   1.0000
     1.0000   1.0000   1.0000   1.0000   1.0000   1.0000   1.0000   1.0000
     1.0000   1.0000   1.0000   1.0000   1.0000   1.0000   1.0000   1.0000
     1.0000   1.0000   1.0000   1.0000   1.0000   1.0000   1.0000   1.0000
     1.0000   1.0000   1.0000   1.0000   1.0000   1.0000   1.0000   1.0000

          k = 0.1658 1.1867 0.4793 (  8522 PWs)   bands (ev):

   -13.3787 -13.3774 -13.3745 -13.3734 -13.3577 -13.3566 -13.3546 -13.3535
   -13.3468 -13.3456 -13.3424 -13.3382 -13.3290 -13.3254 -13.3196 -13.3188
   -13.3007 -13.2981 -13.2945 -13.2942  -4.8362  -4.7254  -4.5668  -4.5355
     0.3961   0.7191   0.9720   1.1608   4.0334   4.1903   4.4428   4.7694
     5.0211   5.4569   5.9263   6.0996   6.2550   6.5145   6.9832   7.2966

     occupation numbers 
     1.0000   1.0000   1.0000   1.0000   1.0000   1.0000   1.0000   1.0000
     1.0000   1.0000   1.0000   1.0000   1.0000   1.0000   1.0000   1.0000
     1.0000   1.0000   1.0000   1.0000   1.0000   1.0000   1.0000   1.0000
     1.0000   1.0000   1.0000   1.0000   1.0000   1.0000   1.0000   1.0000
     1.0000   1.0000   1.0000   1.0000   1.0000   1.0000   1.0000   1.0000

          k = 0.1658 1.1867 0.7989 (  8515 PWs)   bands (ev):

   -13.3830 -13.3820 -13.3777 -13.3770 -13.3572 -13.3561 -13.3526 -13.3521
   -13.3460 -13.3450 -13.3403 -13.3376 -13.3277 -13.3258 -13.3177 -13.3174
   -13.3006 -13.2989 -13.2938 -13.2937  -4.7046  -4.6133  -4.5146  -4.4784
     0.6817   0.9825   1.2016   1.2669   3.3163   3.7544   3.8467   4.2001
     4.5043   4.8927   5.2121   5.6465   5.7861   6.0110   6.7759   6.9391

     occupation numbers 
     1.0000   1.0000   1.0000   1.0000   1.0000   1.0000   1.0000   1.0000
     1.0000   1.0000   1.0000   1.0000   1.0000   1.0000   1.0000   1.0000
     1.0000   1.0000   1.0000   1.0000   1.0000   1.0000   1.0000   1.0000
     1.0000   1.0000   1.0000   1.0000   1.0000   1.0000   1.0000   1.0000
     1.0000   1.0000   1.0000   1.0000   1.0000   1.0000   1.0000   1.0000

          k = 0.1658 1.1867 1.1184 (  8499 PWs)   bands (ev):

   -13.3857 -13.3854 -13.3799 -13.3797 -13.3567 -13.3562 -13.3515 -13.3513
   -13.3452 -13.3448 -13.3387 -13.3377 -13.3263 -13.3257 -13.3166 -13.3165
   -13.3001 -13.2995 -13.2935 -13.2934  -4.5788  -4.5248  -4.4901  -4.4561
     0.9646   1.1012   1.3873   1.4413   3.0235   3.2436   3.5394   3.7234
     4.2997   4.3556   4.7993   5.1435   5.7219   5.9282   6.6213   6.6775

     occupation numbers 
     1.0000   1.0000   1.0000   1.0000   1.0000   1.0000   1.0000   1.0000
     1.0000   1.0000   1.0000   1.0000   1.0000   1.0000   1.0000   1.0000
     1.0000   1.0000   1.0000   1.0000   1.0000   1.0000   1.0000   1.0000
[...]

   -13.7527 -13.7527 -13.7492 -13.7492 -13.7420 -13.7420 -13.7401 -13.7401
   -13.7297 -13.7297 -13.7160 -13.7160 -13.7105 -13.7105 -13.6915 -13.6915
   -13.6893 -13.6893 -13.6745 -13.6745  -5.2393  -5.2393  -4.9188  -4.9188
     0.0139   0.0139   1.0733   1.0733   3.9548   3.9548   4.3542   4.3542
     5.0573   5.0573   5.6017   5.6017   6.2766   6.2766   6.8308   6.8308

     occupation numbers 
     1.0000   1.0000   1.0000   1.0000   1.0000   1.0000   1.0000   1.0000
     1.0000   1.0000   1.0000   1.0000   1.0000   1.0000   1.0000   1.0000
     1.0000   1.0000   1.0000   1.0000   1.0000   1.0000   1.0000   1.0000
     1.0000   1.0000   1.0000   1.0000   1.0000   1.0000   1.0000   1.0000
     1.0000   1.0000   1.0000   1.0000   1.0000   1.0000   1.0000   1.0000

          k =-0.4922 0.8518 0.1560 (  8842 PWs)   bands (ev):

   -13.7518 -13.7518 -13.7471 -13.7471 -13.7395 -13.7395 -13.7376 -13.7376
   -13.7306 -13.7306 -13.7212 -13.7212 -13.7103 -13.7103 -13.6968 -13.6968
   -13.6843 -13.6843 -13.6754 -13.6754  -5.4481  -5.4481  -4.7649  -4.7649
     0.2593   0.2593   1.1116   1.1116   4.0612   4.0612   4.5985   4.5985
     5.4641   5.4641   5.6299   5.6299   6.1713   6.1713   6.9902   6.9902

     occupation numbers 
     1.0000   1.0000   1.0000   1.0000   1.0000   1.0000   1.0000   1.0000
     1.0000   1.0000   1.0000   1.0000   1.0000   1.0000   1.0000   1.0000
     1.0000   1.0000   1.0000   1.0000   1.0000   1.0000   1.0000   1.0000
     1.0000   1.0000   1.0000   1.0000   1.0000   1.0000   1.0000   1.0000
     1.0000   1.0000   1.0000   1.0000   1.0000   1.0000   1.0000   1.0000

          k =-0.4922 0.8518 0.4680 (  8844 PWs)   bands (ev):

   -13.7535 -13.7535 -13.7488 -13.7488 -13.7396 -13.7396 -13.7367 -13.7367
   -13.7301 -13.7301 -13.7202 -13.7202 -13.7095 -13.7095 -13.6965 -13.6965
   -13.6846 -13.6846 -13.6753 -13.6753  -5.3584  -5.3584  -4.7582  -4.7582
     0.3152   0.3152   1.1084   1.1084   3.6142   3.6142   4.4001   4.4001
     4.8770   4.8770   5.8831   5.8831   6.0961   6.0961   6.8848   6.8848

     occupation numbers 
     1.0000   1.0000   1.0000   1.0000   1.0000   1.0000   1.0000   1.0000
     1.0000   1.0000   1.0000   1.0000   1.0000   1.0000   1.0000   1.0000
     1.0000   1.0000   1.0000   1.0000   1.0000   1.0000   1.0000   1.0000
     1.0000   1.0000   1.0000   1.0000   1.0000   1.0000   1.0000   1.0000
     1.0000   1.0000   1.0000   1.0000   1.0000   1.0000   1.0000   1.0000

          k =-0.4922 0.8518 0.7800 (  8846 PWs)   bands (ev):

   -13.7559 -13.7559 -13.7512 -13.7512 -13.7394 -13.7394 -13.7361 -13.7361
   -13.7294 -13.7294 -13.7189 -13.7189 -13.7080 -13.7080 -13.6960 -13.6960
   -13.6849 -13.6849 -13.6751 -13.6751  -5.2057  -5.2057  -4.7702  -4.7702
     0.3499   0.3499   1.1163   1.1163   3.2662   3.2662   4.0689   4.0689
     4.6869   4.6869   5.3592   5.3592   5.9353   5.9353   6.7243   6.7243

     occupation numbers 
     1.0000   1.0000   1.0000   1.0000   1.0000   1.0000   1.0000   1.0000
     1.0000   1.0000   1.0000   1.0000   1.0000   1.0000   1.0000   1.0000
     1.0000   1.0000   1.0000   1.0000   1.0000   1.0000   1.0000   1.0000
     1.0000   1.0000   1.0000   1.0000   1.0000   1.0000   1.0000   1.0000
     1.0000   1.0000   1.0000   1.0000   1.0000   1.0000   1.0000   1.0000

          k =-0.4922 0.8518 1.0919 (  8840 PWs)   bands (ev):

   -13.7575 -13.7575 -13.7529 -13.7529 -13.7392 -13.7392 -13.7358 -13.7358
   -13.7290 -13.7290 -13.7181 -13.7181 -13.7068 -13.7068 -13.6956 -13.6956
   -13.6851 -13.6851 -13.6749 -13.6749  -5.0510  -5.0510  -4.8223  -4.8223
     0.3271   0.3271   1.1446   1.1446   3.2787   3.2787   3.6339   3.6339
     4.6850   4.6850   4.9948   4.9948   5.8835   5.8835   6.3862   6.3862

     occupation numbers 
     1.0000   1.0000   1.0000   1.0000   1.0000   1.0000   1.0000   1.0000
     1.0000   1.0000   1.0000   1.0000   1.0000   1.0000   1.0000   1.0000
     1.0000   1.0000   1.0000   1.0000   1.0000   1.0000   1.0000   1.0000
     1.0000   1.0000   1.0000   1.0000   1.0000   1.0000   1.0000   1.0000
     1.0000   1.0000   1.0000   1.0000   1.0000   1.0000   1.0000   1.0000

          k =-0.4922 1.1925 0.1560 (  8852 PWs)   bands (ev):

   -13.7530 -13.7530 -13.7513 -13.7513 -13.7359 -13.7359 -13.7352 -13.7352
   -13.7272 -13.7272 -13.7230 -13.7230 -13.7070 -13.7070 -13.7024 -13.7024
   -13.6802 -13.6802 -13.6769 -13.6769  -5.1317  -5.1317  -4.8766  -4.8766
     0.2125   0.2125   0.5135   0.5135   4.5262   4.5262   4.8730   4.8730
     5.3650   5.3650   5.6017   5.6017   6.2913   6.2913   6.6424   6.6424

     occupation numbers 
     1.0000   1.0000   1.0000   1.0000   1.0000   1.0000   1.0000   1.0000
     1.0000   1.0000   1.0000   1.0000   1.0000   1.0000   1.0000   1.0000
     1.0000   1.0000   1.0000   1.0000   1.0000   1.0000   1.0000   1.0000
     1.0000   1.0000   1.0000   1.0000   1.0000   1.0000   1.0000   1.0000
     1.0000   1.0000   1.0000   1.0000   1.0000   1.0000   1.0000   1.0000

          k =-0.4922 1.1925 0.4680 (  8850 PWs)   bands (ev):

   -13.7551 -13.7551 -13.7534 -13.7534 -13.7359 -13.7359 -13.7348 -13.7348
   -13.7265 -13.7265 -13.7225 -13.7225 -13.7060 -13.7060 -13.7016 -13.7016
   -13.6803 -13.6803 -13.6769 -13.6769  -5.0663  -5.0663  -4.8428  -4.8428
     0.3460   0.3460   0.6204   0.6204   3.9001   3.9001   4.4210   4.4210
     4.9507   4.9507   5.3925   5.3925   6.0498   6.0498   6.4832   6.4832

     occupation numbers 
     1.0000   1.0000   1.0000   1.0000   1.0000   1.0000   1.0000   1.0000
     1.0000   1.0000   1.0000   1.0000   1.0000   1.0000   1.0000   1.0000
     1.0000   1.0000   1.0000   1.0000   1.0000   1.0000   1.0000   1.0000
     1.0000   1.0000   1.0000   1.0000   1.0000   1.0000   1.0000   1.0000
     1.0000   1.0000   1.0000   1.0000   1.0000   1.0000   1.0000   1.0000

          k =-0.4922 1.1925 0.7800 (  8834 PWs)   bands (ev):

   -13.7580 -13.7580 -13.7563 -13.7563 -13.7360 -13.7360 -13.7345 -13.7345
   -13.7255 -13.7255 -13.7217 -13.7217 -13.7043 -13.7043 -13.7004 -13.7004
   -13.6804 -13.6804 -13.6768 -13.6768  -4.9627  -4.9627  -4.8011  -4.8011
     0.5463   0.5463   0.8045   0.8045   3.3300   3.3300   3.8412   3.8412
     4.3933   4.3933   4.8490   4.8490   5.9384   5.9384   6.3081   6.3081

     occupation numbers 
     1.0000   1.0000   1.0000   1.0000   1.0000   1.0000   1.0000   1.0000
     1.0000   1.0000   1.0000   1.0000   1.0000   1.0000   1.0000   1.0000
     1.0000   1.0000   1.0000   1.0000   1.0000   1.0000   1.0000   1.0000
     1.0000   1.0000   1.0000   1.0000   1.0000   1.0000   1.0000   1.0000
     1.0000   1.0000   1.0000   1.0000   1.0000   1.0000   1.0000   1.0000

          k =-0.4922 1.1925 1.0919 (  8830 PWs)   bands (ev):

   -13.7600 -13.7600 -13.7583 -13.7583 -13.7361 -13.7361 -13.7344 -13.7344
   -13.7248 -13.7248 -13.7212 -13.7212 -13.7031 -13.7031 -13.6995 -13.6995
   -13.6804 -13.6804 -13.6768 -13.6768  -4.8708  -4.8708  -4.7862  -4.7862
     0.6789   0.6789   0.9881   0.9881   3.1277   3.1277   3.3754   3.3754
     4.0288   4.0288   4.3298   4.3298   6.0330   6.0330   6.2182   6.2182

     occupation numbers 
     1.0000   1.0000   1.0000   1.0000   1.0000   1.0000   1.0000   1.0000
     1.0000   1.0000   1.0000   1.0000   1.0000   1.0000   1.0000   1.0000
     1.0000   1.0000   1.0000   1.0000   1.0000   1.0000   1.0000   1.0000
     1.0000   1.0000   1.0000   1.0000   1.0000   1.0000   1.0000   1.0000
     1.0000   1.0000   1.0000   1.0000   1.0000   1.0000   1.0000   1.0000

     highest occupied level (ev):     7.3957

!    total energy              =    -827.74799563 Ry
     estimated scf accuracy    <          7.3E-11 Ry

     The total energy is the sum of the following terms:
     one-electron contribution =    -266.48798199 Ry
     hartree contribution      =     182.42670773 Ry
     xc contribution           =    -308.98356147 Ry
     ewald contribution        =    -434.58338876 Ry
     DFT-D3 Dispersion         =      -0.11977113 Ry

     convergence has been achieved in  12 iterations

     Forces acting on atoms (cartesian axes, Ry/au):

     atom    1 type  2   force =    -0.00004289   -0.00000000   -0.00040522
     atom    2 type  1   force =    -0.00006722    0.00000000   -0.00003378
     atom    3 type  2   force =     0.00004289    0.00000000   -0.00040522
     atom    4 type  1   force =     0.00006722    0.00000000   -0.00003378
     atom    5 type  2   force =    -0.00004289    0.00000000    0.00040522
     atom    6 type  1   force =    -0.00006722    0.00000000    0.00003378
     atom    7 type  2   force =     0.00004289   -0.00000000    0.00040522
     atom    8 type  1   force =     0.00006722    0.00000000    0.00003378
     The non-local contrib.  to forces
     atom    1 type  2   force =    -0.10304694    0.00000000    0.11351216
     atom    2 type  1   force =     0.34580901    0.00000000    0.30340195
     atom    3 type  2   force =     0.10304694    0.00000000    0.11351216
     atom    4 type  1   force =    -0.34580901    0.00000000    0.30340195
     atom    5 type  2   force =    -0.10304694    0.00000000   -0.11351216
     atom    6 type  1   force =     0.34580901    0.00000000   -0.30340195
     atom    7 type  2   force =     0.10304694    0.00000000   -0.11351216
     atom    8 type  1   force =    -0.34580901    0.00000000   -0.30340195
     The ionic contribution  to forces
     atom    1 type  2   force =     1.14654295   -0.00000000   -1.31147747
     atom    2 type  1   force =    -0.60890930   -0.00000000   -0.74629694
     atom    3 type  2   force =    -1.14654295    0.00000000   -1.31147747
     atom    4 type  1   force =     0.60890930    0.00000000   -0.74629694
     atom    5 type  2   force =     1.14654295   -0.00000000    1.31147747
     atom    6 type  1   force =    -0.60890930   -0.00000000    0.74629694
     atom    7 type  2   force =    -1.14654295    0.00000000    1.31147747
     atom    8 type  1   force =     0.60890930    0.00000000    0.74629694
     The local contribution  to forces
     atom    1 type  2   force =    -1.05441487   -0.00000000    1.20845907
     atom    2 type  1   force =     0.26995673   -0.00000000    0.44689782
     atom    3 type  2   force =     1.05441487    0.00000000    1.20845907
     atom    4 type  1   force =    -0.26995673    0.00000000    0.44689782
     atom    5 type  2   force =    -1.05441487   -0.00000000   -1.20845907
     atom    6 type  1   force =     0.26995673   -0.00000000   -0.44689782
     atom    7 type  2   force =     1.05441487    0.00000000   -1.20845907
     atom    8 type  1   force =    -0.26995673    0.00000000   -0.44689782
     The core correction contribution to forces
     atom    1 type  2   force =     0.01155140   -0.00000000   -0.01255895
     atom    2 type  1   force =    -0.00627718   -0.00000000   -0.00500222
     atom    3 type  2   force =    -0.01155140   -0.00000000   -0.01255895
     atom    4 type  1   force =     0.00627718    0.00000000   -0.00500222
     atom    5 type  2   force =     0.01155140    0.00000000    0.01255895
     atom    6 type  1   force =    -0.00627718   -0.00000000    0.00500222
     atom    7 type  2   force =    -0.01155140   -0.00000000    0.01255895
     atom    8 type  1   force =     0.00627718    0.00000000    0.00500222
     The Hubbard contrib.    to forces
     atom    1 type  2   force =     0.00000000    0.00000000    0.00000000
     atom    2 type  1   force =     0.00000000    0.00000000    0.00000000
     atom    3 type  2   force =     0.00000000    0.00000000    0.00000000
     atom    4 type  1   force =     0.00000000    0.00000000    0.00000000
     atom    5 type  2   force =     0.00000000    0.00000000    0.00000000
     atom    6 type  1   force =     0.00000000    0.00000000    0.00000000
     atom    7 type  2   force =     0.00000000    0.00000000    0.00000000
     atom    8 type  1   force =     0.00000000    0.00000000    0.00000000
     The SCF correction term to forces
     atom    1 type  2   force =     0.00000314    0.00000000   -0.00000014
     atom    2 type  1   force =    -0.00001934   -0.00000000   -0.00000557
     atom    3 type  2   force =    -0.00000314    0.00000000   -0.00000014
     atom    4 type  1   force =     0.00001934    0.00000000   -0.00000557
     atom    5 type  2   force =     0.00000314    0.00000000    0.00000014
     atom    6 type  1   force =    -0.00001934   -0.00000000    0.00000557
     atom    7 type  2   force =    -0.00000314   -0.00000000    0.00000014
     atom    8 type  1   force =     0.00001934    0.00000000    0.00000557

     DFT-D3 dispersion contribution to forces:
     atom    1 type  2   force =    -0.00067856   -0.00000000    0.00166011
     atom    2 type  1   force =    -0.00062715    0.00000000    0.00097119
     atom    3 type  2   force =     0.00067856    0.00000000    0.00166011
     atom    4 type  1   force =     0.00062715   -0.00000000    0.00097119
     atom    5 type  2   force =    -0.00067856   -0.00000000   -0.00166011
     atom    6 type  1   force =    -0.00062715    0.00000000   -0.00097119
     atom    7 type  2   force =     0.00067856    0.00000000   -0.00166011
     atom    8 type  1   force =     0.00062715   -0.00000000   -0.00097119

     Total force =     0.000829     Total SCF correction =     0.000041

     DFT-D3 dispersion Force =     0.004268


     Computing stress (Cartesian axis) and pressure

          total   stress  (Ry/bohr**3)                   (kbar)     P=       -0.09
   0.00000184   0.00000000   0.00000000            0.27        0.00        0.00
   0.00000000  -0.00000279   0.00000000            0.00       -0.41        0.00
   0.00000000   0.00000000  -0.00000083            0.00        0.00       -0.12

     kinetic stress (kbar)   7250.59      0.00      0.00
                                0.00   7214.38      0.00
                                0.00      0.00   7246.07

     local   stress (kbar)  -1247.35      0.00      0.00
                                0.00  -1435.11      0.00
                                0.00      0.00   1724.99

     nonloc. stress (kbar)   5642.04      0.00      0.00
                                0.00   5614.50      0.00
                                0.00      0.00   5616.88

     hartree stress (kbar)   6428.63      0.00     -0.00
                                0.00   6499.05      0.00
                               -0.00      0.00   5191.43

     exc-cor stress (kbar)  17229.10      0.00     -0.00
                                0.00  17228.07     -0.00
                               -0.00     -0.00  17227.39

     corecor stress (kbar) -21415.70     -0.00      0.00
                               -0.00 -21413.61      0.00
                                0.00      0.00 -21414.07

     ewald   stress (kbar) -13879.00      0.00     -0.00
                                0.00 -13699.07      0.00
                               -0.00      0.00 -15585.90

     hubbard stress (kbar)      0.00      0.00      0.00
                                0.00      0.00      0.00
                                0.00      0.00      0.00

     DFT-D   stress (kbar)     -8.04     -0.00      0.00
                               -0.00     -8.62     -0.00
                                0.00     -0.00     -6.91

     XDM     stress (kbar)      0.00      0.00      0.00
                                0.00      0.00      0.00
                                0.00      0.00      0.00

     dft-nl  stress (kbar)      0.00      0.00      0.00
                                0.00      0.00      0.00
                                0.00      0.00      0.00

     TS-vdW  stress (kbar)      0.00      0.00      0.00
                                0.00      0.00      0.00
                                0.00      0.00      0.00

     MDB     stress (kbar)      0.00      0.00      0.00
                                0.00      0.00      0.00
                                0.00      0.00      0.00

     3D-RISM stress (kbar)      0.00      0.00      0.00
                                0.00      0.00      0.00
                                0.00      0.00      0.00


     Writing all to output data dir ./tmp/SnSe_pnma.save/ :
     XML data file, charge density, pseudopotentials, collected wavefunctions
 
     init_run     :      5.02s CPU      5.67s WALL (       2 calls)
     electrons    :    963.83s CPU   1036.47s WALL (      24 calls)
     update_pot   :      4.23s CPU      4.76s WALL (      22 calls)
     forces       :     23.67s CPU     27.33s WALL (      24 calls)
     force_dftd3  :      1.23s CPU      1.30s WALL (      24 calls)
     stress       :    226.40s CPU    245.60s WALL (      24 calls)
     stres_dftd3  :      1.38s CPU      1.45s WALL (      24 calls)

     Called by init_run:
     wfcinit      :      3.23s CPU      3.34s WALL (       2 calls)
     wfcinit:atom :      0.05s CPU      0.05s WALL (      22 calls)
     wfcinit:wfcr :      2.83s CPU      2.88s WALL (      22 calls)
     potinit      :      0.44s CPU      0.51s WALL (       2 calls)
     hinit0       :      0.56s CPU      0.61s WALL (       2 calls)

     Called by electrons:
     c_bands      :    731.11s CPU    753.70s WALL (     192 calls)
     sum_band     :    162.01s CPU    188.34s WALL (     192 calls)
     v_of_rho     :     26.34s CPU     26.71s WALL (     194 calls)
     v_h          :      2.00s CPU      2.03s WALL (     194 calls)
     v_xc         :     30.28s CPU     30.71s WALL (     242 calls)
     newd         :     47.41s CPU     73.20s WALL (     194 calls)
     mix_rho      :      2.36s CPU      2.39s WALL (     192 calls)
     energy_dftd3 :      1.07s CPU      1.18s WALL (      24 calls)

     Called by c_bands:
     init_us_2    :     21.07s CPU     21.33s WALL (    4774 calls)
     cegterg      :    655.35s CPU    672.27s WALL (    2112 calls)

     Called by sum_band:
     sum_band:wei :      0.04s CPU      0.08s WALL (     192 calls)
     sum_band:loo :    102.20s CPU    103.46s WALL (     192 calls)
     sum_band:buf :      1.22s CPU      1.25s WALL (    2112 calls)
     sum_band:ini :      8.79s CPU      8.86s WALL (    2112 calls)
     sum_band:cal :     12.22s CPU     12.40s WALL (    2112 calls)
     sum_band:bec :      0.14s CPU      0.14s WALL (    2112 calls)
     addusdens    :     51.49s CPU     75.75s WALL (     192 calls)
                                        0.00s GPU  (     192 calls)
     addusd:skk   :      0.24s CPU      0.25s WALL (     384 calls)
                                        0.00s GPU  (     384 calls)

     Called by *egterg:
     cdiaghg      :     17.90s CPU     18.16s WALL (   10367 calls)
     cegterg:over :     35.03s CPU     35.98s WALL (    8739 calls)
     cegterg:upda :     20.74s CPU     21.02s WALL (    8739 calls)
     cegterg:last :     47.56s CPU     48.13s WALL (    5795 calls)
     h_psi        :    470.88s CPU    484.44s WALL (   10873 calls)
     s_psi        :     47.04s CPU     47.56s WALL (   10873 calls)
     g_psi        :      1.99s CPU      2.00s WALL (    8739 calls)

     Called by h_psi:
     h_psi:calbec :     43.32s CPU     44.54s WALL (   10873 calls)
     vloc_psi     :    376.30s CPU    388.02s WALL (   10873 calls)
     add_vuspsi   :     47.55s CPU     48.08s WALL (   10873 calls)

     General routines
     calbec       :     64.30s CPU     65.99s WALL (   14305 calls)
     fft          :     15.69s CPU     16.05s WALL (    3118 calls)
     ffts         :      0.34s CPU      0.35s WALL (     386 calls)
     fftw         :    258.25s CPU    268.14s WALL (  636524 calls)
     interpolate  :      1.37s CPU      1.39s WALL (     194 calls)
 
     Parallel routines
 
     PWSCF        :  20m29.55s CPU  22m11.42s WALL

 
   This run was terminated on:  12:59:40  19May2026            

=------------------------------------------------------------------------------=
   JOB DONE.
=------------------------------------------------------------------------------=
