
     Program PWSCF v.7.3.1 starts on 19May2026 at 13:55:49 

     This program is part of the open-source Quantum ESPRESSO suite
     for quantum simulation of materials; please cite
         "P. Giannozzi et al., J. Phys.:Condens. Matter 21 395502 (2009);
         "P. Giannozzi et al., J. Phys.:Condens. Matter 29 465901 (2017);
         "P. Giannozzi et al., J. Chem. Phys. 152 154105 (2020);
          URL http://www.quantum-espresso.org", 
     in publications or presentations arising from this work. More details at
     http://www.quantum-espresso.org/quote

     Parallel version (MPI & OpenMP), running on       6 processor cores
     Number of MPI processes:                 6
     Threads/MPI process:                     1

     MPI processes distributed on     1 nodes
     11070 MiB available memory on the printing compute node when the environment starts
 
     Waiting for input...
     Reading input from standard input

     Current dimensions of program PWSCF are:
     Max number of different atomic species (ntypx) = 10
     Max number of k-points (npk) =  40000
     Max angular momentum in pseudopotentials (lmaxx) =  4
 
     K-points division:     npool     =       3
     R & G space division:  proc/nbgrp/npool/nimage =       2
     Subspace diagonalization in iterative solution of the eigenvalue problem:
     a serial algorithm will be used

 
     Parallelization info
     --------------------
     sticks:   dense  smooth     PW     G-vecs:    dense   smooth      PW
     Min        3423    1372    393               139805    35391    5421
     Max        3424    1373    394               139806    35392    5422
     Sum        6847    2745    787               279611    70783   10843
 
     Using Slab Decomposition
 


     bravais-lattice index     =            8
     lattice parameter (alat)  =      21.8252  a.u.
     unit-cell volume          =    1481.0643 (a.u.)^3
     number of atoms/cell      =            8
     number of atomic types    =            2
     number of electrons       =        80.00
     number of Kohn-Sham states=           40
     kinetic-energy cutoff     =      50.0000  Ry
     charge density cutoff     =     500.0000  Ry
     scf convergence threshold =      1.0E-08
     mixing beta               =       0.7000
     number of iterations used =            8  plain     mixing
     energy convergence thresh.=      1.0E-04
     force convergence thresh. =      1.0E-03
     press convergence thresh. =      5.0E-01
     Exchange-correlation= SLA  PW   PBE  PBE
                           (   1   4   3   4   0   0   0)
     nstep                     =           50


     celldm(1)=  21.825203  celldm(2)=   0.361179  celldm(3)=   0.394436
     celldm(4)=   0.000000  celldm(5)=   0.000000  celldm(6)=   0.000000

     crystal axes: (cart. coord. in units of alat)
               a(1) = (   1.000000   0.000000   0.000000 )  
               a(2) = (   0.000000   0.361179   0.000000 )  
               a(3) = (   0.000000   0.000000   0.394436 )  

     reciprocal axes: (cart. coord. in units 2 pi/alat)
               b(1) = (  1.000000  0.000000  0.000000 )  
               b(2) = (  0.000000  2.768711  0.000000 )  
               b(3) = (  0.000000  0.000000  2.535265 )  


     PseudoPot. # 1 for Sn read from file:
     ../pseudo/Sn_pbe_v1.uspp.F.UPF
     MD5 check sum: 4cf58ce39ec5d5d420df3dd08604eb00
     Pseudo is Ultrasoft + core correction, Zval = 14.0
     Generated by new atomic code, or converted to UPF format
     Using radial grid of  891 points,  6 beta functions with: 
                l(1) =   0
                l(2) =   0
                l(3) =   1
                l(4) =   1
                l(5) =   2
                l(6) =   2
     Q(r) pseudized with  6 coefficients,  rinner =    1.200   1.200   1.200
                                                       1.200   1.200

     PseudoPot. # 2 for Se read from file:
     ../pseudo/Se_pbe_v1.uspp.F.UPF
     MD5 check sum: 1b3568f3a8ae88f9a2a0ad0698632c85
     Pseudo is Ultrasoft + core correction, Zval =  6.0
     Generated by new atomic code, or converted to UPF format
     Using radial grid of  877 points,  6 beta functions with: 
                l(1) =   0
                l(2) =   0
                l(3) =   1
                l(4) =   1
                l(5) =   2
                l(6) =   2
     Q(r) pseudized with  8 coefficients,  rinner =    1.300   1.300   1.300
                                                       1.300   1.300

     atomic species   valence    mass     pseudopotential
     Sn               14.00   118.71000     Sn( 1.00)
     Se                6.00    78.97100     Se( 1.00)

      8 Sym. Ops., with inversion, found ( 6 have fractional translation)


                                    s                        frac. trans.

      isym =  1     identity                                     

 cryst.   s( 1) = (     1          0          0      )
                  (     0          1          0      )
                  (     0          0          1      )

 cart.    s( 1) = (  1.0000000  0.0000000  0.0000000 )
                  (  0.0000000  1.0000000  0.0000000 )
                  (  0.0000000  0.0000000  1.0000000 )


      isym =  2     180 deg rotation - cart. axis [0,0,1]        

 cryst.   s( 2) = (    -1          0          0      )    f =( -0.5000000 )
                  (     0         -1          0      )       (  0.0000000 )
                  (     0          0          1      )       ( -0.5000000 )

 cart.    s( 2) = ( -1.0000000  0.0000000  0.0000000 )    f =( -0.5000000 )
                  (  0.0000000 -1.0000000  0.0000000 )       (  0.0000000 )
                  (  0.0000000  0.0000000  1.0000000 )       ( -0.1972180 )


      isym =  3     180 deg rotation - cart. axis [0,1,0]        

 cryst.   s( 3) = (    -1          0          0      )    f =(  0.0000000 )
                  (     0          1          0      )       ( -0.5000000 )
                  (     0          0         -1      )       (  0.0000000 )

 cart.    s( 3) = ( -1.0000000  0.0000000  0.0000000 )    f =(  0.0000000 )
                  (  0.0000000  1.0000000  0.0000000 )       ( -0.1805895 )
                  (  0.0000000  0.0000000 -1.0000000 )       (  0.0000000 )


      isym =  4     180 deg rotation - cart. axis [1,0,0]        

 cryst.   s( 4) = (     1          0          0      )    f =( -0.5000000 )
                  (     0         -1          0      )       ( -0.5000000 )
                  (     0          0         -1      )       (  0.5000000 )

 cart.    s( 4) = (  1.0000000  0.0000000  0.0000000 )    f =( -0.5000000 )
                  (  0.0000000 -1.0000000  0.0000000 )       ( -0.1805895 )
                  (  0.0000000  0.0000000 -1.0000000 )       (  0.1972180 )


      isym =  5     inversion                                    

 cryst.   s( 5) = (    -1          0          0      )
                  (     0         -1          0      )
                  (     0          0         -1      )

 cart.    s( 5) = ( -1.0000000  0.0000000  0.0000000 )
                  (  0.0000000 -1.0000000  0.0000000 )
                  (  0.0000000  0.0000000 -1.0000000 )


      isym =  6     inv. 180 deg rotation - cart. axis [0,0,1]   

 cryst.   s( 6) = (     1          0          0      )    f =( -0.5000000 )
                  (     0          1          0      )       (  0.0000000 )
                  (     0          0         -1      )       (  0.5000000 )

 cart.    s( 6) = (  1.0000000  0.0000000  0.0000000 )    f =( -0.5000000 )
                  (  0.0000000  1.0000000  0.0000000 )       (  0.0000000 )
                  (  0.0000000  0.0000000 -1.0000000 )       (  0.1972180 )


      isym =  7     inv. 180 deg rotation - cart. axis [0,1,0]   

 cryst.   s( 7) = (     1          0          0      )    f =(  0.0000000 )
                  (     0         -1          0      )       ( -0.5000000 )
                  (     0          0          1      )       (  0.0000000 )

 cart.    s( 7) = (  1.0000000  0.0000000  0.0000000 )    f =(  0.0000000 )
                  (  0.0000000 -1.0000000  0.0000000 )       ( -0.1805895 )
                  (  0.0000000  0.0000000  1.0000000 )       (  0.0000000 )


      isym =  8     inv. 180 deg rotation - cart. axis [1,0,0]   

 cryst.   s( 8) = (    -1          0          0      )    f =( -0.5000000 )
                  (     0          1          0      )       ( -0.5000000 )
                  (     0          0          1      )       ( -0.5000000 )

 cart.    s( 8) = ( -1.0000000  0.0000000  0.0000000 )    f =( -0.5000000 )
                  (  0.0000000  1.0000000  0.0000000 )       ( -0.1805895 )
                  (  0.0000000  0.0000000  1.0000000 )       ( -0.1972180 )


     point group D_2h (mmm) 
     there are  8 classes
     the character table:

       E     C2    C2'   C2''  i     s_v   s_v'  s_v''
A_g    1.00  1.00  1.00  1.00  1.00  1.00  1.00  1.00
B_1g   1.00  1.00 -1.00 -1.00  1.00  1.00 -1.00 -1.00
B_2g   1.00 -1.00  1.00 -1.00  1.00 -1.00  1.00 -1.00
B_3g   1.00 -1.00 -1.00  1.00  1.00 -1.00 -1.00  1.00
A_u    1.00  1.00  1.00  1.00 -1.00 -1.00 -1.00 -1.00
B_1u   1.00  1.00 -1.00 -1.00 -1.00 -1.00  1.00  1.00
B_2u   1.00 -1.00  1.00 -1.00 -1.00  1.00 -1.00  1.00
B_3u   1.00 -1.00 -1.00  1.00 -1.00  1.00  1.00 -1.00

     the symmetry operations in each class and the name of the first element:

     E        1
          identity                                               
     C2       2
          180 deg rotation - cart. axis [0,0,1]                  
     C2'      4
          180 deg rotation - cart. axis [1,0,0]                  
     C2''     3
          180 deg rotation - cart. axis [0,1,0]                  
     i        5
          inversion                                              
     s_v      6
          inv. 180 deg rotation - cart. axis [0,0,1]             
     s_v'     8
          inv. 180 deg rotation - cart. axis [1,0,0]             
     s_v''    7
          inv. 180 deg rotation - cart. axis [0,1,0]             

   Cartesian axes

     site n.     atom                  positions (alat units)
         1        Se     tau(   1) = (   0.8549563   0.0902947   0.1906105  )
         2        Sn     tau(   2) = (   0.1165395   0.0902947   0.0442901  )
         3        Se     tau(   3) = (   0.6450437   0.2708842   0.3878285  )
         4        Sn     tau(   4) = (   0.3834605   0.2708842   0.2415081  )
         5        Se     tau(   5) = (   0.3549563   0.0902947   0.0066076  )
         6        Sn     tau(   6) = (   0.6165395   0.0902947   0.1529280  )
         7        Se     tau(   7) = (   0.1450437   0.2708842   0.2038256  )
         8        Sn     tau(   8) = (   0.8834605   0.2708842   0.3501460  )

     --------------------------------------------
     DFT-D3 Dispersion Correction (3-body terms):
     --------------------------------------------
       Reference C6 values for interpolation: 

         atom   Coordination number   C6
         Se         0.000           427.35
         Se         0.990           427.57
         Se         1.981           421.05
         Sn         0.000          1255.14
         Sn         0.951          1084.09
         Sn         1.950          1010.83
         Sn         2.926           818.29
         Sn         3.912           672.20

       Values used:

         atom   Coordination number  R0_AB[au]  C6      C8
         Se         3.412            3.332    421.05  29958.36
         Sn         4.106            3.957    672.80  84444.47
         Se         3.412            3.332    421.05  29958.36
         Sn         4.106            3.957    672.80  84444.47
         Se         3.412            3.332    421.05  29958.36
         Sn         4.106            3.957    672.80  84444.47
         Se         3.412            3.332    421.05  29958.36
         Sn         4.106            3.957    672.80  84444.47

         Molecular C6 ( Ry / a.u.^6 ) =     34513.28


   Crystallographic axes

     site n.     atom                  positions (cryst. coord.)
         1        Se     tau(   1) = (  0.8549563  0.2500000  0.4832481  )
         2        Sn     tau(   2) = (  0.1165395  0.2500000  0.1122870  )
         3        Se     tau(   3) = (  0.6450437  0.7500000  0.9832481  )
         4        Sn     tau(   4) = (  0.3834605  0.7500000  0.6122870  )
         5        Se     tau(   5) = (  0.3549563  0.2500000  0.0167519  )
         6        Sn     tau(   6) = (  0.6165395  0.2500000  0.3877130  )
         7        Se     tau(   7) = (  0.1450437  0.7500000  0.5167519  )
         8        Sn     tau(   8) = (  0.8834605  0.7500000  0.8877130  )

     number of k points=    32
                       cart. coord. in units 2pi/alat
        k(    1) = (   0.1666667   0.1730444   0.1584541), wk =   0.0833333
        k(    2) = (   0.1666667   0.1730444   0.4753622), wk =   0.0833333
        k(    3) = (   0.1666667   0.1730444   0.7922703), wk =   0.0833333
        k(    4) = (   0.1666667   0.1730444   1.1091785), wk =   0.0833333
        k(    5) = (   0.1666667   0.5191333   0.1584541), wk =   0.0833333
        k(    6) = (   0.1666667   0.5191333   0.4753622), wk =   0.0833333
        k(    7) = (   0.1666667   0.5191333   0.7922703), wk =   0.0833333
        k(    8) = (   0.1666667   0.5191333   1.1091785), wk =   0.0833333
        k(    9) = (   0.1666667   0.8652221   0.1584541), wk =   0.0833333
        k(   10) = (   0.1666667   0.8652221   0.4753622), wk =   0.0833333
        k(   11) = (   0.1666667   0.8652221   0.7922703), wk =   0.0833333
        k(   12) = (   0.1666667   0.8652221   1.1091785), wk =   0.0833333
        k(   13) = (   0.1666667   1.2113110   0.1584541), wk =   0.0833333
        k(   14) = (   0.1666667   1.2113110   0.4753622), wk =   0.0833333
        k(   15) = (   0.1666667   1.2113110   0.7922703), wk =   0.0833333
        k(   16) = (   0.1666667   1.2113110   1.1091785), wk =   0.0833333
        k(   17) = (  -0.5000000   0.1730444   0.1584541), wk =   0.0416667
        k(   18) = (  -0.5000000   0.1730444   0.4753622), wk =   0.0416667
        k(   19) = (  -0.5000000   0.1730444   0.7922703), wk =   0.0416667
        k(   20) = (  -0.5000000   0.1730444   1.1091785), wk =   0.0416667
        k(   21) = (  -0.5000000   0.5191333   0.1584541), wk =   0.0416667
        k(   22) = (  -0.5000000   0.5191333   0.4753622), wk =   0.0416667
        k(   23) = (  -0.5000000   0.5191333   0.7922703), wk =   0.0416667
        k(   24) = (  -0.5000000   0.5191333   1.1091785), wk =   0.0416667
        k(   25) = (  -0.5000000   0.8652221   0.1584541), wk =   0.0416667
        k(   26) = (  -0.5000000   0.8652221   0.4753622), wk =   0.0416667
        k(   27) = (  -0.5000000   0.8652221   0.7922703), wk =   0.0416667
        k(   28) = (  -0.5000000   0.8652221   1.1091785), wk =   0.0416667
        k(   29) = (  -0.5000000   1.2113110   0.1584541), wk =   0.0416667
        k(   30) = (  -0.5000000   1.2113110   0.4753622), wk =   0.0416667
        k(   31) = (  -0.5000000   1.2113110   0.7922703), wk =   0.0416667
        k(   32) = (  -0.5000000   1.2113110   1.1091785), wk =   0.0416667

                       cryst. coord.
        k(    1) = (   0.1666667   0.0625000   0.0625000), wk =   0.0833333
        k(    2) = (   0.1666667   0.0625000   0.1875000), wk =   0.0833333
        k(    3) = (   0.1666667   0.0625000   0.3125000), wk =   0.0833333
        k(    4) = (   0.1666667   0.0625000   0.4375000), wk =   0.0833333
        k(    5) = (   0.1666667   0.1875000   0.0625000), wk =   0.0833333
        k(    6) = (   0.1666667   0.1875000   0.1875000), wk =   0.0833333
        k(    7) = (   0.1666667   0.1875000   0.3125000), wk =   0.0833333
        k(    8) = (   0.1666667   0.1875000   0.4375000), wk =   0.0833333
        k(    9) = (   0.1666667   0.3125000   0.0625000), wk =   0.0833333
        k(   10) = (   0.1666667   0.3125000   0.1875000), wk =   0.0833333
        k(   11) = (   0.1666667   0.3125000   0.3125000), wk =   0.0833333
        k(   12) = (   0.1666667   0.3125000   0.4375000), wk =   0.0833333
        k(   13) = (   0.1666667   0.4375000   0.0625000), wk =   0.0833333
        k(   14) = (   0.1666667   0.4375000   0.1875000), wk =   0.0833333
        k(   15) = (   0.1666667   0.4375000   0.3125000), wk =   0.0833333
        k(   16) = (   0.1666667   0.4375000   0.4375000), wk =   0.0833333
        k(   17) = (  -0.5000000   0.0625000   0.0625000), wk =   0.0416667
        k(   18) = (  -0.5000000   0.0625000   0.1875000), wk =   0.0416667
        k(   19) = (  -0.5000000   0.0625000   0.3125000), wk =   0.0416667
        k(   20) = (  -0.5000000   0.0625000   0.4375000), wk =   0.0416667
        k(   21) = (  -0.5000000   0.1875000   0.0625000), wk =   0.0416667
        k(   22) = (  -0.5000000   0.1875000   0.1875000), wk =   0.0416667
        k(   23) = (  -0.5000000   0.1875000   0.3125000), wk =   0.0416667
        k(   24) = (  -0.5000000   0.1875000   0.4375000), wk =   0.0416667
        k(   25) = (  -0.5000000   0.3125000   0.0625000), wk =   0.0416667
        k(   26) = (  -0.5000000   0.3125000   0.1875000), wk =   0.0416667
        k(   27) = (  -0.5000000   0.3125000   0.3125000), wk =   0.0416667
        k(   28) = (  -0.5000000   0.3125000   0.4375000), wk =   0.0416667
        k(   29) = (  -0.5000000   0.4375000   0.0625000), wk =   0.0416667
        k(   30) = (  -0.5000000   0.4375000   0.1875000), wk =   0.0416667
        k(   31) = (  -0.5000000   0.4375000   0.3125000), wk =   0.0416667
        k(   32) = (  -0.5000000   0.4375000   0.4375000), wk =   0.0416667

     Dense  grid:   279611 G-vectors     FFT dimensions: ( 160,  60,  64)

     Smooth grid:    70783 G-vectors     FFT dimensions: ( 100,  36,  40)

     Dynamical RAM for                 wfc:       2.70 MB

     Dynamical RAM for     wfc (w. buffer):      32.38 MB

     Dynamical RAM for           str. fact:       4.27 MB

     Dynamical RAM for           local pot:       0.00 MB

     Dynamical RAM for          nlocal pot:       9.71 MB

     Dynamical RAM for                qrad:       7.18 MB

     Dynamical RAM for          rho,v,vnew:      13.43 MB

     Dynamical RAM for               rhoin:       4.48 MB

     Dynamical RAM for            rho*nmix:      34.13 MB

     Dynamical RAM for           G-vectors:       8.27 MB

     Dynamical RAM for          h,s,v(r/c):       0.29 MB

     Dynamical RAM for          <psi|beta>:       0.09 MB

     Dynamical RAM for                 psi:       5.40 MB

     Dynamical RAM for                hpsi:       5.40 MB

     Dynamical RAM for                spsi:       5.40 MB

     Dynamical RAM for      wfcinit/wfcrot:       7.08 MB

     Dynamical RAM for           addusdens:     136.53 MB

     Dynamical RAM for          addusforce:     140.46 MB

     Dynamical RAM for         addusstress:     143.64 MB

     Estimated static dynamical RAM per process >      97.84 MB

     Estimated max dynamical RAM per process >     275.61 MB

     Estimated total dynamical RAM >       1.48 GB

     Initial potential from superposition of free atoms

     starting charge      75.9995, renormalised to      80.0000
     Starting wfcs are   52 randomized atomic wfcs

     total cpu time spent up to now is        3.4 secs

     Self-consistent Calculation

     iteration #  1     ecut=    50.00 Ry     beta= 0.70
     Davidson diagonalization with overlap

---- Real-time Memory Report at c_bands before calling an iterative solver
           332 MiB given to the printing process from OS
             0 MiB allocation reported by mallinfo(arena+hblkhd)
         10317 MiB available memory on the node where the printing process lives
------------------
     ethr =  1.00E-02,  avg # of iterations =  2.0

     total cpu time spent up to now is        8.5 secs

     total energy              =    -826.63204042 Ry
     estimated scf accuracy    <       2.68848004 Ry

     iteration #  2     ecut=    50.00 Ry     beta= 0.70
     Davidson diagonalization with overlap

---- Real-time Memory Report at c_bands before calling an iterative solver
           424 MiB given to the printing process from OS
             0 MiB allocation reported by mallinfo(arena+hblkhd)
          9931 MiB available memory on the node where the printing process lives
------------------
     ethr =  3.36E-03,  avg # of iterations =  3.0

     total cpu time spent up to now is       14.1 secs

     total energy              =    -827.53743902 Ry
     estimated scf accuracy    <       0.99737541 Ry

     iteration #  3     ecut=    50.00 Ry     beta= 0.70
     Davidson diagonalization with overlap

---- Real-time Memory Report at c_bands before calling an iterative solver
           437 MiB given to the printing process from OS
             0 MiB allocation reported by mallinfo(arena+hblkhd)
          9890 MiB available memory on the node where the printing process lives
------------------
     ethr =  1.25E-03,  avg # of iterations =  2.6

     total cpu time spent up to now is       18.9 secs

     total energy              =    -827.73973007 Ry
     estimated scf accuracy    <       0.01052325 Ry

     iteration #  4     ecut=    50.00 Ry     beta= 0.70
     Davidson diagonalization with overlap

---- Real-time Memory Report at c_bands before calling an iterative solver
           457 MiB given to the printing process from OS
             0 MiB allocation reported by mallinfo(arena+hblkhd)
          9760 MiB available memory on the node where the printing process lives
------------------
     ethr =  1.32E-05,  avg # of iterations =  4.9

     total cpu time spent up to now is       25.3 secs

     total energy              =    -827.74639350 Ry
     estimated scf accuracy    <       0.00517848 Ry

     iteration #  5     ecut=    50.00 Ry     beta= 0.70
     Davidson diagonalization with overlap

---- Real-time Memory Report at c_bands before calling an iterative solver
           462 MiB given to the printing process from OS
             0 MiB allocation reported by mallinfo(arena+hblkhd)
         10107 MiB available memory on the node where the printing process lives
------------------
     ethr =  6.47E-06,  avg # of iterations =  3.0

     total cpu time spent up to now is       30.1 secs

     total energy              =    -827.74798691 Ry
     estimated scf accuracy    <       0.00060083 Ry

     iteration #  6     ecut=    50.00 Ry     beta= 0.70
     Davidson diagonalization with overlap

---- Real-time Memory Report at c_bands before calling an iterative solver
           463 MiB given to the printing process from OS
             0 MiB allocation reported by mallinfo(arena+hblkhd)
         10101 MiB available memory on the node where the printing process lives
------------------
     ethr =  7.51E-07,  avg # of iterations =  2.3

     total cpu time spent up to now is       34.7 secs

     total energy              =    -827.74793977 Ry
     estimated scf accuracy    <       0.00033650 Ry

     iteration #  7     ecut=    50.00 Ry     beta= 0.70
     Davidson diagonalization with overlap

---- Real-time Memory Report at c_bands before calling an iterative solver
           464 MiB given to the printing process from OS
             0 MiB allocation reported by mallinfo(arena+hblkhd)
         10097 MiB available memory on the node where the printing process lives
------------------
     ethr =  4.21E-07,  avg # of iterations =  2.0

     total cpu time spent up to now is       39.3 secs

     total energy              =    -827.74797882 Ry
     estimated scf accuracy    <       0.00001587 Ry

     iteration #  8     ecut=    50.00 Ry     beta= 0.70
     Davidson diagonalization with overlap

---- Real-time Memory Report at c_bands before calling an iterative solver
           466 MiB given to the printing process from OS
             0 MiB allocation reported by mallinfo(arena+hblkhd)
         10245 MiB available memory on the node where the printing process lives
------------------
     ethr =  1.98E-08,  avg # of iterations =  5.3

     total cpu time spent up to now is       45.5 secs

     total energy              =    -827.74799284 Ry
     estimated scf accuracy    <       0.00001616 Ry

     iteration #  9     ecut=    50.00 Ry     beta= 0.70
     Davidson diagonalization with overlap

---- Real-time Memory Report at c_bands before calling an iterative solver
           468 MiB given to the printing process from OS
             0 MiB allocation reported by mallinfo(arena+hblkhd)
         10317 MiB available memory on the node where the printing process lives
------------------
     ethr =  1.98E-08,  avg # of iterations =  2.0

     total cpu time spent up to now is       49.9 secs

     total energy              =    -827.74799481 Ry
     estimated scf accuracy    <       0.00000081 Ry

     iteration # 10     ecut=    50.00 Ry     beta= 0.70
     Davidson diagonalization with overlap

---- Real-time Memory Report at c_bands before calling an iterative solver
           469 MiB given to the printing process from OS
             0 MiB allocation reported by mallinfo(arena+hblkhd)
         10355 MiB available memory on the node where the printing process lives
------------------
     ethr =  1.02E-09,  avg # of iterations =  4.9

     total cpu time spent up to now is       56.0 secs

     total energy              =    -827.74799535 Ry
     estimated scf accuracy    <       0.00000003 Ry

     iteration # 11     ecut=    50.00 Ry     beta= 0.70
     Davidson diagonalization with overlap

---- Real-time Memory Report at c_bands before calling an iterative solver
           470 MiB given to the printing process from OS
             0 MiB allocation reported by mallinfo(arena+hblkhd)
         10312 MiB available memory on the node where the printing process lives
------------------
     ethr =  4.08E-11,  avg # of iterations =  5.3

     total cpu time spent up to now is       63.7 secs

     total energy              =    -827.74799536 Ry
     estimated scf accuracy    <       0.00000002 Ry

     iteration # 12     ecut=    50.00 Ry     beta= 0.70
     Davidson diagonalization with overlap

---- Real-time Memory Report at c_bands before calling an iterative solver
           471 MiB given to the printing process from OS
             0 MiB allocation reported by mallinfo(arena+hblkhd)
         10302 MiB available memory on the node where the printing process lives
------------------
     ethr =  2.30E-11,  avg # of iterations =  3.0

     total cpu time spent up to now is       68.6 secs

     End of self-consistent calculation

          k = 0.1667 0.1730 0.1585 (  8828 PWs)   bands (ev):

   -13.7601 -13.7512 -13.7474 -13.7443 -13.7436 -13.7415 -13.7376 -13.7361
   -13.7299 -13.7257 -13.7251 -13.7239 -13.7139 -13.7111 -13.6939 -13.6913
   -13.6869 -13.6853 -13.6770 -13.6717  -5.9835  -5.7050  -5.0203  -4.6434
     0.3710   1.2027   2.0307   2.4099   3.0062   4.2248   4.3670   4.6353
     4.8882   4.9370   5.5018   5.8089   6.0459   6.4228   6.8453   7.1387

     occupation numbers 
     1.0000   1.0000   1.0000   1.0000   1.0000   1.0000   1.0000   1.0000
     1.0000   1.0000   1.0000   1.0000   1.0000   1.0000   1.0000   1.0000
     1.0000   1.0000   1.0000   1.0000   1.0000   1.0000   1.0000   1.0000
     1.0000   1.0000   1.0000   1.0000   1.0000   1.0000   1.0000   1.0000
     1.0000   1.0000   1.0000   1.0000   1.0000   1.0000   1.0000   1.0000

          k = 0.1667 0.1730 0.4754 (  8831 PWs)   bands (ev):

   -13.7588 -13.7508 -13.7474 -13.7451 -13.7437 -13.7427 -13.7381 -13.7364
   -13.7300 -13.7260 -13.7230 -13.7213 -13.7133 -13.7112 -13.6940 -13.6906
   -13.6878 -13.6858 -13.6766 -13.6721  -5.8688  -5.6000  -5.0164  -4.6755
     0.0536   0.9385   1.5083   2.0769   3.1002   4.2723   4.4830   5.0015
     5.2140   5.4634   5.5105   5.9169   6.3124   6.6162   6.8931   7.1453

     occupation numbers 
     1.0000   1.0000   1.0000   1.0000   1.0000   1.0000   1.0000   1.0000
     1.0000   1.0000   1.0000   1.0000   1.0000   1.0000   1.0000   1.0000
     1.0000   1.0000   1.0000   1.0000   1.0000   1.0000   1.0000   1.0000
     1.0000   1.0000   1.0000   1.0000   1.0000   1.0000   1.0000   1.0000
     1.0000   1.0000   1.0000   1.0000   1.0000   1.0000   1.0000   1.0000

          k = 0.1667 0.1730 0.7923 (  8830 PWs)   bands (ev):

   -13.7565 -13.7504 -13.7476 -13.7465 -13.7442 -13.7437 -13.7386 -13.7373
   -13.7294 -13.7266 -13.7196 -13.7176 -13.7130 -13.7113 -13.6938 -13.6902
   -13.6887 -13.6866 -13.6759 -13.6729  -5.6630  -5.4132  -5.0473  -4.7627
    -0.2609   0.4336   1.0707   1.5924   3.4017   4.5033   4.7050   5.2783
     5.4829   5.6323   5.8763   6.0038   6.4801   6.9497   6.9711   7.3959

     occupation numbers 
     1.0000   1.0000   1.0000   1.0000   1.0000   1.0000   1.0000   1.0000
     1.0000   1.0000   1.0000   1.0000   1.0000   1.0000   1.0000   1.0000
     1.0000   1.0000   1.0000   1.0000   1.0000   1.0000   1.0000   1.0000
     1.0000   1.0000   1.0000   1.0000   1.0000   1.0000   1.0000   1.0000
     1.0000   1.0000   1.0000   1.0000   1.0000   1.0000   1.0000   1.0000

          k = 0.1667 0.1730 1.1092 (  8836 PWs)   bands (ev):

   -13.7539 -13.7516 -13.7477 -13.7473 -13.7448 -13.7443 -13.7388 -13.7383
   -13.7285 -13.7275 -13.7162 -13.7145 -13.7136 -13.7120 -13.6929 -13.6915
   -13.6882 -13.6874 -13.6749 -13.6739  -5.4185  -5.2485  -5.1011  -4.9230
    -0.3288  -0.0718   0.9709   1.1711   3.8727   4.3837   5.0743   5.3334
     5.5449   5.6658   5.9099   6.1998   6.7677   7.0858   7.2510   7.3370

     occupation numbers 
     1.0000   1.0000   1.0000   1.0000   1.0000   1.0000   1.0000   1.0000
     1.0000   1.0000   1.0000   1.0000   1.0000   1.0000   1.0000   1.0000
     1.0000   1.0000   1.0000   1.0000   1.0000   1.0000   1.0000   1.0000
     1.0000   1.0000   1.0000   1.0000   1.0000   1.0000   1.0000   1.0000
     1.0000   1.0000   1.0000   1.0000   1.0000   1.0000   1.0000   1.0000

          k = 0.1667 0.5191 0.1585 (  8847 PWs)   bands (ev):

   -13.7545 -13.7494 -13.7463 -13.7431 -13.7426 -13.7413 -13.7407 -13.7385
   -13.7317 -13.7283 -13.7241 -13.7208 -13.7122 -13.7112 -13.6932 -13.6913
   -13.6888 -13.6853 -13.6767 -13.6727  -5.8240  -5.5673  -4.9528  -4.6366
     0.2189   0.9451   1.7106   1.8180   3.1212   4.0996   4.3979   4.7109
     5.0179   5.1966   5.5202   5.8526   6.0931   6.7127   6.9640   7.0653

     occupation numbers 
     1.0000   1.0000   1.0000   1.0000   1.0000   1.0000   1.0000   1.0000
     1.0000   1.0000   1.0000   1.0000   1.0000   1.0000   1.0000   1.0000
     1.0000   1.0000   1.0000   1.0000   1.0000   1.0000   1.0000   1.0000
     1.0000   1.0000   1.0000   1.0000   1.0000   1.0000   1.0000   1.0000
     1.0000   1.0000   1.0000   1.0000   1.0000   1.0000   1.0000   1.0000

          k = 0.1667 0.5191 0.4754 (  8834 PWs)   bands (ev):

   -13.7544 -13.7493 -13.7477 -13.7437 -13.7427 -13.7417 -13.7402 -13.7394
   -13.7316 -13.7285 -13.7218 -13.7186 -13.7126 -13.7102 -13.6930 -13.6911
   -13.6890 -13.6861 -13.6764 -13.6730  -5.7152  -5.4687  -4.9466  -4.6589
     0.0587   0.8741   1.3619   1.7220   3.2536   3.6997   3.9820   4.7759
     4.9756   5.5268   5.7539   5.9042   6.5317   6.6604   6.9608   7.1383

     occupation numbers 
     1.0000   1.0000   1.0000   1.0000   1.0000   1.0000   1.0000   1.0000
     1.0000   1.0000   1.0000   1.0000   1.0000   1.0000   1.0000   1.0000
     1.0000   1.0000   1.0000   1.0000   1.0000   1.0000   1.0000   1.0000
     1.0000   1.0000   1.0000   1.0000   1.0000   1.0000   1.0000   1.0000
     1.0000   1.0000   1.0000   1.0000   1.0000   1.0000   1.0000   1.0000

          k = 0.1667 0.5191 0.7923 (  8827 PWs)   bands (ev):

   -13.7543 -13.7504 -13.7485 -13.7449 -13.7432 -13.7416 -13.7408 -13.7398
   -13.7309 -13.7289 -13.7188 -13.7155 -13.7125 -13.7096 -13.6924 -13.6906
   -13.6895 -13.6874 -13.6757 -13.6735  -5.5220  -5.2953  -4.9697  -4.7262
    -0.1216   0.5399   1.1019   1.4927   3.5117   3.6516   3.9315   4.6958
     4.8039   5.5618   5.6228   6.1833   6.3996   6.6507   6.8538   7.1319

     occupation numbers 
     1.0000   1.0000   1.0000   1.0000   1.0000   1.0000   1.0000   1.0000
     1.0000   1.0000   1.0000   1.0000   1.0000   1.0000   1.0000   1.0000
     1.0000   1.0000   1.0000   1.0000   1.0000   1.0000   1.0000   1.0000
     1.0000   1.0000   1.0000   1.0000   1.0000   1.0000   1.0000   1.0000
     1.0000   1.0000   1.0000   1.0000   1.0000   1.0000   1.0000   1.0000

          k = 0.1667 0.5191 1.1092 (  8849 PWs)   bands (ev):

   -13.7539 -13.7526 -13.7476 -13.7464 -13.7433 -13.7426 -13.7406 -13.7400
   -13.7301 -13.7294 -13.7160 -13.7144 -13.7114 -13.7099 -13.6915 -13.6906
   -13.6894 -13.6886 -13.6749 -13.6742  -5.2969  -5.1444  -5.0142  -4.8592
    -0.1370   0.1054   1.0784   1.2315   3.8297   3.8905   4.1576   4.4312
     4.7212   5.0495   5.6942   5.9791   6.3392   6.5844   6.8446   7.0306

     occupation numbers 
     1.0000   1.0000   1.0000   1.0000   1.0000   1.0000   1.0000   1.0000
     1.0000   1.0000   1.0000   1.0000   1.0000   1.0000   1.0000   1.0000
     1.0000   1.0000   1.0000   1.0000   1.0000   1.0000   1.0000   1.0000
     1.0000   1.0000   1.0000   1.0000   1.0000   1.0000   1.0000   1.0000
     1.0000   1.0000   1.0000   1.0000   1.0000   1.0000   1.0000   1.0000

          k = 0.1667 0.8652 0.1585 (  8858 PWs)   bands (ev):

   -13.7522 -13.7501 -13.7479 -13.7473 -13.7411 -13.7379 -13.7373 -13.7359
   -13.7309 -13.7305 -13.7241 -13.7172 -13.7132 -13.7082 -13.6969 -13.6960
   -13.6863 -13.6822 -13.6761 -13.6743  -5.5344  -5.3287  -4.8786  -4.6852
     0.0114   0.6125   0.9524   1.2594   3.4592   4.2181   4.5833   4.9181
     5.2814   5.3467   5.6680   5.8497   6.2233   6.6957   6.8013   7.1604

     occupation numbers 
     1.0000   1.0000   1.0000   1.0000   1.0000   1.0000   1.0000   1.0000
     1.0000   1.0000   1.0000   1.0000   1.0000   1.0000   1.0000   1.0000
     1.0000   1.0000   1.0000   1.0000   1.0000   1.0000   1.0000   1.0000
     1.0000   1.0000   1.0000   1.0000   1.0000   1.0000   1.0000   1.0000
     1.0000   1.0000   1.0000   1.0000   1.0000   1.0000   1.0000   1.0000

          k = 0.1667 0.8652 0.4754 (  8857 PWs)   bands (ev):

   -13.7547 -13.7518 -13.7493 -13.7478 -13.7417 -13.7373 -13.7368 -13.7357
   -13.7305 -13.7302 -13.7223 -13.7164 -13.7123 -13.7077 -13.6964 -13.6955
   -13.6863 -13.6829 -13.6759 -13.6744  -5.4395  -5.2445  -4.8643  -4.6850
     0.0493   0.7059   0.9798   1.1956   3.4623   3.5776   3.9242   4.5063
     4.9361   5.4930   5.5866   6.0294   6.1266   6.4601   6.6931   6.9260

     occupation numbers 
     1.0000   1.0000   1.0000   1.0000   1.0000   1.0000   1.0000   1.0000
     1.0000   1.0000   1.0000   1.0000   1.0000   1.0000   1.0000   1.0000
     1.0000   1.0000   1.0000   1.0000   1.0000   1.0000   1.0000   1.0000
     1.0000   1.0000   1.0000   1.0000   1.0000   1.0000   1.0000   1.0000
     1.0000   1.0000   1.0000   1.0000   1.0000   1.0000   1.0000   1.0000

          k = 0.1667 0.8652 0.7923 (  8846 PWs)   bands (ev):

   -13.7573 -13.7550 -13.7509 -13.7497 -13.7413 -13.7377 -13.7361 -13.7354
   -13.7298 -13.7297 -13.7199 -13.7158 -13.7103 -13.7071 -13.6955 -13.6949
   -13.6862 -13.6838 -13.6755 -13.6744  -5.2756  -5.1012  -4.8663  -4.7082
     0.1059   0.6636   1.0323   1.1990   3.0749   3.4097   3.8440   4.0969
     4.3947   4.9945   5.3032   5.6535   5.9535   6.2031   6.4116   6.8845

     occupation numbers 
     1.0000   1.0000   1.0000   1.0000   1.0000   1.0000   1.0000   1.0000
     1.0000   1.0000   1.0000   1.0000   1.0000   1.0000   1.0000   1.0000
     1.0000   1.0000   1.0000   1.0000   1.0000   1.0000   1.0000   1.0000
     1.0000   1.0000   1.0000   1.0000   1.0000   1.0000   1.0000   1.0000
     1.0000   1.0000   1.0000   1.0000   1.0000   1.0000   1.0000   1.0000

          k = 0.1667 0.8652 1.1092 (  8836 PWs)   bands (ev):

   -13.7585 -13.7576 -13.7519 -13.7514 -13.7402 -13.7388 -13.7356 -13.7354
   -13.7293 -13.7293 -13.7176 -13.7162 -13.7081 -13.7071 -13.6947 -13.6945
   -13.6857 -13.6848 -13.6750 -13.6746  -5.0943  -4.9810  -4.8882  -4.7823
     0.2067   0.4091   1.1611   1.2175   3.0897   3.4304   3.5039   3.8842
     4.2643   4.6715   5.0036   5.3988   5.6069   5.8624   6.4911   6.6326

     occupation numbers 
     1.0000   1.0000   1.0000   1.0000   1.0000   1.0000   1.0000   1.0000
     1.0000   1.0000   1.0000   1.0000   1.0000   1.0000   1.0000   1.0000
     1.0000   1.0000   1.0000   1.0000   1.0000   1.0000   1.0000   1.0000
     1.0000   1.0000   1.0000   1.0000   1.0000   1.0000   1.0000   1.0000
     1.0000   1.0000   1.0000   1.0000   1.0000   1.0000   1.0000   1.0000

          k = 0.1667 1.2113 0.1585 (  8861 PWs)   bands (ev):

   -13.7539 -13.7524 -13.7512 -13.7499 -13.7376 -13.7359 -13.7342 -13.7330
   -13.7287 -13.7265 -13.7253 -13.7200 -13.7093 -13.7051 -13.7029 -13.7010
   -13.6813 -13.6789 -13.6769 -13.6765  -5.1807  -5.0692  -4.8989  -4.8666
    -0.0250   0.2935   0.5116   0.7632   3.9770   4.4254   4.7991   5.1128
     5.2948   5.3497   5.7494   6.0123   6.3498   6.5440   6.6099   6.7727

     occupation numbers 
     1.0000   1.0000   1.0000   1.0000   1.0000   1.0000   1.0000   1.0000
     1.0000   1.0000   1.0000   1.0000   1.0000   1.0000   1.0000   1.0000
     1.0000   1.0000   1.0000   1.0000   1.0000   1.0000   1.0000   1.0000
     1.0000   1.0000   1.0000   1.0000   1.0000   1.0000   1.0000   1.0000
     1.0000   1.0000   1.0000   1.0000   1.0000   1.0000   1.0000   1.0000

          k = 0.1667 1.2113 0.4754 (  8876 PWs)   bands (ev):

   -13.7565 -13.7550 -13.7528 -13.7517 -13.7379 -13.7360 -13.7331 -13.7324
   -13.7283 -13.7266 -13.7235 -13.7196 -13.7084 -13.7055 -13.7010 -13.7000
   -13.6815 -13.6796 -13.6765 -13.6763  -5.1110  -5.0087  -4.8657  -4.8319
     0.1203   0.4316   0.6389   0.8167   3.7344   3.9286   4.1925   4.4781
     4.6460   5.0988   5.5387   5.7242   5.8441   6.1306   6.5856   6.8528

     occupation numbers 
     1.0000   1.0000   1.0000   1.0000   1.0000   1.0000   1.0000   1.0000
     1.0000   1.0000   1.0000   1.0000   1.0000   1.0000   1.0000   1.0000
     1.0000   1.0000   1.0000   1.0000   1.0000   1.0000   1.0000   1.0000
     1.0000   1.0000   1.0000   1.0000   1.0000   1.0000   1.0000   1.0000
     1.0000   1.0000   1.0000   1.0000   1.0000   1.0000   1.0000   1.0000

          k = 0.1667 1.2113 0.7923 (  8838 PWs)   bands (ev):

   -13.7597 -13.7586 -13.7550 -13.7543 -13.7379 -13.7364 -13.7322 -13.7318
   -13.7275 -13.7264 -13.7217 -13.7192 -13.7068 -13.7052 -13.6989 -13.6985
   -13.6816 -13.6804 -13.6761 -13.6760  -4.9985  -4.9136  -4.8262  -4.7884
     0.3661   0.6445   0.8391   0.9004   3.0890   3.5340   3.6333   3.9779
     4.1989   4.5614   4.8740   5.3375   5.4331   5.7004   6.4421   6.5869

     occupation numbers 
     1.0000   1.0000   1.0000   1.0000   1.0000   1.0000   1.0000   1.0000
     1.0000   1.0000   1.0000   1.0000   1.0000   1.0000   1.0000   1.0000
     1.0000   1.0000   1.0000   1.0000   1.0000   1.0000   1.0000   1.0000
     1.0000   1.0000   1.0000   1.0000   1.0000   1.0000   1.0000   1.0000
     1.0000   1.0000   1.0000   1.0000   1.0000   1.0000   1.0000   1.0000

          k = 0.1667 1.2113 1.1092 (  8845 PWs)   bands (ev):

   -13.7617 -13.7613 -13.7566 -13.7563 -13.7376 -13.7370 -13.7317 -13.7315
   -13.7267 -13.7262 -13.7203 -13.7194 -13.7054 -13.7049 -13.6976 -13.6975
   -13.6814 -13.6810 -13.6759 -13.6759  -4.8904  -4.8413  -4.8069  -4.7747
     0.6059   0.7257   1.0024   1.0336   2.8320   3.0350   3.4129   3.5701
     3.9940   4.0540   4.5434   4.8623   5.4052   5.5961   6.3200   6.3660

     occupation numbers 
     1.0000   1.0000   1.0000   1.0000   1.0000   1.0000   1.0000   1.0000
     1.0000   1.0000   1.0000   1.0000   1.0000   1.0000   1.0000   1.0000
     1.0000   1.0000   1.0000   1.0000   1.0000   1.0000   1.0000   1.0000
     1.0000   1.0000   1.0000   1.0000   1.0000   1.0000   1.0000   1.0000
     1.0000   1.0000   1.0000   1.0000   1.0000   1.0000   1.0000   1.0000

          k =-0.5000 0.1730 0.1585 (  8832 PWs)   bands (ev):

   -13.7562 -13.7562 -13.7456 -13.7456 -13.7428 -13.7428 -13.7364 -13.7364
   -13.7281 -13.7281 -13.7241 -13.7241 -13.7127 -13.7127 -13.6923 -13.6923
   -13.6863 -13.6863 -13.6742 -13.6742  -5.8690  -5.8690  -4.8071  -4.8071
     0.6642   0.6642   2.3211   2.3211   3.6465   3.6465   4.5417   4.5417
     4.9854   4.9854   5.5817   5.5817   5.9265   5.9265   7.0454   7.0454

     occupation numbers 
     1.0000   1.0000   1.0000   1.0000   1.0000   1.0000   1.0000   1.0000
     1.0000   1.0000   1.0000   1.0000   1.0000   1.0000   1.0000   1.0000
     1.0000   1.0000   1.0000   1.0000   1.0000   1.0000   1.0000   1.0000
     1.0000   1.0000   1.0000   1.0000   1.0000   1.0000   1.0000   1.0000
     1.0000   1.0000   1.0000   1.0000   1.0000   1.0000   1.0000   1.0000

          k =-0.5000 0.1730 0.4754 (  8818 PWs)   bands (ev):

   -13.7554 -13.7554 -13.7456 -13.7456 -13.7437 -13.7437 -13.7371 -13.7371
   -13.7280 -13.7280 -13.7219 -13.7219 -13.7124 -13.7124 -13.6923 -13.6923
   -13.6868 -13.6868 -13.6742 -13.6742  -5.7593  -5.7593  -4.8210  -4.8210
     0.3712   0.3712   1.8626   1.8626   3.8601   3.8601   4.6012   4.6012
     5.2860   5.2860   5.7322   5.7322   6.3847   6.3847   6.9436   6.9436

     occupation numbers 
     1.0000   1.0000   1.0000   1.0000   1.0000   1.0000   1.0000   1.0000
     1.0000   1.0000   1.0000   1.0000   1.0000   1.0000   1.0000   1.0000
     1.0000   1.0000   1.0000   1.0000   1.0000   1.0000   1.0000   1.0000
     1.0000   1.0000   1.0000   1.0000   1.0000   1.0000   1.0000   1.0000
     1.0000   1.0000   1.0000   1.0000   1.0000   1.0000   1.0000   1.0000

          k =-0.5000 0.1730 0.7923 (  8832 PWs)   bands (ev):

   -13.7539 -13.7539 -13.7465 -13.7465 -13.7441 -13.7441 -13.7382 -13.7382
   -13.7278 -13.7278 -13.7185 -13.7185 -13.7123 -13.7123 -13.6921 -13.6921
   -13.6876 -13.6876 -13.6743 -13.6743  -5.5650  -5.5650  -4.8784  -4.8784
     0.0298   0.0298   1.3226   1.3226   4.1769   4.1769   4.8807   4.8807
     5.4257   5.4257   5.9598   5.9598   6.5974   6.5974   7.1318   7.1318

     occupation numbers 
     1.0000   1.0000   1.0000   1.0000   1.0000   1.0000   1.0000   1.0000
     1.0000   1.0000   1.0000   1.0000   1.0000   1.0000   1.0000   1.0000
     1.0000   1.0000   1.0000   1.0000   1.0000   1.0000   1.0000   1.0000
     1.0000   1.0000   1.0000   1.0000   1.0000   1.0000   1.0000   1.0000
     1.0000   1.0000   1.0000   1.0000   1.0000   1.0000   1.0000   1.0000

          k =-0.5000 0.1730 1.1092 (  8836 PWs)   bands (ev):

   -13.7526 -13.7526 -13.7477 -13.7477 -13.7443 -13.7443 -13.7390 -13.7390
   -13.7276 -13.7276 -13.7155 -13.7155 -13.7128 -13.7128 -13.6920 -13.6920
   -13.6881 -13.6881 -13.6743 -13.6743  -5.3545  -5.3545  -4.9918  -4.9918
    -0.1656  -0.1656   0.9697   0.9697   4.5867   4.5867   5.1810   5.1810
     5.2612   5.2612   5.8091   5.8091   6.9844   6.9844   7.2610   7.2610

     occupation numbers 
     1.0000   1.0000   1.0000   1.0000   1.0000   1.0000   1.0000   1.0000
     1.0000   1.0000   1.0000   1.0000   1.0000   1.0000   1.0000   1.0000
     1.0000   1.0000   1.0000   1.0000   1.0000   1.0000   1.0000   1.0000
     1.0000   1.0000   1.0000   1.0000   1.0000   1.0000   1.0000   1.0000
     1.0000   1.0000   1.0000   1.0000   1.0000   1.0000   1.0000   1.0000

          k =-0.5000 0.5191 0.1585 (  8830 PWs)   bands (ev):

   -13.7519 -13.7519 -13.7451 -13.7451 -13.7422 -13.7422 -13.7392 -13.7392
   -13.7300 -13.7300 -13.7222 -13.7222 -13.7118 -13.7118 -13.6922 -13.6922
   -13.6870 -13.6870 -13.6746 -13.6746  -5.7179  -5.7179  -4.7720  -4.7720
     0.4923   0.4923   1.8141   1.8141   3.7744   3.7744   4.4210   4.4210
     5.2969   5.2969   5.4779   5.4779   6.1484   6.1484   7.1130   7.1130

     occupation numbers 
     1.0000   1.0000   1.0000   1.0000   1.0000   1.0000   1.0000   1.0000
     1.0000   1.0000   1.0000   1.0000   1.0000   1.0000   1.0000   1.0000
     1.0000   1.0000   1.0000   1.0000   1.0000   1.0000   1.0000   1.0000
     1.0000   1.0000   1.0000   1.0000   1.0000   1.0000   1.0000   1.0000
     1.0000   1.0000   1.0000   1.0000   1.0000   1.0000   1.0000   1.0000

          k =-0.5000 0.5191 0.4754 (  8836 PWs)   bands (ev):

   -13.7519 -13.7519 -13.7463 -13.7463 -13.7420 -13.7420 -13.7396 -13.7396
   -13.7299 -13.7299 -13.7202 -13.7202 -13.7115 -13.7115 -13.6920 -13.6920
   -13.6876 -13.6876 -13.6745 -13.6745  -5.6142  -5.6142  -4.7802  -4.7802
     0.3613   0.3613   1.5988   1.5988   3.7229   3.7229   4.2856   4.2856
     4.9603   4.9603   5.9401   5.9401   6.5327   6.5327   7.0454   7.0454

     occupation numbers 
     1.0000   1.0000   1.0000   1.0000   1.0000   1.0000   1.0000   1.0000
     1.0000   1.0000   1.0000   1.0000   1.0000   1.0000   1.0000   1.0000
     1.0000   1.0000   1.0000   1.0000   1.0000   1.0000   1.0000   1.0000
     1.0000   1.0000   1.0000   1.0000   1.0000   1.0000   1.0000   1.0000
     1.0000   1.0000   1.0000   1.0000   1.0000   1.0000   1.0000   1.0000

          k =-0.5000 0.5191 0.7923 (  8836 PWs)   bands (ev):

   -13.7522 -13.7522 -13.7479 -13.7479 -13.7419 -13.7419 -13.7398 -13.7398
   -13.7297 -13.7297 -13.7176 -13.7176 -13.7108 -13.7108 -13.6917 -13.6917
   -13.6885 -13.6885 -13.6744 -13.6744  -5.4325  -5.4325  -4.8242  -4.8242
     0.1576   0.1576   1.2973   1.2973   3.7164   3.7164   4.4570   4.4570
     4.8134   4.8134   6.0022   6.0022   6.3918   6.3918   7.0047   7.0047

     occupation numbers 
     1.0000   1.0000   1.0000   1.0000   1.0000   1.0000   1.0000   1.0000
     1.0000   1.0000   1.0000   1.0000   1.0000   1.0000   1.0000   1.0000
     1.0000   1.0000   1.0000   1.0000   1.0000   1.0000   1.0000   1.0000
     1.0000   1.0000   1.0000   1.0000   1.0000   1.0000   1.0000   1.0000
     1.0000   1.0000   1.0000   1.0000   1.0000   1.0000   1.0000   1.0000

          k =-0.5000 0.5191 1.1092 (  8842 PWs)   bands (ev):

   -13.7525 -13.7525 -13.7491 -13.7491 -13.7418 -13.7418 -13.7399 -13.7399
   -13.7295 -13.7295 -13.7158 -13.7158 -13.7103 -13.7103 -13.6913 -13.6913
   -13.6892 -13.6892 -13.6743 -13.6743  -5.2392  -5.2392  -4.9187  -4.9187
     0.0141   0.0141   1.0734   1.0734   3.9549   3.9549   4.3543   4.3543
     5.0574   5.0574   5.6018   5.6018   6.2767   6.2767   6.8310   6.8310

     occupation numbers 
     1.0000   1.0000   1.0000   1.0000   1.0000   1.0000   1.0000   1.0000
     1.0000   1.0000   1.0000   1.0000   1.0000   1.0000   1.0000   1.0000
     1.0000   1.0000   1.0000   1.0000   1.0000   1.0000   1.0000   1.0000
     1.0000   1.0000   1.0000   1.0000   1.0000   1.0000   1.0000   1.0000
     1.0000   1.0000   1.0000   1.0000   1.0000   1.0000   1.0000   1.0000

          k =-0.5000 0.8652 0.1585 (  8842 PWs)   bands (ev):

   -13.7516 -13.7516 -13.7469 -13.7469 -13.7393 -13.7393 -13.7374 -13.7374
   -13.7305 -13.7305 -13.7210 -13.7210 -13.7101 -13.7101 -13.6966 -13.6966
   -13.6841 -13.6841 -13.6752 -13.6752  -5.4480  -5.4480  -4.7648  -4.7648
     0.2594   0.2594   1.1118   1.1118   4.0613   4.0613   4.5986   4.5986
     5.4642   5.4642   5.6300   5.6300   6.1715   6.1715   6.9904   6.9904

     occupation numbers 
     1.0000   1.0000   1.0000   1.0000   1.0000   1.0000   1.0000   1.0000
     1.0000   1.0000   1.0000   1.0000   1.0000   1.0000   1.0000   1.0000
     1.0000   1.0000   1.0000   1.0000   1.0000   1.0000   1.0000   1.0000
     1.0000   1.0000   1.0000   1.0000   1.0000   1.0000   1.0000   1.0000
     1.0000   1.0000   1.0000   1.0000   1.0000   1.0000   1.0000   1.0000

          k =-0.5000 0.8652 0.4754 (  8844 PWs)   bands (ev):

   -13.7534 -13.7534 -13.7486 -13.7486 -13.7394 -13.7394 -13.7366 -13.7366
   -13.7299 -13.7299 -13.7200 -13.7200 -13.7093 -13.7093 -13.6963 -13.6963
   -13.6844 -13.6844 -13.6751 -13.6751  -5.3583  -5.3583  -4.7581  -4.7581
     0.3153   0.3153   1.1085   1.1085   3.6143   3.6143   4.4002   4.4002
     4.8771   4.8771   5.8833   5.8833   6.0962   6.0962   6.8850   6.8850

     occupation numbers 
     1.0000   1.0000   1.0000   1.0000   1.0000   1.0000   1.0000   1.0000
     1.0000   1.0000   1.0000   1.0000   1.0000   1.0000   1.0000   1.0000
     1.0000   1.0000   1.0000   1.0000   1.0000   1.0000   1.0000   1.0000
     1.0000   1.0000   1.0000   1.0000   1.0000   1.0000   1.0000   1.0000
     1.0000   1.0000   1.0000   1.0000   1.0000   1.0000   1.0000   1.0000

          k =-0.5000 0.8652 0.7923 (  8846 PWs)   bands (ev):

   -13.7557 -13.7557 -13.7510 -13.7510 -13.7392 -13.7392 -13.7359 -13.7359
   -13.7292 -13.7292 -13.7187 -13.7187 -13.7079 -13.7079 -13.6958 -13.6958
   -13.6847 -13.6847 -13.6749 -13.6749  -5.2056  -5.2056  -4.7701  -4.7701
     0.3500   0.3500   1.1164   1.1164   3.2662   3.2662   4.0690   4.0690
     4.6871   4.6871   5.3593   5.3593   5.9354   5.9354   6.7244   6.7244

     occupation numbers 
     1.0000   1.0000   1.0000   1.0000   1.0000   1.0000   1.0000   1.0000
     1.0000   1.0000   1.0000   1.0000   1.0000   1.0000   1.0000   1.0000
     1.0000   1.0000   1.0000   1.0000   1.0000   1.0000   1.0000   1.0000
     1.0000   1.0000   1.0000   1.0000   1.0000   1.0000   1.0000   1.0000
     1.0000   1.0000   1.0000   1.0000   1.0000   1.0000   1.0000   1.0000

          k =-0.5000 0.8652 1.1092 (  8840 PWs)   bands (ev):

   -13.7574 -13.7574 -13.7527 -13.7527 -13.7391 -13.7391 -13.7356 -13.7356
   -13.7288 -13.7288 -13.7179 -13.7179 -13.7066 -13.7066 -13.6954 -13.6954
   -13.6849 -13.6849 -13.6748 -13.6748  -5.0509  -5.0509  -4.8222  -4.8222
     0.3272   0.3272   1.1447   1.1447   3.2788   3.2788   3.6340   3.6340
     4.6851   4.6851   4.9950   4.9950   5.8836   5.8836   6.3863   6.3863

     occupation numbers 
     1.0000   1.0000   1.0000   1.0000   1.0000   1.0000   1.0000   1.0000
     1.0000   1.0000   1.0000   1.0000   1.0000   1.0000   1.0000   1.0000
     1.0000   1.0000   1.0000   1.0000   1.0000   1.0000   1.0000   1.0000
     1.0000   1.0000   1.0000   1.0000   1.0000   1.0000   1.0000   1.0000
     1.0000   1.0000   1.0000   1.0000   1.0000   1.0000   1.0000   1.0000

          k =-0.5000 1.2113 0.1585 (  8852 PWs)   bands (ev):

   -13.7528 -13.7528 -13.7511 -13.7511 -13.7357 -13.7357 -13.7351 -13.7351
   -13.7270 -13.7270 -13.7228 -13.7228 -13.7068 -13.7068 -13.7022 -13.7022
   -13.6800 -13.6800 -13.6768 -13.6768  -5.1316  -5.1316  -4.8765  -4.8765
     0.2126   0.2126   0.5136   0.5136   4.5263   4.5263   4.8731   4.8731
     5.3651   5.3651   5.6018   5.6018   6.2915   6.2915   6.6426   6.6426

     occupation numbers 
     1.0000   1.0000   1.0000   1.0000   1.0000   1.0000   1.0000   1.0000
     1.0000   1.0000   1.0000   1.0000   1.0000   1.0000   1.0000   1.0000
     1.0000   1.0000   1.0000   1.0000   1.0000   1.0000   1.0000   1.0000
     1.0000   1.0000   1.0000   1.0000   1.0000   1.0000   1.0000   1.0000
     1.0000   1.0000   1.0000   1.0000   1.0000   1.0000   1.0000   1.0000

          k =-0.5000 1.2113 0.4754 (  8850 PWs)   bands (ev):

   -13.7549 -13.7549 -13.7532 -13.7532 -13.7357 -13.7357 -13.7346 -13.7346
   -13.7263 -13.7263 -13.7223 -13.7223 -13.7058 -13.7058 -13.7014 -13.7014
   -13.6801 -13.6801 -13.6767 -13.6767  -5.0662  -5.0662  -4.8427  -4.8427
     0.3461   0.3461   0.6205   0.6205   3.9002   3.9002   4.4212   4.4212
     4.9508   4.9508   5.3926   5.3926   6.0499   6.0499   6.4833   6.4833

     occupation numbers 
     1.0000   1.0000   1.0000   1.0000   1.0000   1.0000   1.0000   1.0000
     1.0000   1.0000   1.0000   1.0000   1.0000   1.0000   1.0000   1.0000
     1.0000   1.0000   1.0000   1.0000   1.0000   1.0000   1.0000   1.0000
     1.0000   1.0000   1.0000   1.0000   1.0000   1.0000   1.0000   1.0000
     1.0000   1.0000   1.0000   1.0000   1.0000   1.0000   1.0000   1.0000

          k =-0.5000 1.2113 0.7923 (  8834 PWs)   bands (ev):

   -13.7579 -13.7579 -13.7561 -13.7561 -13.7358 -13.7358 -13.7343 -13.7343
   -13.7253 -13.7253 -13.7216 -13.7216 -13.7042 -13.7042 -13.7002 -13.7002
   -13.6802 -13.6802 -13.6766 -13.6766  -4.9625  -4.9625  -4.8010  -4.8010
     0.5464   0.5464   0.8046   0.8046   3.3301   3.3301   3.8413   3.8413
     4.3934   4.3934   4.8491   4.8491   5.9385   5.9385   6.3082   6.3082

     occupation numbers 
     1.0000   1.0000   1.0000   1.0000   1.0000   1.0000   1.0000   1.0000
     1.0000   1.0000   1.0000   1.0000   1.0000   1.0000   1.0000   1.0000
     1.0000   1.0000   1.0000   1.0000   1.0000   1.0000   1.0000   1.0000
     1.0000   1.0000   1.0000   1.0000   1.0000   1.0000   1.0000   1.0000
     1.0000   1.0000   1.0000   1.0000   1.0000   1.0000   1.0000   1.0000

          k =-0.5000 1.2113 1.1092 (  8830 PWs)   bands (ev):

   -13.7599 -13.7599 -13.7581 -13.7581 -13.7360 -13.7360 -13.7342 -13.7342
   -13.7246 -13.7246 -13.7210 -13.7210 -13.7029 -13.7029 -13.6993 -13.6993
   -13.6802 -13.6802 -13.6766 -13.6766  -4.8707  -4.8707  -4.7861  -4.7861
     0.6791   0.6791   0.9882   0.9882   3.1278   3.1278   3.3755   3.3755
     4.0289   4.0289   4.3299   4.3299   6.0331   6.0331   6.2183   6.2183

     occupation numbers 
     1.0000   1.0000   1.0000   1.0000   1.0000   1.0000   1.0000   1.0000
     1.0000   1.0000   1.0000   1.0000   1.0000   1.0000   1.0000   1.0000
     1.0000   1.0000   1.0000   1.0000   1.0000   1.0000   1.0000   1.0000
     1.0000   1.0000   1.0000   1.0000   1.0000   1.0000   1.0000   1.0000
     1.0000   1.0000   1.0000   1.0000   1.0000   1.0000   1.0000   1.0000

     highest occupied level (ev):     7.3959

!    total energy              =    -827.74799537 Ry
     estimated scf accuracy    <          4.9E-11 Ry

     The total energy is the sum of the following terms:
     one-electron contribution =    -266.48524548 Ry
     hartree contribution      =     182.42580750 Ry
     xc contribution           =    -308.98360108 Ry
     ewald contribution        =    -434.58518412 Ry
     DFT-D3 Dispersion         =      -0.11977218 Ry

     convergence has been achieved in  12 iterations

     Forces acting on atoms (cartesian axes, Ry/au):

     atom    1 type  2   force =    -0.00004298    0.00000000   -0.00040666
     atom    2 type  1   force =    -0.00007406    0.00000000   -0.00004309
     atom    3 type  2   force =     0.00004298    0.00000000   -0.00040666
     atom    4 type  1   force =     0.00007406    0.00000000   -0.00004309
     atom    5 type  2   force =    -0.00004298   -0.00000000    0.00040666
     atom    6 type  1   force =    -0.00007406   -0.00000000    0.00004309
     atom    7 type  2   force =     0.00004298    0.00000000    0.00040666
     atom    8 type  1   force =     0.00007406    0.00000000    0.00004309
     The non-local contrib.  to forces
     atom    1 type  2   force =    -0.10304714    0.00000000    0.11351519
     atom    2 type  1   force =     0.34581121    0.00000000    0.30340325
     atom    3 type  2   force =     0.10304714    0.00000000    0.11351519
     atom    4 type  1   force =    -0.34581121    0.00000000    0.30340325
     atom    5 type  2   force =    -0.10304714    0.00000000   -0.11351519
     atom    6 type  1   force =     0.34581121    0.00000000   -0.30340325
     atom    7 type  2   force =     0.10304714    0.00000000   -0.11351519
     atom    8 type  1   force =    -0.34581121    0.00000000   -0.30340325
     The ionic contribution  to forces
     atom    1 type  2   force =     1.14652820    0.00000000   -1.31153196
     atom    2 type  1   force =    -0.60889419    0.00000000   -0.74633219
     atom    3 type  2   force =    -1.14652820    0.00000000   -1.31153196
     atom    4 type  1   force =     0.60889419   -0.00000000   -0.74633219
     atom    5 type  2   force =     1.14652820   -0.00000000    1.31153196
     atom    6 type  1   force =    -0.60889419    0.00000000    0.74633219
     atom    7 type  2   force =    -1.14652820   -0.00000000    1.31153196
     atom    8 type  1   force =     0.60889419   -0.00000000    0.74633219
     The local contribution  to forces
     atom    1 type  2   force =    -1.05439833    0.00000000    1.20851017
     atom    2 type  1   force =     0.26993260   -0.00000000    0.44692847
     atom    3 type  2   force =     1.05439833    0.00000000    1.20851017
     atom    4 type  1   force =    -0.26993260   -0.00000000    0.44692847
     atom    5 type  2   force =    -1.05439833    0.00000000   -1.20851017
     atom    6 type  1   force =     0.26993260   -0.00000000   -0.44692847
     atom    7 type  2   force =     1.05439833   -0.00000000   -1.20851017
     atom    8 type  1   force =    -0.26993260    0.00000000   -0.44692847
     The core correction contribution to forces
     atom    1 type  2   force =     0.01155149   -0.00000000   -0.01255930
     atom    2 type  1   force =    -0.00627728   -0.00000000   -0.00500193
     atom    3 type  2   force =    -0.01155149    0.00000000   -0.01255930
     atom    4 type  1   force =     0.00627728   -0.00000000   -0.00500193
     atom    5 type  2   force =     0.01155149   -0.00000000    0.01255930
     atom    6 type  1   force =    -0.00627728   -0.00000000    0.00500193
     atom    7 type  2   force =    -0.01155149    0.00000000    0.01255930
     atom    8 type  1   force =     0.00627728    0.00000000    0.00500193
     The Hubbard contrib.    to forces
     atom    1 type  2   force =     0.00000000    0.00000000    0.00000000
     atom    2 type  1   force =     0.00000000    0.00000000    0.00000000
     atom    3 type  2   force =     0.00000000    0.00000000    0.00000000
     atom    4 type  1   force =     0.00000000    0.00000000    0.00000000
     atom    5 type  2   force =     0.00000000    0.00000000    0.00000000
     atom    6 type  1   force =     0.00000000    0.00000000    0.00000000
     atom    7 type  2   force =     0.00000000    0.00000000    0.00000000
     atom    8 type  1   force =     0.00000000    0.00000000    0.00000000
     The SCF correction term to forces
     atom    1 type  2   force =     0.00000134    0.00000000   -0.00000083
     atom    2 type  1   force =    -0.00001917    0.00000000   -0.00001184
     atom    3 type  2   force =    -0.00000134    0.00000000   -0.00000083
     atom    4 type  1   force =     0.00001917   -0.00000000   -0.00001184
     atom    5 type  2   force =     0.00000134   -0.00000000    0.00000083
     atom    6 type  1   force =    -0.00001917    0.00000000    0.00001184
     atom    7 type  2   force =    -0.00000134    0.00000000    0.00000083
     atom    8 type  1   force =     0.00001917    0.00000000    0.00001184

     DFT-D3 dispersion contribution to forces:
     atom    1 type  2   force =    -0.00067853   -0.00000000    0.00166007
     atom    2 type  1   force =    -0.00062722   -0.00000000    0.00097115
     atom    3 type  2   force =     0.00067853    0.00000000    0.00166007
     atom    4 type  1   force =     0.00062722    0.00000000    0.00097115
     atom    5 type  2   force =    -0.00067853   -0.00000000   -0.00166007
     atom    6 type  1   force =    -0.00062722   -0.00000000   -0.00097115
     atom    7 type  2   force =     0.00067853    0.00000000   -0.00166007
     atom    8 type  1   force =     0.00062722    0.00000000   -0.00097115

     Total force =     0.000836     Total SCF correction =     0.000045

     DFT-D3 dispersion Force =     0.004267


     Computing stress (Cartesian axis) and pressure

          total   stress  (Ry/bohr**3)                   (kbar)     P=       -0.09
   0.00000183   0.00000000   0.00000000            0.27        0.00        0.00
   0.00000000  -0.00000276   0.00000000            0.00       -0.41        0.00
   0.00000000   0.00000000  -0.00000081            0.00        0.00       -0.12

     kinetic stress (kbar)   7250.68      0.00      0.00
                                0.00   7214.48      0.00
                                0.00      0.00   7246.17

     local   stress (kbar)  -1247.17      0.00      0.00
                                0.00  -1435.11      0.00
                                0.00      0.00   1725.07

     nonloc. stress (kbar)   5642.11      0.00      0.00
                                0.00   5614.58      0.00
                                0.00      0.00   5616.95

     hartree stress (kbar)   6428.65      0.00     -0.00
                                0.00   6499.13      0.00
                               -0.00      0.00   5191.47

     exc-cor stress (kbar)  17229.32      0.00      0.00
                                0.00  17228.29      0.00
                                0.00      0.00  17227.61

     corecor stress (kbar) -21415.97     -0.00     -0.00
                               -0.00 -21413.88      0.00
                               -0.00      0.00 -21414.34

     ewald   stress (kbar) -13879.31      0.00     -0.00
                                0.00 -13699.26     -0.00
                               -0.00     -0.00 -15586.12

     hubbard stress (kbar)      0.00      0.00      0.00
                                0.00      0.00      0.00
                                0.00      0.00      0.00

     DFT-D   stress (kbar)     -8.04     -0.00     -0.00
                               -0.00     -8.62     -0.00
                               -0.00     -0.00     -6.91

     XDM     stress (kbar)      0.00      0.00      0.00
                                0.00      0.00      0.00
                                0.00      0.00      0.00

     dft-nl  stress (kbar)      0.00      0.00      0.00
                                0.00      0.00      0.00
                                0.00      0.00      0.00

     TS-vdW  stress (kbar)      0.00      0.00      0.00
                                0.00      0.00      0.00
                                0.00      0.00      0.00

     MDB     stress (kbar)      0.00      0.00      0.00
                                0.00      0.00      0.00
                                0.00      0.00      0.00

     3D-RISM stress (kbar)      0.00      0.00      0.00
                                0.00      0.00      0.00
                                0.00      0.00      0.00


     BFGS Geometry Optimization
     Energy error            =      0.0E+00 Ry
     Gradient error          =      4.1E-04 Ry/Bohr
     Cell gradient error     =      4.1E-01 kbar
ibrav =      8
 celldm(1) =     21.82520290
 celldm(2) =      0.36117894
 celldm(3) =      0.39443607
Input lattice vectors:
     1.00000000     0.00000000     0.00000000
     0.00000000     0.36117894     0.00000000
     0.00000000     0.00000000     0.39443607
New lattice vectors in INITIAL alat:
     1.00000000     0.00000000     0.00000000
     0.00000000     0.36117894     0.00000000
     0.00000000     0.00000000     0.39443607
New lattice vectors in NEW alat (for information only):
     1.00000000     0.00000000     0.00000000
     0.00000000     0.36117894     0.00000000
     0.00000000     0.00000000     0.39443607
Discrepancy in bohr =     0.000000    0.000000    0.000000

     bfgs converged in   1 scf cycles and   0 bfgs steps
     (criteria: energy <  1.0E-04 Ry, force <  1.0E-03 Ry/Bohr, cell <  5.0E-01 kbar)

     End of BFGS Geometry Optimization

     Final enthalpy           =    -827.7479953673 Ry
Begin final coordinates
     new unit-cell volume =   1481.06429 a.u.^3 (   219.47108 Ang^3 )
     density =      5.98269 g/cm^3

CELL_PARAMETERS (alat= 21.82520290)
   1.000000000   0.000000000   0.000000000
   0.000000000   0.361178936   0.000000000
   0.000000000   0.000000000   0.394436075

ATOMIC_POSITIONS (crystal)
Se               0.8549563467        0.2500000000        0.4832480702
Sn               0.1165395030        0.2500000000        0.1122870178
Se               0.6450436533        0.7500000000        0.9832480702
Sn               0.3834604970        0.7500000000        0.6122870178
Se               0.3549563467        0.2500000000        0.0167519298
Sn               0.6165395030        0.2500000000        0.3877129822
Se               0.1450436533        0.7500000000        0.5167519298
Sn               0.8834604970        0.7500000000        0.8877129822
End final coordinates



     Writing config-only to output data dir ./tmp/SnSe_pnma.save/ :
     XML data file

     Final scf calculation at the relaxed structure.
     The G-vectors are recalculated for the final unit cell
     Results may differ from those at the preceding step.
 
     Parallelization info
     --------------------
     sticks:   dense  smooth     PW     G-vecs:    dense   smooth      PW
     Min        3423    1372    393               139805    35391    5421
     Max        3424    1373    394               139806    35392    5422
     Sum        6847    2745    787               279611    70783   10843
 
     Using Slab Decomposition
 


     bravais-lattice index     =            8
     lattice parameter (alat)  =      21.8252  a.u.
     unit-cell volume          =    1481.0643 (a.u.)^3
     number of atoms/cell      =            8
     number of atomic types    =            2
     number of electrons       =        80.00
     number of Kohn-Sham states=           40
     kinetic-energy cutoff     =      50.0000  Ry
     charge density cutoff     =     500.0000  Ry
     scf convergence threshold =      1.0E-08
     mixing beta               =       0.7000
     number of iterations used =            8  plain     mixing
     press convergence thresh. =      5.0E-01
     Exchange-correlation= SLA  PW   PBE  PBE
                           (   1   4   3   4   0   0   0)

     celldm(1)=  21.825203  celldm(2)=   0.361179  celldm(3)=   0.394436
     celldm(4)=   0.000000  celldm(5)=   0.000000  celldm(6)=   0.000000

     crystal axes: (cart. coord. in units of alat)
               a(1) = (   1.000000   0.000000   0.000000 )  
               a(2) = (   0.000000   0.361179   0.000000 )  
               a(3) = (   0.000000   0.000000   0.394436 )  

     reciprocal axes: (cart. coord. in units 2 pi/alat)
               b(1) = (  1.000000  0.000000  0.000000 )  
               b(2) = (  0.000000  2.768711  0.000000 )  
               b(3) = (  0.000000  0.000000  2.535265 )  


     PseudoPot. # 1 for Sn read from file:
     ../pseudo/Sn_pbe_v1.uspp.F.UPF
     MD5 check sum: 4cf58ce39ec5d5d420df3dd08604eb00
     Pseudo is Ultrasoft + core correction, Zval = 14.0
     Generated by new atomic code, or converted to UPF format
     Using radial grid of  891 points,  6 beta functions with: 
                l(1) =   0
                l(2) =   0
                l(3) =   1
                l(4) =   1
                l(5) =   2
                l(6) =   2
     Q(r) pseudized with  6 coefficients,  rinner =    1.200   1.200   1.200
                                                       1.200   1.200

     PseudoPot. # 2 for Se read from file:
     ../pseudo/Se_pbe_v1.uspp.F.UPF
     MD5 check sum: 1b3568f3a8ae88f9a2a0ad0698632c85
     Pseudo is Ultrasoft + core correction, Zval =  6.0
     Generated by new atomic code, or converted to UPF format
     Using radial grid of  877 points,  6 beta functions with: 
                l(1) =   0
                l(2) =   0
                l(3) =   1
                l(4) =   1
                l(5) =   2
                l(6) =   2
     Q(r) pseudized with  8 coefficients,  rinner =    1.300   1.300   1.300
                                                       1.300   1.300

     atomic species   valence    mass     pseudopotential
     Sn               14.00   118.71000     Sn( 1.00)
     Se                6.00    78.97100     Se( 1.00)

      8 Sym. Ops., with inversion, found ( 6 have fractional translation)


                                    s                        frac. trans.

      isym =  1     identity                                     

 cryst.   s( 1) = (     1          0          0      )
                  (     0          1          0      )
                  (     0          0          1      )

 cart.    s( 1) = (  1.0000000  0.0000000  0.0000000 )
                  (  0.0000000  1.0000000  0.0000000 )
                  (  0.0000000  0.0000000  1.0000000 )


      isym =  2     180 deg rotation - cart. axis [0,0,1]        

 cryst.   s( 2) = (    -1          0          0      )    f =( -0.5000000 )
                  (     0         -1          0      )       (  0.0000000 )
                  (     0          0          1      )       ( -0.5000000 )

 cart.    s( 2) = ( -1.0000000  0.0000000  0.0000000 )    f =( -0.5000000 )
                  (  0.0000000 -1.0000000  0.0000000 )       (  0.0000000 )
                  (  0.0000000  0.0000000  1.0000000 )       ( -0.1972180 )


      isym =  3     180 deg rotation - cart. axis [0,1,0]        

 cryst.   s( 3) = (    -1          0          0      )    f =(  0.0000000 )
                  (     0          1          0      )       ( -0.5000000 )
                  (     0          0         -1      )       (  0.0000000 )

 cart.    s( 3) = ( -1.0000000  0.0000000  0.0000000 )    f =(  0.0000000 )
                  (  0.0000000  1.0000000  0.0000000 )       ( -0.1805895 )
                  (  0.0000000  0.0000000 -1.0000000 )       (  0.0000000 )


      isym =  4     180 deg rotation - cart. axis [1,0,0]        

 cryst.   s( 4) = (     1          0          0      )    f =( -0.5000000 )
                  (     0         -1          0      )       ( -0.5000000 )
                  (     0          0         -1      )       (  0.5000000 )

 cart.    s( 4) = (  1.0000000  0.0000000  0.0000000 )    f =( -0.5000000 )
                  (  0.0000000 -1.0000000  0.0000000 )       ( -0.1805895 )
                  (  0.0000000  0.0000000 -1.0000000 )       (  0.1972180 )


      isym =  5     inversion                                    

 cryst.   s( 5) = (    -1          0          0      )
                  (     0         -1          0      )
                  (     0          0         -1      )

 cart.    s( 5) = ( -1.0000000  0.0000000  0.0000000 )
                  (  0.0000000 -1.0000000  0.0000000 )
                  (  0.0000000  0.0000000 -1.0000000 )


      isym =  6     inv. 180 deg rotation - cart. axis [0,0,1]   

 cryst.   s( 6) = (     1          0          0      )    f =( -0.5000000 )
                  (     0          1          0      )       (  0.0000000 )
                  (     0          0         -1      )       (  0.5000000 )

 cart.    s( 6) = (  1.0000000  0.0000000  0.0000000 )    f =( -0.5000000 )
                  (  0.0000000  1.0000000  0.0000000 )       (  0.0000000 )
                  (  0.0000000  0.0000000 -1.0000000 )       (  0.1972180 )


      isym =  7     inv. 180 deg rotation - cart. axis [0,1,0]   

 cryst.   s( 7) = (     1          0          0      )    f =(  0.0000000 )
                  (     0         -1          0      )       ( -0.5000000 )
                  (     0          0          1      )       (  0.0000000 )

 cart.    s( 7) = (  1.0000000  0.0000000  0.0000000 )    f =(  0.0000000 )
                  (  0.0000000 -1.0000000  0.0000000 )       ( -0.1805895 )
                  (  0.0000000  0.0000000  1.0000000 )       (  0.0000000 )


      isym =  8     inv. 180 deg rotation - cart. axis [1,0,0]   

 cryst.   s( 8) = (    -1          0          0      )    f =( -0.5000000 )
                  (     0          1          0      )       ( -0.5000000 )
                  (     0          0          1      )       ( -0.5000000 )

 cart.    s( 8) = ( -1.0000000  0.0000000  0.0000000 )    f =( -0.5000000 )
                  (  0.0000000  1.0000000  0.0000000 )       ( -0.1805895 )
                  (  0.0000000  0.0000000  1.0000000 )       ( -0.1972180 )


     point group D_2h (mmm) 
     there are  8 classes
     the character table:

       E     C2    C2'   C2''  i     s_v   s_v'  s_v''
A_g    1.00  1.00  1.00  1.00  1.00  1.00  1.00  1.00
B_1g   1.00  1.00 -1.00 -1.00  1.00  1.00 -1.00 -1.00
B_2g   1.00 -1.00  1.00 -1.00  1.00 -1.00  1.00 -1.00
B_3g   1.00 -1.00 -1.00  1.00  1.00 -1.00 -1.00  1.00
A_u    1.00  1.00  1.00  1.00 -1.00 -1.00 -1.00 -1.00
B_1u   1.00  1.00 -1.00 -1.00 -1.00 -1.00  1.00  1.00
B_2u   1.00 -1.00  1.00 -1.00 -1.00  1.00 -1.00  1.00
B_3u   1.00 -1.00 -1.00  1.00 -1.00  1.00  1.00 -1.00

     the symmetry operations in each class and the name of the first element:

     E        1
          identity                                               
     C2       2
          180 deg rotation - cart. axis [0,0,1]                  
     C2'      4
          180 deg rotation - cart. axis [1,0,0]                  
     C2''     3
          180 deg rotation - cart. axis [0,1,0]                  
     i        5
          inversion                                              
     s_v      6
          inv. 180 deg rotation - cart. axis [0,0,1]             
     s_v'     8
          inv. 180 deg rotation - cart. axis [1,0,0]             
     s_v''    7
          inv. 180 deg rotation - cart. axis [0,1,0]             

   Cartesian axes

     site n.     atom                  positions (alat units)
         1        Se     tau(   1) = (   0.8549563   0.0902947   0.1906105  )
         2        Sn     tau(   2) = (   0.1165395   0.0902947   0.0442901  )
         3        Se     tau(   3) = (   0.6450437   0.2708842   0.3878285  )
         4        Sn     tau(   4) = (   0.3834605   0.2708842   0.2415081  )
         5        Se     tau(   5) = (   0.3549563   0.0902947   0.0066076  )
         6        Sn     tau(   6) = (   0.6165395   0.0902947   0.1529280  )
         7        Se     tau(   7) = (   0.1450437   0.2708842   0.2038256  )
         8        Sn     tau(   8) = (   0.8834605   0.2708842   0.3501460  )

     --------------------------------------------
     DFT-D3 Dispersion Correction (3-body terms):
     --------------------------------------------
       Reference C6 values for interpolation: 

         atom   Coordination number   C6
         Se         0.000           427.35
         Se         0.990           427.57
         Se         1.981           421.05
         Sn         0.000          1255.14
         Sn         0.951          1084.09
         Sn         1.950          1010.83
         Sn         2.926           818.29
         Sn         3.912           672.20

       Values used:

         atom   Coordination number  R0_AB[au]  C6      C8
         Se         3.412            3.332    421.05  29958.36
         Sn         4.106            3.957    672.80  84444.47
         Se         3.412            3.332    421.05  29958.36
         Sn         4.106            3.957    672.80  84444.47
         Se         3.412            3.332    421.05  29958.36
         Sn         4.106            3.957    672.80  84444.47
         Se         3.412            3.332    421.05  29958.36
         Sn         4.106            3.957    672.80  84444.47

         Molecular C6 ( Ry / a.u.^6 ) =     34513.28


   Crystallographic axes

     site n.     atom                  positions (cryst. coord.)
         1        Se     tau(   1) = (  0.8549563  0.2500000  0.4832481  )
         2        Sn     tau(   2) = (  0.1165395  0.2500000  0.1122870  )
         3        Se     tau(   3) = (  0.6450437  0.7500000  0.9832481  )
         4        Sn     tau(   4) = (  0.3834605  0.7500000  0.6122870  )
         5        Se     tau(   5) = (  0.3549563  0.2500000  0.0167519  )
         6        Sn     tau(   6) = (  0.6165395  0.2500000  0.3877130  )
         7        Se     tau(   7) = (  0.1450437  0.7500000  0.5167519  )
         8        Sn     tau(   8) = (  0.8834605  0.7500000  0.8877130  )

     number of k points=    32
                       cart. coord. in units 2pi/alat
        k(    1) = (   0.1666667   0.1730444   0.1584541), wk =   0.0833333
        k(    2) = (   0.1666667   0.1730444   0.4753622), wk =   0.0833333
        k(    3) = (   0.1666667   0.1730444   0.7922703), wk =   0.0833333
        k(    4) = (   0.1666667   0.1730444   1.1091785), wk =   0.0833333
        k(    5) = (   0.1666667   0.5191333   0.1584541), wk =   0.0833333
        k(    6) = (   0.1666667   0.5191333   0.4753622), wk =   0.0833333
        k(    7) = (   0.1666667   0.5191333   0.7922703), wk =   0.0833333
        k(    8) = (   0.1666667   0.5191333   1.1091785), wk =   0.0833333
        k(    9) = (   0.1666667   0.8652221   0.1584541), wk =   0.0833333
        k(   10) = (   0.1666667   0.8652221   0.4753622), wk =   0.0833333
        k(   11) = (   0.1666667   0.8652221   0.7922703), wk =   0.0833333
        k(   12) = (   0.1666667   0.8652221   1.1091785), wk =   0.0833333
        k(   13) = (   0.1666667   1.2113110   0.1584541), wk =   0.0833333
        k(   14) = (   0.1666667   1.2113110   0.4753622), wk =   0.0833333
        k(   15) = (   0.1666667   1.2113110   0.7922703), wk =   0.0833333
        k(   16) = (   0.1666667   1.2113110   1.1091785), wk =   0.0833333
        k(   17) = (  -0.5000000   0.1730444   0.1584541), wk =   0.0416667
        k(   18) = (  -0.5000000   0.1730444   0.4753622), wk =   0.0416667
        k(   19) = (  -0.5000000   0.1730444   0.7922703), wk =   0.0416667
        k(   20) = (  -0.5000000   0.1730444   1.1091785), wk =   0.0416667
        k(   21) = (  -0.5000000   0.5191333   0.1584541), wk =   0.0416667
        k(   22) = (  -0.5000000   0.5191333   0.4753622), wk =   0.0416667
        k(   23) = (  -0.5000000   0.5191333   0.7922703), wk =   0.0416667
        k(   24) = (  -0.5000000   0.5191333   1.1091785), wk =   0.0416667
        k(   25) = (  -0.5000000   0.8652221   0.1584541), wk =   0.0416667
        k(   26) = (  -0.5000000   0.8652221   0.4753622), wk =   0.0416667
        k(   27) = (  -0.5000000   0.8652221   0.7922703), wk =   0.0416667
        k(   28) = (  -0.5000000   0.8652221   1.1091785), wk =   0.0416667
        k(   29) = (  -0.5000000   1.2113110   0.1584541), wk =   0.0416667
        k(   30) = (  -0.5000000   1.2113110   0.4753622), wk =   0.0416667
        k(   31) = (  -0.5000000   1.2113110   0.7922703), wk =   0.0416667
        k(   32) = (  -0.5000000   1.2113110   1.1091785), wk =   0.0416667

                       cryst. coord.
        k(    1) = (   0.1666667   0.0625000   0.0625000), wk =   0.0833333
        k(    2) = (   0.1666667   0.0625000   0.1875000), wk =   0.0833333
        k(    3) = (   0.1666667   0.0625000   0.3125000), wk =   0.0833333
        k(    4) = (   0.1666667   0.0625000   0.4375000), wk =   0.0833333
        k(    5) = (   0.1666667   0.1875000   0.0625000), wk =   0.0833333
        k(    6) = (   0.1666667   0.1875000   0.1875000), wk =   0.0833333
        k(    7) = (   0.1666667   0.1875000   0.3125000), wk =   0.0833333
        k(    8) = (   0.1666667   0.1875000   0.4375000), wk =   0.0833333
        k(    9) = (   0.1666667   0.3125000   0.0625000), wk =   0.0833333
        k(   10) = (   0.1666667   0.3125000   0.1875000), wk =   0.0833333
        k(   11) = (   0.1666667   0.3125000   0.3125000), wk =   0.0833333
        k(   12) = (   0.1666667   0.3125000   0.4375000), wk =   0.0833333
        k(   13) = (   0.1666667   0.4375000   0.0625000), wk =   0.0833333
        k(   14) = (   0.1666667   0.4375000   0.1875000), wk =   0.0833333
        k(   15) = (   0.1666667   0.4375000   0.3125000), wk =   0.0833333
        k(   16) = (   0.1666667   0.4375000   0.4375000), wk =   0.0833333
        k(   17) = (  -0.5000000   0.0625000   0.0625000), wk =   0.0416667
        k(   18) = (  -0.5000000   0.0625000   0.1875000), wk =   0.0416667
        k(   19) = (  -0.5000000   0.0625000   0.3125000), wk =   0.0416667
        k(   20) = (  -0.5000000   0.0625000   0.4375000), wk =   0.0416667
        k(   21) = (  -0.5000000   0.1875000   0.0625000), wk =   0.0416667
        k(   22) = (  -0.5000000   0.1875000   0.1875000), wk =   0.0416667
        k(   23) = (  -0.5000000   0.1875000   0.3125000), wk =   0.0416667
[...]

   -13.7525 -13.7525 -13.7491 -13.7491 -13.7418 -13.7418 -13.7399 -13.7399
   -13.7295 -13.7295 -13.7158 -13.7158 -13.7103 -13.7103 -13.6913 -13.6913
   -13.6892 -13.6892 -13.6743 -13.6743  -5.2391  -5.2391  -4.9186  -4.9186
     0.0140   0.0140   1.0735   1.0735   3.9549   3.9549   4.3544   4.3544
     5.0574   5.0574   5.6019   5.6019   6.2767   6.2767   6.8310   6.8310

     occupation numbers 
     1.0000   1.0000   1.0000   1.0000   1.0000   1.0000   1.0000   1.0000
     1.0000   1.0000   1.0000   1.0000   1.0000   1.0000   1.0000   1.0000
     1.0000   1.0000   1.0000   1.0000   1.0000   1.0000   1.0000   1.0000
     1.0000   1.0000   1.0000   1.0000   1.0000   1.0000   1.0000   1.0000
     1.0000   1.0000   1.0000   1.0000   1.0000   1.0000   1.0000   1.0000

          k =-0.5000 0.8652 0.1585 (  8842 PWs)   bands (ev):

   -13.7516 -13.7516 -13.7469 -13.7469 -13.7393 -13.7393 -13.7374 -13.7374
   -13.7305 -13.7305 -13.7210 -13.7210 -13.7101 -13.7101 -13.6966 -13.6966
   -13.6841 -13.6841 -13.6752 -13.6752  -5.4480  -5.4480  -4.7648  -4.7648
     0.2594   0.2594   1.1118   1.1118   4.0613   4.0613   4.5986   4.5986
     5.4642   5.4642   5.6301   5.6301   6.1715   6.1715   6.9904   6.9904

     occupation numbers 
     1.0000   1.0000   1.0000   1.0000   1.0000   1.0000   1.0000   1.0000
     1.0000   1.0000   1.0000   1.0000   1.0000   1.0000   1.0000   1.0000
     1.0000   1.0000   1.0000   1.0000   1.0000   1.0000   1.0000   1.0000
     1.0000   1.0000   1.0000   1.0000   1.0000   1.0000   1.0000   1.0000
     1.0000   1.0000   1.0000   1.0000   1.0000   1.0000   1.0000   1.0000

          k =-0.5000 0.8652 0.4754 (  8844 PWs)   bands (ev):

   -13.7534 -13.7534 -13.7486 -13.7486 -13.7394 -13.7394 -13.7366 -13.7366
   -13.7299 -13.7299 -13.7200 -13.7200 -13.7093 -13.7093 -13.6963 -13.6963
   -13.6844 -13.6844 -13.6751 -13.6751  -5.3582  -5.3582  -4.7580  -4.7580
     0.3153   0.3153   1.1085   1.1085   3.6143   3.6143   4.4002   4.4002
     4.8771   4.8771   5.8833   5.8833   6.0963   6.0963   6.8850   6.8850

     occupation numbers 
     1.0000   1.0000   1.0000   1.0000   1.0000   1.0000   1.0000   1.0000
     1.0000   1.0000   1.0000   1.0000   1.0000   1.0000   1.0000   1.0000
     1.0000   1.0000   1.0000   1.0000   1.0000   1.0000   1.0000   1.0000
     1.0000   1.0000   1.0000   1.0000   1.0000   1.0000   1.0000   1.0000
     1.0000   1.0000   1.0000   1.0000   1.0000   1.0000   1.0000   1.0000

          k =-0.5000 0.8652 0.7923 (  8846 PWs)   bands (ev):

   -13.7557 -13.7557 -13.7510 -13.7510 -13.7392 -13.7392 -13.7359 -13.7359
   -13.7292 -13.7292 -13.7187 -13.7187 -13.7079 -13.7079 -13.6958 -13.6958
   -13.6847 -13.6847 -13.6749 -13.6749  -5.2056  -5.2056  -4.7700  -4.7700
     0.3500   0.3500   1.1164   1.1164   3.2663   3.2663   4.0690   4.0690
     4.6871   4.6871   5.3593   5.3593   5.9355   5.9355   6.7244   6.7244

     occupation numbers 
     1.0000   1.0000   1.0000   1.0000   1.0000   1.0000   1.0000   1.0000
     1.0000   1.0000   1.0000   1.0000   1.0000   1.0000   1.0000   1.0000
     1.0000   1.0000   1.0000   1.0000   1.0000   1.0000   1.0000   1.0000
     1.0000   1.0000   1.0000   1.0000   1.0000   1.0000   1.0000   1.0000
     1.0000   1.0000   1.0000   1.0000   1.0000   1.0000   1.0000   1.0000

          k =-0.5000 0.8652 1.1092 (  8840 PWs)   bands (ev):

   -13.7574 -13.7574 -13.7527 -13.7527 -13.7391 -13.7391 -13.7356 -13.7356
   -13.7288 -13.7288 -13.7179 -13.7179 -13.7066 -13.7066 -13.6954 -13.6954
   -13.6849 -13.6849 -13.6748 -13.6748  -5.0508  -5.0508  -4.8222  -4.8222
     0.3272   0.3272   1.1447   1.1447   3.2788   3.2788   3.6340   3.6340
     4.6851   4.6851   4.9950   4.9950   5.8836   5.8836   6.3863   6.3863

     occupation numbers 
     1.0000   1.0000   1.0000   1.0000   1.0000   1.0000   1.0000   1.0000
     1.0000   1.0000   1.0000   1.0000   1.0000   1.0000   1.0000   1.0000
     1.0000   1.0000   1.0000   1.0000   1.0000   1.0000   1.0000   1.0000
     1.0000   1.0000   1.0000   1.0000   1.0000   1.0000   1.0000   1.0000
     1.0000   1.0000   1.0000   1.0000   1.0000   1.0000   1.0000   1.0000

          k =-0.5000 1.2113 0.1585 (  8852 PWs)   bands (ev):

   -13.7528 -13.7528 -13.7511 -13.7511 -13.7357 -13.7357 -13.7351 -13.7351
   -13.7270 -13.7270 -13.7228 -13.7228 -13.7068 -13.7068 -13.7022 -13.7022
   -13.6800 -13.6800 -13.6768 -13.6768  -5.1315  -5.1315  -4.8765  -4.8765
     0.2126   0.2126   0.5137   0.5137   4.5263   4.5263   4.8731   4.8731
     5.3651   5.3651   5.6018   5.6018   6.2915   6.2915   6.6426   6.6426

     occupation numbers 
     1.0000   1.0000   1.0000   1.0000   1.0000   1.0000   1.0000   1.0000
     1.0000   1.0000   1.0000   1.0000   1.0000   1.0000   1.0000   1.0000
     1.0000   1.0000   1.0000   1.0000   1.0000   1.0000   1.0000   1.0000
     1.0000   1.0000   1.0000   1.0000   1.0000   1.0000   1.0000   1.0000
     1.0000   1.0000   1.0000   1.0000   1.0000   1.0000   1.0000   1.0000

          k =-0.5000 1.2113 0.4754 (  8850 PWs)   bands (ev):

   -13.7549 -13.7549 -13.7532 -13.7532 -13.7357 -13.7357 -13.7346 -13.7346
   -13.7263 -13.7263 -13.7223 -13.7223 -13.7058 -13.7058 -13.7014 -13.7014
   -13.6801 -13.6801 -13.6767 -13.6767  -5.0662  -5.0662  -4.8427  -4.8427
     0.3461   0.3461   0.6205   0.6205   3.9002   3.9002   4.4212   4.4212
     4.9508   4.9508   5.3926   5.3926   6.0499   6.0499   6.4833   6.4833

     occupation numbers 
     1.0000   1.0000   1.0000   1.0000   1.0000   1.0000   1.0000   1.0000
     1.0000   1.0000   1.0000   1.0000   1.0000   1.0000   1.0000   1.0000
     1.0000   1.0000   1.0000   1.0000   1.0000   1.0000   1.0000   1.0000
     1.0000   1.0000   1.0000   1.0000   1.0000   1.0000   1.0000   1.0000
     1.0000   1.0000   1.0000   1.0000   1.0000   1.0000   1.0000   1.0000

          k =-0.5000 1.2113 0.7923 (  8834 PWs)   bands (ev):

   -13.7579 -13.7579 -13.7561 -13.7561 -13.7358 -13.7358 -13.7343 -13.7343
   -13.7253 -13.7253 -13.7216 -13.7216 -13.7042 -13.7042 -13.7002 -13.7002
   -13.6802 -13.6802 -13.6766 -13.6766  -4.9625  -4.9625  -4.8010  -4.8010
     0.5464   0.5464   0.8046   0.8046   3.3301   3.3301   3.8413   3.8413
     4.3934   4.3934   4.8492   4.8492   5.9385   5.9385   6.3082   6.3082

     occupation numbers 
     1.0000   1.0000   1.0000   1.0000   1.0000   1.0000   1.0000   1.0000
     1.0000   1.0000   1.0000   1.0000   1.0000   1.0000   1.0000   1.0000
     1.0000   1.0000   1.0000   1.0000   1.0000   1.0000   1.0000   1.0000
     1.0000   1.0000   1.0000   1.0000   1.0000   1.0000   1.0000   1.0000
     1.0000   1.0000   1.0000   1.0000   1.0000   1.0000   1.0000   1.0000

          k =-0.5000 1.2113 1.1092 (  8830 PWs)   bands (ev):

   -13.7599 -13.7599 -13.7581 -13.7581 -13.7360 -13.7360 -13.7342 -13.7342
   -13.7246 -13.7246 -13.7210 -13.7210 -13.7029 -13.7029 -13.6993 -13.6993
   -13.6802 -13.6802 -13.6766 -13.6766  -4.8706  -4.8706  -4.7860  -4.7860
     0.6791   0.6791   0.9882   0.9882   3.1278   3.1278   3.3755   3.3755
     4.0289   4.0289   4.3299   4.3299   6.0332   6.0332   6.2184   6.2184

     occupation numbers 
     1.0000   1.0000   1.0000   1.0000   1.0000   1.0000   1.0000   1.0000
     1.0000   1.0000   1.0000   1.0000   1.0000   1.0000   1.0000   1.0000
     1.0000   1.0000   1.0000   1.0000   1.0000   1.0000   1.0000   1.0000
     1.0000   1.0000   1.0000   1.0000   1.0000   1.0000   1.0000   1.0000
     1.0000   1.0000   1.0000   1.0000   1.0000   1.0000   1.0000   1.0000

     highest occupied level (ev):     7.3959

!    total energy              =    -827.74799537 Ry
     estimated scf accuracy    <          8.6E-10 Ry

     The total energy is the sum of the following terms:
     one-electron contribution =    -266.48527072 Ry
     hartree contribution      =     182.42579685 Ry
     xc contribution           =    -308.98356519 Ry
     ewald contribution        =    -434.58518412 Ry
     DFT-D3 Dispersion         =      -0.11977218 Ry

     convergence has been achieved in  11 iterations

     Forces acting on atoms (cartesian axes, Ry/au):

     atom    1 type  2   force =    -0.00004135   -0.00000000   -0.00040688
     atom    2 type  1   force =    -0.00000707    0.00000000   -0.00002100
     atom    3 type  2   force =     0.00004135   -0.00000000   -0.00040688
     atom    4 type  1   force =     0.00000707    0.00000000   -0.00002100
     atom    5 type  2   force =    -0.00004135    0.00000000    0.00040688
     atom    6 type  1   force =    -0.00000707    0.00000000    0.00002100
     atom    7 type  2   force =     0.00004135    0.00000000    0.00040688
     atom    8 type  1   force =     0.00000707    0.00000000    0.00002100
     The non-local contrib.  to forces
     atom    1 type  2   force =    -0.10305020    0.00000000    0.11351883
     atom    2 type  1   force =     0.34587046    0.00000000    0.30342080
     atom    3 type  2   force =     0.10305020    0.00000000    0.11351883
     atom    4 type  1   force =    -0.34587046    0.00000000    0.30342080
     atom    5 type  2   force =    -0.10305020    0.00000000   -0.11351883
     atom    6 type  1   force =     0.34587046    0.00000000   -0.30342080
     atom    7 type  2   force =     0.10305020    0.00000000   -0.11351883
     atom    8 type  1   force =    -0.34587046    0.00000000   -0.30342080
     The ionic contribution  to forces
     atom    1 type  2   force =     1.14652820    0.00000000   -1.31153196
     atom    2 type  1   force =    -0.60889419    0.00000000   -0.74633219
     atom    3 type  2   force =    -1.14652820    0.00000000   -1.31153196
     atom    4 type  1   force =     0.60889419    0.00000000   -0.74633219
     atom    5 type  2   force =     1.14652820    0.00000000    1.31153196
     atom    6 type  1   force =    -0.60889419    0.00000000    0.74633219
     atom    7 type  2   force =    -1.14652820    0.00000000    1.31153196
     atom    8 type  1   force =     0.60889419   -0.00000000    0.74633219
     The local contribution  to forces
     atom    1 type  2   force =    -1.05437437    0.00000000    1.20850424
     atom    2 type  1   force =     0.26983754   -0.00000000    0.44690194
     atom    3 type  2   force =     1.05437437    0.00000000    1.20850424
     atom    4 type  1   force =    -0.26983754   -0.00000000    0.44690194
     atom    5 type  2   force =    -1.05437437    0.00000000   -1.20850424
     atom    6 type  1   force =     0.26983754   -0.00000000   -0.44690194
     atom    7 type  2   force =     1.05437437   -0.00000000   -1.20850424
     atom    8 type  1   force =    -0.26983754    0.00000000   -0.44690194
     The core correction contribution to forces
     atom    1 type  2   force =     0.01155216   -0.00000000   -0.01255989
     atom    2 type  1   force =    -0.00627923   -0.00000000   -0.00500257
     atom    3 type  2   force =    -0.01155216   -0.00000000   -0.01255989
     atom    4 type  1   force =     0.00627923   -0.00000000   -0.00500257
     atom    5 type  2   force =     0.01155216   -0.00000000    0.01255989
     atom    6 type  1   force =    -0.00627923   -0.00000000    0.00500257
     atom    7 type  2   force =    -0.01155216   -0.00000000    0.01255989
     atom    8 type  1   force =     0.00627923    0.00000000    0.00500257
     The Hubbard contrib.    to forces
     atom    1 type  2   force =     0.00000000    0.00000000    0.00000000
     atom    2 type  1   force =     0.00000000    0.00000000    0.00000000
     atom    3 type  2   force =     0.00000000    0.00000000    0.00000000
     atom    4 type  1   force =     0.00000000    0.00000000    0.00000000
     atom    5 type  2   force =     0.00000000    0.00000000    0.00000000
     atom    6 type  1   force =     0.00000000    0.00000000    0.00000000
     atom    7 type  2   force =     0.00000000    0.00000000    0.00000000
     atom    8 type  1   force =     0.00000000    0.00000000    0.00000000
     The SCF correction term to forces
     atom    1 type  2   force =    -0.00001863   -0.00000000    0.00000182
     atom    2 type  1   force =     0.00008558    0.00000000    0.00001987
     atom    3 type  2   force =     0.00001863    0.00000000    0.00000182
     atom    4 type  1   force =    -0.00008558    0.00000000    0.00001987
     atom    5 type  2   force =    -0.00001863   -0.00000000   -0.00000182
     atom    6 type  1   force =     0.00008558    0.00000000   -0.00001987
     atom    7 type  2   force =     0.00001863    0.00000000   -0.00000182
     atom    8 type  1   force =    -0.00008558   -0.00000000   -0.00001987

     DFT-D3 dispersion contribution to forces:
     atom    1 type  2   force =    -0.00067853    0.00000000    0.00166007
     atom    2 type  1   force =    -0.00062722    0.00000000    0.00097115
     atom    3 type  2   force =     0.00067853    0.00000000    0.00166007
     atom    4 type  1   force =     0.00062722   -0.00000000    0.00097115
     atom    5 type  2   force =    -0.00067853    0.00000000   -0.00166007
     atom    6 type  1   force =    -0.00062722   -0.00000000   -0.00097115
     atom    7 type  2   force =     0.00067853   -0.00000000   -0.00166007
     atom    8 type  1   force =     0.00062722   -0.00000000   -0.00097115

     Total force =     0.000819     Total SCF correction =     0.000180

     DFT-D3 dispersion Force =     0.004267
     SCF correction compared to forces is large: reduce conv_thr to get better values


     Computing stress (Cartesian axis) and pressure

          total   stress  (Ry/bohr**3)                   (kbar)     P=       -0.09
   0.00000182   0.00000000   0.00000000            0.27        0.00        0.00
   0.00000000  -0.00000276   0.00000000            0.00       -0.41        0.00
   0.00000000   0.00000000  -0.00000081            0.00        0.00       -0.12

     kinetic stress (kbar)   7250.68      0.00      0.00
                                0.00   7214.48      0.00
                                0.00      0.00   7246.17

     local   stress (kbar)  -1247.17      0.00     -0.00
                                0.00  -1435.11      0.00
                               -0.00      0.00   1725.07

     nonloc. stress (kbar)   5642.11      0.00      0.00
                                0.00   5614.58      0.00
                                0.00      0.00   5616.95

     hartree stress (kbar)   6428.65     -0.00      0.00
                               -0.00   6499.13      0.00
                                0.00      0.00   5191.46

     exc-cor stress (kbar)  17229.32     -0.00     -0.00
                               -0.00  17228.29      0.00
                               -0.00      0.00  17227.61

     corecor stress (kbar) -21415.97      0.00     -0.00
                                0.00 -21413.88     -0.00
                               -0.00     -0.00 -21414.34

     ewald   stress (kbar) -13879.31      0.00     -0.00
                                0.00 -13699.26     -0.00
                               -0.00     -0.00 -15586.12

     hubbard stress (kbar)      0.00      0.00      0.00
                                0.00      0.00      0.00
                                0.00      0.00      0.00

     DFT-D   stress (kbar)     -8.04      0.00      0.00
                                0.00     -8.62      0.00
                                0.00     -0.00     -6.91

     XDM     stress (kbar)      0.00      0.00      0.00
                                0.00      0.00      0.00
                                0.00      0.00      0.00

     dft-nl  stress (kbar)      0.00      0.00      0.00
                                0.00      0.00      0.00
                                0.00      0.00      0.00

     TS-vdW  stress (kbar)      0.00      0.00      0.00
                                0.00      0.00      0.00
                                0.00      0.00      0.00

     MDB     stress (kbar)      0.00      0.00      0.00
                                0.00      0.00      0.00
                                0.00      0.00      0.00

     3D-RISM stress (kbar)      0.00      0.00      0.00
                                0.00      0.00      0.00
                                0.00      0.00      0.00


     Writing all to output data dir ./tmp/SnSe_pnma.save/ :
     XML data file, charge density, pseudopotentials, collected wavefunctions
 
     init_run     :      4.42s CPU      4.93s WALL (       2 calls)
     electrons    :    123.22s CPU    130.73s WALL (       2 calls)
     forces       :      2.14s CPU      2.52s WALL (       2 calls)
     force_dftd3  :      0.15s CPU      0.16s WALL (       2 calls)
     stress       :     18.86s CPU     19.76s WALL (       2 calls)
     stres_dftd3  :      0.14s CPU      0.16s WALL (       2 calls)

     Called by init_run:
     wfcinit      :      2.70s CPU      2.77s WALL (       2 calls)
     wfcinit:atom :      0.04s CPU      0.04s WALL (      22 calls)
     wfcinit:wfcr :      2.35s CPU      2.38s WALL (      22 calls)
     potinit      :      0.43s CPU      0.46s WALL (       2 calls)
     hinit0       :      0.54s CPU      0.56s WALL (       2 calls)

     Called by electrons:
     c_bands      :     93.10s CPU     94.07s WALL (      23 calls)
     sum_band     :     20.26s CPU     23.47s WALL (      23 calls)
     v_of_rho     :      3.65s CPU      3.69s WALL (      25 calls)
     v_h          :      0.28s CPU      0.28s WALL (      25 calls)
     v_xc         :      3.89s CPU      3.93s WALL (      29 calls)
     newd         :      6.25s CPU      9.75s WALL (      25 calls)
     mix_rho      :      0.37s CPU      0.39s WALL (      23 calls)
     energy_dftd3 :      0.10s CPU      0.10s WALL (       2 calls)

     Called by c_bands:
     init_us_2    :      2.54s CPU      2.60s WALL (     572 calls)
     cegterg      :     82.73s CPU     83.35s WALL (     253 calls)

     Called by sum_band:
     sum_band:wei :      0.00s CPU      0.00s WALL (      23 calls)
     sum_band:loo :     13.01s CPU     13.10s WALL (      23 calls)
     sum_band:buf :      0.16s CPU      0.16s WALL (     253 calls)
     sum_band:ini :      1.08s CPU      1.08s WALL (     253 calls)
     sum_band:cal :      1.50s CPU      1.51s WALL (     253 calls)
     sum_band:bec :      0.02s CPU      0.02s WALL (     253 calls)
     addusdens    :      6.34s CPU      9.39s WALL (      23 calls)
                                        0.00s GPU  (      23 calls)
     addusd:skk   :      0.03s CPU      0.03s WALL (      46 calls)
                                        0.00s GPU  (      46 calls)

     Called by *egterg:
     cdiaghg      :      2.04s CPU      2.04s WALL (    1216 calls)
     cegterg:over :      4.40s CPU      4.42s WALL (     963 calls)
     cegterg:upda :      2.44s CPU      2.46s WALL (     963 calls)
     cegterg:last :      6.59s CPU      6.59s WALL (     728 calls)
     h_psi        :     61.12s CPU     61.65s WALL (    1238 calls)
     s_psi        :      6.00s CPU      6.02s WALL (    1238 calls)
     g_psi        :      0.25s CPU      0.26s WALL (     963 calls)

     Called by h_psi:
     h_psi:calbec :      5.55s CPU      5.57s WALL (    1238 calls)
     vloc_psi     :     49.04s CPU     49.52s WALL (    1238 calls)
     add_vuspsi   :      6.05s CPU      6.07s WALL (    1238 calls)

     General routines
     calbec       :      7.75s CPU      7.78s WALL (    1601 calls)
     fft          :      2.00s CPU      2.02s WALL (     371 calls)
     ffts         :      0.05s CPU      0.05s WALL (      48 calls)
     fftw         :     32.59s CPU     32.90s WALL (   79060 calls)
     interpolate  :      0.19s CPU      0.19s WALL (      25 calls)
 
     Parallel routines
 
     PWSCF        :   2m29.21s CPU   2m40.33s WALL

 
   This run was terminated on:  13:58:29  19May2026            

=------------------------------------------------------------------------------=
   JOB DONE.
=------------------------------------------------------------------------------=
