
     Program PWSCF v.7.3.1 starts on 20May2026 at 15:45:45 

     This program is part of the open-source Quantum ESPRESSO suite
     for quantum simulation of materials; please cite
         "P. Giannozzi et al., J. Phys.:Condens. Matter 21 395502 (2009);
         "P. Giannozzi et al., J. Phys.:Condens. Matter 29 465901 (2017);
         "P. Giannozzi et al., J. Chem. Phys. 152 154105 (2020);
          URL http://www.quantum-espresso.org", 
     in publications or presentations arising from this work. More details at
     http://www.quantum-espresso.org/quote

     Parallel version (MPI & OpenMP), running on       6 processor cores
     Number of MPI processes:                 6
     Threads/MPI process:                     1

     MPI processes distributed on     1 nodes
     10709 MiB available memory on the printing compute node when the environment starts
 
     Waiting for input...
     Reading input from standard input

     Current dimensions of program PWSCF are:
     Max number of different atomic species (ntypx) = 10
     Max number of k-points (npk) =  40000
     Max angular momentum in pseudopotentials (lmaxx) =  4
 
     K-points division:     npool     =       3
     R & G space division:  proc/nbgrp/npool/nimage =       2
     Subspace diagonalization in iterative solution of the eigenvalue problem:
     a serial algorithm will be used

 
     Parallelization info
     --------------------
     sticks:   dense  smooth     PW     G-vecs:    dense   smooth      PW
     Min        2728    1086    317                99522    25151    3974
     Max        2729    1087    318                99525    25152    3975
     Sum        5457    2173    635               199047    50303    7949
 
     Using Slab Decomposition
 


     bravais-lattice index     =            8
     lattice parameter (alat)  =      21.7130  a.u.
     unit-cell volume          =    1473.4470 (a.u.)^3
     number of atoms/cell      =            8
     number of atomic types    =            2
     number of electrons       =        80.00
     number of Kohn-Sham states=           40
     kinetic-energy cutoff     =      40.0000  Ry
     charge density cutoff     =     400.0000  Ry
     scf convergence threshold =      1.0E-08
     mixing beta               =       0.7000
     number of iterations used =            8  plain     mixing
     Exchange-correlation= SLA  PW   PBE  PBE
                           (   1   4   3   4   0   0   0)

     celldm(1)=  21.712953  celldm(2)=   0.363046  celldm(3)=   0.396475
     celldm(4)=   0.000000  celldm(5)=   0.000000  celldm(6)=   0.000000

     crystal axes: (cart. coord. in units of alat)
               a(1) = (   1.000000   0.000000   0.000000 )  
               a(2) = (   0.000000   0.363046   0.000000 )  
               a(3) = (   0.000000   0.000000   0.396475 )  

     reciprocal axes: (cart. coord. in units 2 pi/alat)
               b(1) = (  1.000000  0.000000  0.000000 )  
               b(2) = (  0.000000  2.754471  0.000000 )  
               b(3) = (  0.000000  0.000000  2.522226 )  


     PseudoPot. # 1 for Sn read from file:
     ../pseudo/Sn_pbe_v1.uspp.F.UPF
     MD5 check sum: 4cf58ce39ec5d5d420df3dd08604eb00
     Pseudo is Ultrasoft + core correction, Zval = 14.0
     Generated by new atomic code, or converted to UPF format
     Using radial grid of  891 points,  6 beta functions with: 
                l(1) =   0
                l(2) =   0
                l(3) =   1
                l(4) =   1
                l(5) =   2
                l(6) =   2
     Q(r) pseudized with  6 coefficients,  rinner =    1.200   1.200   1.200
                                                       1.200   1.200

     PseudoPot. # 2 for Se read from file:
     ../pseudo/Se_pbe_v1.uspp.F.UPF
     MD5 check sum: 1b3568f3a8ae88f9a2a0ad0698632c85
     Pseudo is Ultrasoft + core correction, Zval =  6.0
     Generated by new atomic code, or converted to UPF format
     Using radial grid of  877 points,  6 beta functions with: 
                l(1) =   0
                l(2) =   0
                l(3) =   1
                l(4) =   1
                l(5) =   2
                l(6) =   2
     Q(r) pseudized with  8 coefficients,  rinner =    1.300   1.300   1.300
                                                       1.300   1.300

     atomic species   valence    mass     pseudopotential
     Sn               14.00   118.71000     Sn( 1.00)
     Se                6.00    78.97100     Se( 1.00)

      8 Sym. Ops., with inversion, found ( 6 have fractional translation)


                                    s                        frac. trans.

      isym =  1     identity                                     

 cryst.   s( 1) = (     1          0          0      )
                  (     0          1          0      )
                  (     0          0          1      )

 cart.    s( 1) = (  1.0000000  0.0000000  0.0000000 )
                  (  0.0000000  1.0000000  0.0000000 )
                  (  0.0000000  0.0000000  1.0000000 )


      isym =  2     180 deg rotation - cart. axis [0,0,1]        

 cryst.   s( 2) = (    -1          0          0      )    f =(  0.5000000 )
                  (     0         -1          0      )       (  0.0000000 )
                  (     0          0          1      )       (  0.5000000 )

 cart.    s( 2) = ( -1.0000000  0.0000000  0.0000000 )    f =(  0.5000000 )
                  (  0.0000000 -1.0000000  0.0000000 )       (  0.0000000 )
                  (  0.0000000  0.0000000  1.0000000 )       (  0.1982376 )


      isym =  3     180 deg rotation - cart. axis [0,1,0]        

 cryst.   s( 3) = (    -1          0          0      )    f =(  0.0000000 )
                  (     0          1          0      )       (  0.5000000 )
                  (     0          0         -1      )       (  0.0000000 )

 cart.    s( 3) = ( -1.0000000  0.0000000  0.0000000 )    f =(  0.0000000 )
                  (  0.0000000  1.0000000  0.0000000 )       (  0.1815231 )
                  (  0.0000000  0.0000000 -1.0000000 )       (  0.0000000 )


      isym =  4     180 deg rotation - cart. axis [1,0,0]        

 cryst.   s( 4) = (     1          0          0      )    f =(  0.5000000 )
                  (     0         -1          0      )       (  0.5000000 )
                  (     0          0         -1      )       (  0.5000000 )

 cart.    s( 4) = (  1.0000000  0.0000000  0.0000000 )    f =(  0.5000000 )
                  (  0.0000000 -1.0000000  0.0000000 )       (  0.1815231 )
                  (  0.0000000  0.0000000 -1.0000000 )       (  0.1982376 )


      isym =  5     inversion                                    

 cryst.   s( 5) = (    -1          0          0      )
                  (     0         -1          0      )
                  (     0          0         -1      )

 cart.    s( 5) = ( -1.0000000  0.0000000  0.0000000 )
                  (  0.0000000 -1.0000000  0.0000000 )
                  (  0.0000000  0.0000000 -1.0000000 )


      isym =  6     inv. 180 deg rotation - cart. axis [0,0,1]   

 cryst.   s( 6) = (     1          0          0      )    f =(  0.5000000 )
                  (     0          1          0      )       (  0.0000000 )
                  (     0          0         -1      )       (  0.5000000 )

 cart.    s( 6) = (  1.0000000  0.0000000  0.0000000 )    f =(  0.5000000 )
                  (  0.0000000  1.0000000  0.0000000 )       (  0.0000000 )
                  (  0.0000000  0.0000000 -1.0000000 )       (  0.1982376 )


      isym =  7     inv. 180 deg rotation - cart. axis [0,1,0]   

 cryst.   s( 7) = (     1          0          0      )    f =(  0.0000000 )
                  (     0         -1          0      )       (  0.5000000 )
                  (     0          0          1      )       (  0.0000000 )

 cart.    s( 7) = (  1.0000000  0.0000000  0.0000000 )    f =(  0.0000000 )
                  (  0.0000000 -1.0000000  0.0000000 )       (  0.1815231 )
                  (  0.0000000  0.0000000  1.0000000 )       (  0.0000000 )


      isym =  8     inv. 180 deg rotation - cart. axis [1,0,0]   

 cryst.   s( 8) = (    -1          0          0      )    f =(  0.5000000 )
                  (     0          1          0      )       (  0.5000000 )
                  (     0          0          1      )       (  0.5000000 )

 cart.    s( 8) = ( -1.0000000  0.0000000  0.0000000 )    f =(  0.5000000 )
                  (  0.0000000  1.0000000  0.0000000 )       (  0.1815231 )
                  (  0.0000000  0.0000000  1.0000000 )       (  0.1982376 )


     point group D_2h (mmm) 
     there are  8 classes
     the character table:

       E     C2    C2'   C2''  i     s_v   s_v'  s_v''
A_g    1.00  1.00  1.00  1.00  1.00  1.00  1.00  1.00
B_1g   1.00  1.00 -1.00 -1.00  1.00  1.00 -1.00 -1.00
B_2g   1.00 -1.00  1.00 -1.00  1.00 -1.00  1.00 -1.00
B_3g   1.00 -1.00 -1.00  1.00  1.00 -1.00 -1.00  1.00
A_u    1.00  1.00  1.00  1.00 -1.00 -1.00 -1.00 -1.00
B_1u   1.00  1.00 -1.00 -1.00 -1.00 -1.00  1.00  1.00
B_2u   1.00 -1.00  1.00 -1.00 -1.00  1.00 -1.00  1.00
B_3u   1.00 -1.00 -1.00  1.00 -1.00  1.00  1.00 -1.00

     the symmetry operations in each class and the name of the first element:

     E        1
          identity                                               
     C2       2
          180 deg rotation - cart. axis [0,0,1]                  
     C2'      4
          180 deg rotation - cart. axis [1,0,0]                  
     C2''     3
          180 deg rotation - cart. axis [0,1,0]                  
     i        5
          inversion                                              
     s_v      6
          inv. 180 deg rotation - cart. axis [0,0,1]             
     s_v'     8
          inv. 180 deg rotation - cart. axis [1,0,0]             
     s_v''    7
          inv. 180 deg rotation - cart. axis [0,1,0]             

   Cartesian axes

     site n.     atom                  positions (alat units)
         1        Se     tau(   1) = (   0.8549563   0.0907615   0.1915959  )
         2        Sn     tau(   2) = (   0.1165395   0.0907615   0.0445190  )
         3        Se     tau(   3) = (   0.6450437   0.2722846   0.3898335  )
         4        Sn     tau(   4) = (   0.3834605   0.2722846   0.2427566  )
         5        Se     tau(   5) = (   0.3549563   0.0907615   0.0066417  )
         6        Sn     tau(   6) = (   0.6165395   0.0907615   0.1537186  )
         7        Se     tau(   7) = (   0.1450437   0.2722846   0.2048793  )
         8        Sn     tau(   8) = (   0.8834605   0.2722846   0.3519562  )

     --------------------------------------------
     DFT-D3 Dispersion Correction (3-body terms):
     --------------------------------------------
       Reference C6 values for interpolation: 

         atom   Coordination number   C6
         Se         0.000           427.35
         Se         0.990           427.57
         Se         1.981           421.05
         Sn         0.000          1255.14
         Sn         0.951          1084.09
         Sn         1.950          1010.83
         Sn         2.926           818.29
         Sn         3.912           672.20

       Values used:

         atom   Coordination number  R0_AB[au]  C6      C8
         Se         3.434            3.332    421.05  29958.36
         Sn         4.147            3.957    672.64  84423.54
         Se         3.434            3.332    421.05  29958.36
         Sn         4.147            3.957    672.64  84423.54
         Se         3.434            3.332    421.05  29958.36
         Sn         4.147            3.957    672.64  84423.54
         Se         3.434            3.332    421.05  29958.36
         Sn         4.147            3.957    672.64  84423.54

         Molecular C6 ( Ry / a.u.^6 ) =     34508.54


   Crystallographic axes

     site n.     atom                  positions (cryst. coord.)
         1        Se     tau(   1) = (  0.8549563  0.2500000  0.4832481  )
         2        Sn     tau(   2) = (  0.1165395  0.2500000  0.1122870  )
         3        Se     tau(   3) = (  0.6450437  0.7500000  0.9832481  )
         4        Sn     tau(   4) = (  0.3834605  0.7500000  0.6122870  )
         5        Se     tau(   5) = (  0.3549563  0.2500000  0.0167519  )
         6        Sn     tau(   6) = (  0.6165395  0.2500000  0.3877130  )
         7        Se     tau(   7) = (  0.1450437  0.7500000  0.5167519  )
         8        Sn     tau(   8) = (  0.8834605  0.7500000  0.8877130  )

     number of k points=    32
                       cart. coord. in units 2pi/alat
        k(    1) = (   0.1666667   0.1721544   0.1576391), wk =   0.0833333
        k(    2) = (   0.1666667   0.1721544   0.4729174), wk =   0.0833333
        k(    3) = (   0.1666667   0.1721544   0.7881956), wk =   0.0833333
        k(    4) = (   0.1666667   0.1721544   1.1034738), wk =   0.0833333
        k(    5) = (   0.1666667   0.5164633   0.1576391), wk =   0.0833333
        k(    6) = (   0.1666667   0.5164633   0.4729174), wk =   0.0833333
        k(    7) = (   0.1666667   0.5164633   0.7881956), wk =   0.0833333
        k(    8) = (   0.1666667   0.5164633   1.1034738), wk =   0.0833333
        k(    9) = (   0.1666667   0.8607722   0.1576391), wk =   0.0833333
        k(   10) = (   0.1666667   0.8607722   0.4729174), wk =   0.0833333
        k(   11) = (   0.1666667   0.8607722   0.7881956), wk =   0.0833333
        k(   12) = (   0.1666667   0.8607722   1.1034738), wk =   0.0833333
        k(   13) = (   0.1666667   1.2050810   0.1576391), wk =   0.0833333
        k(   14) = (   0.1666667   1.2050810   0.4729174), wk =   0.0833333
        k(   15) = (   0.1666667   1.2050810   0.7881956), wk =   0.0833333
        k(   16) = (   0.1666667   1.2050810   1.1034738), wk =   0.0833333
        k(   17) = (  -0.5000000   0.1721544   0.1576391), wk =   0.0416667
        k(   18) = (  -0.5000000   0.1721544   0.4729174), wk =   0.0416667
        k(   19) = (  -0.5000000   0.1721544   0.7881956), wk =   0.0416667
        k(   20) = (  -0.5000000   0.1721544   1.1034738), wk =   0.0416667
        k(   21) = (  -0.5000000   0.5164633   0.1576391), wk =   0.0416667
        k(   22) = (  -0.5000000   0.5164633   0.4729174), wk =   0.0416667
        k(   23) = (  -0.5000000   0.5164633   0.7881956), wk =   0.0416667
        k(   24) = (  -0.5000000   0.5164633   1.1034738), wk =   0.0416667
        k(   25) = (  -0.5000000   0.8607722   0.1576391), wk =   0.0416667
        k(   26) = (  -0.5000000   0.8607722   0.4729174), wk =   0.0416667
        k(   27) = (  -0.5000000   0.8607722   0.7881956), wk =   0.0416667
        k(   28) = (  -0.5000000   0.8607722   1.1034738), wk =   0.0416667
        k(   29) = (  -0.5000000   1.2050810   0.1576391), wk =   0.0416667
        k(   30) = (  -0.5000000   1.2050810   0.4729174), wk =   0.0416667
        k(   31) = (  -0.5000000   1.2050810   0.7881956), wk =   0.0416667
        k(   32) = (  -0.5000000   1.2050810   1.1034738), wk =   0.0416667

                       cryst. coord.
        k(    1) = (   0.1666667   0.0625000   0.0625000), wk =   0.0833333
        k(    2) = (   0.1666667   0.0625000   0.1875000), wk =   0.0833333
        k(    3) = (   0.1666667   0.0625000   0.3125000), wk =   0.0833333
        k(    4) = (   0.1666667   0.0625000   0.4375000), wk =   0.0833333
        k(    5) = (   0.1666667   0.1875000   0.0625000), wk =   0.0833333
        k(    6) = (   0.1666667   0.1875000   0.1875000), wk =   0.0833333
        k(    7) = (   0.1666667   0.1875000   0.3125000), wk =   0.0833333
        k(    8) = (   0.1666667   0.1875000   0.4375000), wk =   0.0833333
        k(    9) = (   0.1666667   0.3125000   0.0625000), wk =   0.0833333
        k(   10) = (   0.1666667   0.3125000   0.1875000), wk =   0.0833333
        k(   11) = (   0.1666667   0.3125000   0.3125000), wk =   0.0833333
        k(   12) = (   0.1666667   0.3125000   0.4375000), wk =   0.0833333
        k(   13) = (   0.1666667   0.4375000   0.0625000), wk =   0.0833333
        k(   14) = (   0.1666667   0.4375000   0.1875000), wk =   0.0833333
        k(   15) = (   0.1666667   0.4375000   0.3125000), wk =   0.0833333
        k(   16) = (   0.1666667   0.4375000   0.4375000), wk =   0.0833333
        k(   17) = (  -0.5000000   0.0625000   0.0625000), wk =   0.0416667
        k(   18) = (  -0.5000000   0.0625000   0.1875000), wk =   0.0416667
        k(   19) = (  -0.5000000   0.0625000   0.3125000), wk =   0.0416667
        k(   20) = (  -0.5000000   0.0625000   0.4375000), wk =   0.0416667
        k(   21) = (  -0.5000000   0.1875000   0.0625000), wk =   0.0416667
        k(   22) = (  -0.5000000   0.1875000   0.1875000), wk =   0.0416667
        k(   23) = (  -0.5000000   0.1875000   0.3125000), wk =   0.0416667
        k(   24) = (  -0.5000000   0.1875000   0.4375000), wk =   0.0416667
        k(   25) = (  -0.5000000   0.3125000   0.0625000), wk =   0.0416667
        k(   26) = (  -0.5000000   0.3125000   0.1875000), wk =   0.0416667
        k(   27) = (  -0.5000000   0.3125000   0.3125000), wk =   0.0416667
        k(   28) = (  -0.5000000   0.3125000   0.4375000), wk =   0.0416667
        k(   29) = (  -0.5000000   0.4375000   0.0625000), wk =   0.0416667
        k(   30) = (  -0.5000000   0.4375000   0.1875000), wk =   0.0416667
        k(   31) = (  -0.5000000   0.4375000   0.3125000), wk =   0.0416667
        k(   32) = (  -0.5000000   0.4375000   0.4375000), wk =   0.0416667

     Dense  grid:   199047 G-vectors     FFT dimensions: ( 144,  54,  60)

     Smooth grid:    50303 G-vectors     FFT dimensions: (  90,  32,  36)

     Dynamical RAM for                 wfc:       1.92 MB

     Dynamical RAM for     wfc (w. buffer):      23.05 MB

     Dynamical RAM for           str. fact:       3.04 MB

     Dynamical RAM for           local pot:       0.00 MB

     Dynamical RAM for          nlocal pot:       6.91 MB

     Dynamical RAM for                qrad:       3.21 MB

     Dynamical RAM for          rho,v,vnew:       9.90 MB

     Dynamical RAM for               rhoin:       3.30 MB

     Dynamical RAM for            rho*nmix:      24.30 MB

     Dynamical RAM for           G-vectors:       5.89 MB

     Dynamical RAM for          h,s,v(r/c):       0.29 MB

     Dynamical RAM for          <psi|beta>:       0.09 MB

     Dynamical RAM for                 psi:       3.84 MB

     Dynamical RAM for                hpsi:       3.84 MB

     Dynamical RAM for                spsi:       3.84 MB

     Dynamical RAM for      wfcinit/wfcrot:       5.06 MB

     Dynamical RAM for           addusdens:      97.19 MB

     Dynamical RAM for          addusforce:      99.99 MB

     Estimated static dynamical RAM per process >      68.75 MB

     Estimated max dynamical RAM per process >     193.04 MB

     Estimated total dynamical RAM >       1.04 GB

     Initial potential from superposition of free atoms

     starting charge      75.9995, renormalised to      80.0000
     Starting wfcs are   52 randomized atomic wfcs

     total cpu time spent up to now is        2.1 secs

     Self-consistent Calculation

     iteration #  1     ecut=    40.00 Ry     beta= 0.70
     Davidson diagonalization with overlap

---- Real-time Memory Report at c_bands before calling an iterative solver
           263 MiB given to the printing process from OS
             0 MiB allocation reported by mallinfo(arena+hblkhd)
         10088 MiB available memory on the node where the printing process lives
------------------
     ethr =  1.00E-02,  avg # of iterations =  2.0

     total cpu time spent up to now is        5.4 secs

     total energy              =    -826.62827737 Ry
     estimated scf accuracy    <       2.68648034 Ry

     iteration #  2     ecut=    40.00 Ry     beta= 0.70
     Davidson diagonalization with overlap

---- Real-time Memory Report at c_bands before calling an iterative solver
           328 MiB given to the printing process from OS
             0 MiB allocation reported by mallinfo(arena+hblkhd)
          9874 MiB available memory on the node where the printing process lives
------------------
     ethr =  3.36E-03,  avg # of iterations =  3.0

     total cpu time spent up to now is        8.9 secs

     total energy              =    -827.53565533 Ry
     estimated scf accuracy    <       0.99098473 Ry

     iteration #  3     ecut=    40.00 Ry     beta= 0.70
     Davidson diagonalization with overlap

---- Real-time Memory Report at c_bands before calling an iterative solver
           351 MiB given to the printing process from OS
             0 MiB allocation reported by mallinfo(arena+hblkhd)
          9739 MiB available memory on the node where the printing process lives
------------------
     ethr =  1.24E-03,  avg # of iterations =  2.5

     total cpu time spent up to now is       12.0 secs

     total energy              =    -827.73643424 Ry
     estimated scf accuracy    <       0.01019656 Ry

     iteration #  4     ecut=    40.00 Ry     beta= 0.70
     Davidson diagonalization with overlap

---- Real-time Memory Report at c_bands before calling an iterative solver
           355 MiB given to the printing process from OS
             0 MiB allocation reported by mallinfo(arena+hblkhd)
          9736 MiB available memory on the node where the printing process lives
------------------
     ethr =  1.27E-05,  avg # of iterations =  4.9

     total cpu time spent up to now is       15.9 secs

     total energy              =    -827.74295116 Ry
     estimated scf accuracy    <       0.00520262 Ry

     iteration #  5     ecut=    40.00 Ry     beta= 0.70
     Davidson diagonalization with overlap

---- Real-time Memory Report at c_bands before calling an iterative solver
           357 MiB given to the printing process from OS
             0 MiB allocation reported by mallinfo(arena+hblkhd)
          9730 MiB available memory on the node where the printing process lives
------------------
     ethr =  6.50E-06,  avg # of iterations =  3.0

     total cpu time spent up to now is       19.0 secs

     total energy              =    -827.74459476 Ry
     estimated scf accuracy    <       0.00068350 Ry

     iteration #  6     ecut=    40.00 Ry     beta= 0.70
     Davidson diagonalization with overlap

---- Real-time Memory Report at c_bands before calling an iterative solver
           358 MiB given to the printing process from OS
             0 MiB allocation reported by mallinfo(arena+hblkhd)
          9728 MiB available memory on the node where the printing process lives
------------------
     ethr =  8.54E-07,  avg # of iterations =  2.1

     total cpu time spent up to now is       22.2 secs

     total energy              =    -827.74456254 Ry
     estimated scf accuracy    <       0.00027635 Ry

     iteration #  7     ecut=    40.00 Ry     beta= 0.70
     Davidson diagonalization with overlap

---- Real-time Memory Report at c_bands before calling an iterative solver
           361 MiB given to the printing process from OS
             0 MiB allocation reported by mallinfo(arena+hblkhd)
          9723 MiB available memory on the node where the printing process lives
------------------
     ethr =  3.45E-07,  avg # of iterations =  2.0

     total cpu time spent up to now is       25.2 secs

     total energy              =    -827.74459984 Ry
     estimated scf accuracy    <       0.00001138 Ry

     iteration #  8     ecut=    40.00 Ry     beta= 0.70
     Davidson diagonalization with overlap

---- Real-time Memory Report at c_bands before calling an iterative solver
           362 MiB given to the printing process from OS
             0 MiB allocation reported by mallinfo(arena+hblkhd)
          9721 MiB available memory on the node where the printing process lives
------------------
     ethr =  1.42E-08,  avg # of iterations =  5.5

     total cpu time spent up to now is       29.7 secs

     total energy              =    -827.74461169 Ry
     estimated scf accuracy    <       0.00001173 Ry

     iteration #  9     ecut=    40.00 Ry     beta= 0.70
     Davidson diagonalization with overlap

---- Real-time Memory Report at c_bands before calling an iterative solver
           362 MiB given to the printing process from OS
             0 MiB allocation reported by mallinfo(arena+hblkhd)
          9722 MiB available memory on the node where the printing process lives
------------------
     ethr =  1.42E-08,  avg # of iterations =  2.0

     total cpu time spent up to now is       32.5 secs

     total energy              =    -827.74461312 Ry
     estimated scf accuracy    <       0.00000052 Ry

     iteration # 10     ecut=    40.00 Ry     beta= 0.70
     Davidson diagonalization with overlap

---- Real-time Memory Report at c_bands before calling an iterative solver
           365 MiB given to the printing process from OS
             0 MiB allocation reported by mallinfo(arena+hblkhd)
          9719 MiB available memory on the node where the printing process lives
------------------
     ethr =  6.48E-10,  avg # of iterations =  4.7

     total cpu time spent up to now is       36.1 secs

     total energy              =    -827.74461341 Ry
     estimated scf accuracy    <       0.00000003 Ry

     iteration # 11     ecut=    40.00 Ry     beta= 0.70
     Davidson diagonalization with overlap

---- Real-time Memory Report at c_bands before calling an iterative solver
           366 MiB given to the printing process from OS
             0 MiB allocation reported by mallinfo(arena+hblkhd)
          9719 MiB available memory on the node where the printing process lives
------------------
     ethr =  4.05E-11,  avg # of iterations =  5.3

     total cpu time spent up to now is       40.2 secs

     total energy              =    -827.74461342 Ry
     estimated scf accuracy    <       0.00000001 Ry

     iteration # 12     ecut=    40.00 Ry     beta= 0.70
     Davidson diagonalization with overlap

---- Real-time Memory Report at c_bands before calling an iterative solver
           366 MiB given to the printing process from OS
             0 MiB allocation reported by mallinfo(arena+hblkhd)
          9712 MiB available memory on the node where the printing process lives
------------------
     ethr =  1.50E-11,  avg # of iterations =  3.6

     total cpu time spent up to now is       43.4 secs

     End of self-consistent calculation

          k = 0.1667 0.1722 0.1576 (  6273 PWs)   bands (ev):

   -13.6903 -13.6812 -13.6773 -13.6742 -13.6738 -13.6716 -13.6676 -13.6654
   -13.6604 -13.6554 -13.6546 -13.6541 -13.6435 -13.6398 -13.6226 -13.6203
   -13.6154 -13.6142 -13.6053 -13.5997  -5.9495  -5.6651  -4.9668  -4.5806
     0.4025   1.2474   2.0976   2.4690   3.0429   4.2673   4.4066   4.6779
     4.9335   4.9940   5.5617   5.8752   6.1163   6.5093   6.9051   7.2003

     occupation numbers 
     1.0000   1.0000   1.0000   1.0000   1.0000   1.0000   1.0000   1.0000
     1.0000   1.0000   1.0000   1.0000   1.0000   1.0000   1.0000   1.0000
     1.0000   1.0000   1.0000   1.0000   1.0000   1.0000   1.0000   1.0000
     1.0000   1.0000   1.0000   1.0000   1.0000   1.0000   1.0000   1.0000
     1.0000   1.0000   1.0000   1.0000   1.0000   1.0000   1.0000   1.0000

          k = 0.1667 0.1722 0.4729 (  6286 PWs)   bands (ev):

   -13.6889 -13.6806 -13.6773 -13.6753 -13.6736 -13.6728 -13.6681 -13.6659
   -13.6602 -13.6557 -13.6525 -13.6514 -13.6429 -13.6400 -13.6228 -13.6196
   -13.6163 -13.6147 -13.6049 -13.6001  -5.8340  -5.5593  -4.9643  -4.6151
     0.0865   0.9885   1.5663   2.1408   3.1391   4.3124   4.5237   5.0532
     5.2608   5.5200   5.5695   5.9831   6.3712   6.6751   6.9689   7.2150

     occupation numbers 
     1.0000   1.0000   1.0000   1.0000   1.0000   1.0000   1.0000   1.0000
     1.0000   1.0000   1.0000   1.0000   1.0000   1.0000   1.0000   1.0000
     1.0000   1.0000   1.0000   1.0000   1.0000   1.0000   1.0000   1.0000
     1.0000   1.0000   1.0000   1.0000   1.0000   1.0000   1.0000   1.0000
     1.0000   1.0000   1.0000   1.0000   1.0000   1.0000   1.0000   1.0000

          k = 0.1667 0.1722 0.7882 (  6277 PWs)   bands (ev):

   -13.6866 -13.6803 -13.6775 -13.6766 -13.6744 -13.6736 -13.6686 -13.6670
   -13.6594 -13.6562 -13.6490 -13.6477 -13.6425 -13.6405 -13.6225 -13.6190
   -13.6176 -13.6155 -13.6041 -13.6009  -5.6263  -5.3708  -4.9982  -4.7067
    -0.2245   0.4853   1.1272   1.6586   3.4414   4.5433   4.7440   5.3245
     5.5468   5.6864   5.9370   6.0561   6.5403   7.0091   7.0362   7.4653

     occupation numbers 
     1.0000   1.0000   1.0000   1.0000   1.0000   1.0000   1.0000   1.0000
     1.0000   1.0000   1.0000   1.0000   1.0000   1.0000   1.0000   1.0000
     1.0000   1.0000   1.0000   1.0000   1.0000   1.0000   1.0000   1.0000
     1.0000   1.0000   1.0000   1.0000   1.0000   1.0000   1.0000   1.0000
     1.0000   1.0000   1.0000   1.0000   1.0000   1.0000   1.0000   1.0000

          k = 0.1667 0.1722 1.1035 (  6269 PWs)   bands (ev):

   -13.6838 -13.6814 -13.6778 -13.6774 -13.6748 -13.6742 -13.6688 -13.6682
   -13.6582 -13.6571 -13.6454 -13.6443 -13.6432 -13.6418 -13.6216 -13.6200
   -13.6172 -13.6164 -13.6031 -13.6020  -5.3788  -5.2053  -5.0540  -4.8720
    -0.2872  -0.0246   1.0321   1.2361   3.9119   4.4214   5.1160   5.3818
     5.5961   5.7211   5.9761   6.2591   6.8285   7.1418   7.3118   7.3970

     occupation numbers 
     1.0000   1.0000   1.0000   1.0000   1.0000   1.0000   1.0000   1.0000
     1.0000   1.0000   1.0000   1.0000   1.0000   1.0000   1.0000   1.0000
     1.0000   1.0000   1.0000   1.0000   1.0000   1.0000   1.0000   1.0000
     1.0000   1.0000   1.0000   1.0000   1.0000   1.0000   1.0000   1.0000
     1.0000   1.0000   1.0000   1.0000   1.0000   1.0000   1.0000   1.0000

          k = 0.1667 0.5165 0.1576 (  6297 PWs)   bands (ev):

   -13.6846 -13.6793 -13.6765 -13.6732 -13.6725 -13.6713 -13.6706 -13.6681
   -13.6617 -13.6579 -13.6533 -13.6510 -13.6413 -13.6404 -13.6224 -13.6201
   -13.6176 -13.6137 -13.6050 -13.6009  -5.7892  -5.5270  -4.9003  -4.5768
     0.2528   0.9931   1.7735   1.8814   3.1580   4.1385   4.4409   4.7615
     5.0667   5.2391   5.5833   5.9213   6.1512   6.7789   7.0360   7.1374

     occupation numbers 
     1.0000   1.0000   1.0000   1.0000   1.0000   1.0000   1.0000   1.0000
     1.0000   1.0000   1.0000   1.0000   1.0000   1.0000   1.0000   1.0000
     1.0000   1.0000   1.0000   1.0000   1.0000   1.0000   1.0000   1.0000
     1.0000   1.0000   1.0000   1.0000   1.0000   1.0000   1.0000   1.0000
     1.0000   1.0000   1.0000   1.0000   1.0000   1.0000   1.0000   1.0000

          k = 0.1667 0.5165 0.4729 (  6300 PWs)   bands (ev):

   -13.6845 -13.6793 -13.6779 -13.6738 -13.6727 -13.6716 -13.6700 -13.6692
   -13.6614 -13.6580 -13.6511 -13.6487 -13.6418 -13.6396 -13.6221 -13.6199
   -13.6179 -13.6146 -13.6046 -13.6011  -5.6796  -5.4276  -4.8953  -4.6011
     0.0934   0.9255   1.4212   1.7834   3.2907   3.7382   4.0260   4.8381
     5.0361   5.5886   5.7960   5.9610   6.5842   6.7167   7.0288   7.2069

     occupation numbers 
     1.0000   1.0000   1.0000   1.0000   1.0000   1.0000   1.0000   1.0000
     1.0000   1.0000   1.0000   1.0000   1.0000   1.0000   1.0000   1.0000
     1.0000   1.0000   1.0000   1.0000   1.0000   1.0000   1.0000   1.0000
     1.0000   1.0000   1.0000   1.0000   1.0000   1.0000   1.0000   1.0000
     1.0000   1.0000   1.0000   1.0000   1.0000   1.0000   1.0000   1.0000

          k = 0.1667 0.5165 0.7882 (  6288 PWs)   bands (ev):

   -13.6845 -13.6806 -13.6785 -13.6750 -13.6733 -13.6714 -13.6708 -13.6695
   -13.6606 -13.6584 -13.6479 -13.6454 -13.6419 -13.6392 -13.6215 -13.6195
   -13.6183 -13.6159 -13.6040 -13.6016  -5.4846  -5.2526  -4.9210  -4.6719
    -0.0841   0.5923   1.1587   1.5553   3.5486   3.6904   3.9757   4.7521
     4.8641   5.6144   5.6793   6.2358   6.4550   6.7119   6.9170   7.2040

     occupation numbers 
     1.0000   1.0000   1.0000   1.0000   1.0000   1.0000   1.0000   1.0000
     1.0000   1.0000   1.0000   1.0000   1.0000   1.0000   1.0000   1.0000
     1.0000   1.0000   1.0000   1.0000   1.0000   1.0000   1.0000   1.0000
     1.0000   1.0000   1.0000   1.0000   1.0000   1.0000   1.0000   1.0000
     1.0000   1.0000   1.0000   1.0000   1.0000   1.0000   1.0000   1.0000

          k = 0.1667 0.5165 1.1035 (  6279 PWs)   bands (ev):

   -13.6841 -13.6828 -13.6776 -13.6764 -13.6733 -13.6725 -13.6705 -13.6698
   -13.6597 -13.6589 -13.6451 -13.6435 -13.6414 -13.6398 -13.6206 -13.6197
   -13.6181 -13.6172 -13.6031 -13.6023  -5.2566  -5.1009  -4.9674  -4.8090
    -0.0949   0.1529   1.1387   1.2941   3.8667   3.9291   4.2005   4.4781
     4.7750   5.0999   5.7499   6.0345   6.4034   6.6518   6.9169   7.1053

     occupation numbers 
     1.0000   1.0000   1.0000   1.0000   1.0000   1.0000   1.0000   1.0000
     1.0000   1.0000   1.0000   1.0000   1.0000   1.0000   1.0000   1.0000
     1.0000   1.0000   1.0000   1.0000   1.0000   1.0000   1.0000   1.0000
     1.0000   1.0000   1.0000   1.0000   1.0000   1.0000   1.0000   1.0000
     1.0000   1.0000   1.0000   1.0000   1.0000   1.0000   1.0000   1.0000

          k = 0.1667 0.8608 0.1576 (  6318 PWs)   bands (ev):

   -13.6825 -13.6803 -13.6782 -13.6776 -13.6706 -13.6678 -13.6671 -13.6655
   -13.6605 -13.6599 -13.6531 -13.6468 -13.6424 -13.6378 -13.6263 -13.6252
   -13.6148 -13.6107 -13.6045 -13.6026  -5.4976  -5.2871  -4.8283  -4.6313
     0.0498   0.6672   1.0055   1.3301   3.4967   4.2562   4.6242   4.9690
     5.3227   5.3945   5.7276   5.9102   6.2772   6.7575   6.8660   7.2329

     occupation numbers 
     1.0000   1.0000   1.0000   1.0000   1.0000   1.0000   1.0000   1.0000
     1.0000   1.0000   1.0000   1.0000   1.0000   1.0000   1.0000   1.0000
     1.0000   1.0000   1.0000   1.0000   1.0000   1.0000   1.0000   1.0000
     1.0000   1.0000   1.0000   1.0000   1.0000   1.0000   1.0000   1.0000
     1.0000   1.0000   1.0000   1.0000   1.0000   1.0000   1.0000   1.0000

          k = 0.1667 0.8608 0.4729 (  6305 PWs)   bands (ev):

   -13.6850 -13.6821 -13.6797 -13.6781 -13.6712 -13.6670 -13.6666 -13.6654
   -13.6601 -13.6596 -13.6514 -13.6457 -13.6419 -13.6373 -13.6257 -13.6248
   -13.6149 -13.6113 -13.6042 -13.6026  -5.4020  -5.2024  -4.8149  -4.6322
     0.0881   0.7608   1.0346   1.2600   3.4992   3.6143   3.9682   4.5626
     4.9941   5.5456   5.6314   6.0842   6.1771   6.5316   6.7548   6.9952

     occupation numbers 
     1.0000   1.0000   1.0000   1.0000   1.0000   1.0000   1.0000   1.0000
     1.0000   1.0000   1.0000   1.0000   1.0000   1.0000   1.0000   1.0000
     1.0000   1.0000   1.0000   1.0000   1.0000   1.0000   1.0000   1.0000
     1.0000   1.0000   1.0000   1.0000   1.0000   1.0000   1.0000   1.0000
     1.0000   1.0000   1.0000   1.0000   1.0000   1.0000   1.0000   1.0000

          k = 0.1667 0.8608 0.7882 (  6287 PWs)   bands (ev):

   -13.6877 -13.6853 -13.6813 -13.6800 -13.6709 -13.6673 -13.6659 -13.6651
   -13.6593 -13.6592 -13.6489 -13.6448 -13.6402 -13.6369 -13.6249 -13.6241
   -13.6148 -13.6123 -13.6038 -13.6026  -5.2366  -5.0579  -4.8186  -4.6572
     0.1461   0.7170   1.0892   1.2569   3.1129   3.4518   3.8841   4.1465
     4.4554   5.0402   5.3511   5.7081   6.0105   6.2737   6.4901   6.9582

     occupation numbers 
     1.0000   1.0000   1.0000   1.0000   1.0000   1.0000   1.0000   1.0000
     1.0000   1.0000   1.0000   1.0000   1.0000   1.0000   1.0000   1.0000
     1.0000   1.0000   1.0000   1.0000   1.0000   1.0000   1.0000   1.0000
     1.0000   1.0000   1.0000   1.0000   1.0000   1.0000   1.0000   1.0000
     1.0000   1.0000   1.0000   1.0000   1.0000   1.0000   1.0000   1.0000

          k = 0.1667 0.8608 1.1035 (  6297 PWs)   bands (ev):

   -13.6889 -13.6880 -13.6823 -13.6818 -13.6698 -13.6684 -13.6653 -13.6650
   -13.6588 -13.6587 -13.6466 -13.6452 -13.6381 -13.6370 -13.6241 -13.6238
   -13.6142 -13.6133 -13.6033 -13.6029  -5.0528  -4.9370  -4.8418  -4.7338
     0.2500   0.4572   1.2186   1.2750   3.1287   3.4707   3.5513   3.9309
     4.3114   4.7143   5.0615   5.4547   5.6704   5.9301   6.5727   6.7114

     occupation numbers 
     1.0000   1.0000   1.0000   1.0000   1.0000   1.0000   1.0000   1.0000
     1.0000   1.0000   1.0000   1.0000   1.0000   1.0000   1.0000   1.0000
     1.0000   1.0000   1.0000   1.0000   1.0000   1.0000   1.0000   1.0000
     1.0000   1.0000   1.0000   1.0000   1.0000   1.0000   1.0000   1.0000
     1.0000   1.0000   1.0000   1.0000   1.0000   1.0000   1.0000   1.0000

          k = 0.1667 1.2051 0.1576 (  6311 PWs)   bands (ev):

   -13.6843 -13.6828 -13.6815 -13.6802 -13.6672 -13.6655 -13.6640 -13.6626
   -13.6579 -13.6557 -13.6544 -13.6490 -13.6391 -13.6346 -13.6324 -13.6305
   -13.6098 -13.6074 -13.6054 -13.6049  -5.1403  -5.0255  -4.8519  -4.8200
     0.0189   0.3426   0.5742   0.8315   4.0134   4.4598   4.8392   5.1602
     5.3444   5.3951   5.8006   6.0712   6.4025   6.6059   6.6683   6.8341

     occupation numbers 
     1.0000   1.0000   1.0000   1.0000   1.0000   1.0000   1.0000   1.0000
     1.0000   1.0000   1.0000   1.0000   1.0000   1.0000   1.0000   1.0000
     1.0000   1.0000   1.0000   1.0000   1.0000   1.0000   1.0000   1.0000
     1.0000   1.0000   1.0000   1.0000   1.0000   1.0000   1.0000   1.0000
     1.0000   1.0000   1.0000   1.0000   1.0000   1.0000   1.0000   1.0000

          k = 0.1667 1.2051 0.4729 (  6299 PWs)   bands (ev):

   -13.6869 -13.6855 -13.6831 -13.6820 -13.6675 -13.6657 -13.6628 -13.6620
   -13.6574 -13.6558 -13.6527 -13.6486 -13.6382 -13.6352 -13.6304 -13.6294
   -13.6100 -13.6081 -13.6049 -13.6047  -5.0700  -4.9647  -4.8190  -4.7853
     0.1644   0.4806   0.6999   0.8818   3.7709   3.9636   4.2317   4.5164
     4.6976   5.1456   5.5972   5.7840   5.9045   6.1905   6.6645   6.9267

     occupation numbers 
     1.0000   1.0000   1.0000   1.0000   1.0000   1.0000   1.0000   1.0000
     1.0000   1.0000   1.0000   1.0000   1.0000   1.0000   1.0000   1.0000
     1.0000   1.0000   1.0000   1.0000   1.0000   1.0000   1.0000   1.0000
     1.0000   1.0000   1.0000   1.0000   1.0000   1.0000   1.0000   1.0000
     1.0000   1.0000   1.0000   1.0000   1.0000   1.0000   1.0000   1.0000

          k = 0.1667 1.2051 0.7882 (  6296 PWs)   bands (ev):

   -13.6902 -13.6892 -13.6853 -13.6847 -13.6675 -13.6660 -13.6618 -13.6614
   -13.6566 -13.6555 -13.6508 -13.6482 -13.6366 -13.6350 -13.6284 -13.6280
   -13.6101 -13.6089 -13.6045 -13.6044  -4.9564  -4.8691  -4.7801  -4.7420
     0.4106   0.6938   0.8968   0.9591   3.1262   3.5736   3.6748   4.0098
     4.2556   4.6085   4.9360   5.3986   5.4970   5.7614   6.5233   6.6658

     occupation numbers 
     1.0000   1.0000   1.0000   1.0000   1.0000   1.0000   1.0000   1.0000
     1.0000   1.0000   1.0000   1.0000   1.0000   1.0000   1.0000   1.0000
     1.0000   1.0000   1.0000   1.0000   1.0000   1.0000   1.0000   1.0000
     1.0000   1.0000   1.0000   1.0000   1.0000   1.0000   1.0000   1.0000
     1.0000   1.0000   1.0000   1.0000   1.0000   1.0000   1.0000   1.0000

          k = 0.1667 1.2051 1.1035 (  6302 PWs)   bands (ev):

   -13.6923 -13.6919 -13.6869 -13.6866 -13.6672 -13.6667 -13.6613 -13.6611
   -13.6558 -13.6554 -13.6494 -13.6484 -13.6352 -13.6347 -13.6271 -13.6270
   -13.6099 -13.6095 -13.6042 -13.6042  -4.8470  -4.7966  -4.7613  -4.7286
     0.6517   0.7745   1.0550   1.0875   2.8702   3.0738   3.4564   3.6065
     4.0574   4.1065   4.6033   4.9244   5.4672   5.6572   6.3955   6.4428

     occupation numbers 
     1.0000   1.0000   1.0000   1.0000   1.0000   1.0000   1.0000   1.0000
     1.0000   1.0000   1.0000   1.0000   1.0000   1.0000   1.0000   1.0000
     1.0000   1.0000   1.0000   1.0000   1.0000   1.0000   1.0000   1.0000
     1.0000   1.0000   1.0000   1.0000   1.0000   1.0000   1.0000   1.0000
     1.0000   1.0000   1.0000   1.0000   1.0000   1.0000   1.0000   1.0000

          k =-0.5000 0.1722 0.1576 (  6288 PWs)   bands (ev):

   -13.6862 -13.6862 -13.6755 -13.6755 -13.6731 -13.6731 -13.6661 -13.6661
   -13.6581 -13.6581 -13.6540 -13.6540 -13.6417 -13.6417 -13.6211 -13.6211
   -13.6150 -13.6150 -13.6024 -13.6024  -5.8327  -5.8327  -4.7483  -4.7483
     0.7005   0.7005   2.3825   2.3825   3.6935   3.6935   4.5850   4.5850
     5.0406   5.0406   5.6423   5.6423   5.9891   5.9891   7.1087   7.1087

     occupation numbers 
     1.0000   1.0000   1.0000   1.0000   1.0000   1.0000   1.0000   1.0000
     1.0000   1.0000   1.0000   1.0000   1.0000   1.0000   1.0000   1.0000
     1.0000   1.0000   1.0000   1.0000   1.0000   1.0000   1.0000   1.0000
     1.0000   1.0000   1.0000   1.0000   1.0000   1.0000   1.0000   1.0000
     1.0000   1.0000   1.0000   1.0000   1.0000   1.0000   1.0000   1.0000

          k =-0.5000 0.1722 0.4729 (  6280 PWs)   bands (ev):

   -13.6854 -13.6854 -13.6755 -13.6755 -13.6738 -13.6738 -13.6669 -13.6669
   -13.6579 -13.6579 -13.6517 -13.6517 -13.6416 -13.6416 -13.6210 -13.6210
   -13.6156 -13.6156 -13.6024 -13.6024  -5.7222  -5.7222  -4.7641  -4.7641
     0.4102   0.4102   1.9218   1.9218   3.9127   3.9127   4.6469   4.6469
     5.3327   5.3327   5.7929   5.7929   6.4433   6.4433   7.0099   7.0099

     occupation numbers 
     1.0000   1.0000   1.0000   1.0000   1.0000   1.0000   1.0000   1.0000
     1.0000   1.0000   1.0000   1.0000   1.0000   1.0000   1.0000   1.0000
     1.0000   1.0000   1.0000   1.0000   1.0000   1.0000   1.0000   1.0000
     1.0000   1.0000   1.0000   1.0000   1.0000   1.0000   1.0000   1.0000
     1.0000   1.0000   1.0000   1.0000   1.0000   1.0000   1.0000   1.0000

          k =-0.5000 0.1722 0.7882 (  6270 PWs)   bands (ev):

   -13.6839 -13.6839 -13.6765 -13.6765 -13.6741 -13.6741 -13.6681 -13.6681
   -13.6575 -13.6575 -13.6482 -13.6482 -13.6417 -13.6417 -13.6208 -13.6208
   -13.6164 -13.6164 -13.6024 -13.6024  -5.5262  -5.5262  -4.8251  -4.8251
     0.0730   0.0730   1.3804   1.3804   4.2309   4.2309   4.9274   4.9274
     5.4724   5.4724   6.0168   6.0168   6.6562   6.6562   7.1926   7.1926

     occupation numbers 
     1.0000   1.0000   1.0000   1.0000   1.0000   1.0000   1.0000   1.0000
     1.0000   1.0000   1.0000   1.0000   1.0000   1.0000   1.0000   1.0000
     1.0000   1.0000   1.0000   1.0000   1.0000   1.0000   1.0000   1.0000
     1.0000   1.0000   1.0000   1.0000   1.0000   1.0000   1.0000   1.0000
     1.0000   1.0000   1.0000   1.0000   1.0000   1.0000   1.0000   1.0000

          k =-0.5000 0.1722 1.1035 (  6290 PWs)   bands (ev):

   -13.6825 -13.6825 -13.6777 -13.6777 -13.6742 -13.6742 -13.6690 -13.6690
   -13.6573 -13.6573 -13.6449 -13.6449 -13.6425 -13.6425 -13.6206 -13.6206
   -13.6171 -13.6171 -13.6025 -13.6025  -5.3133  -5.3133  -4.9425  -4.9425
    -0.1188  -0.1188   1.0262   1.0262   4.6406   4.6406   5.2278   5.2278
     5.3089   5.3089   5.8674   5.8674   7.0386   7.0386   7.3168   7.3168

     occupation numbers 
     1.0000   1.0000   1.0000   1.0000   1.0000   1.0000   1.0000   1.0000
     1.0000   1.0000   1.0000   1.0000   1.0000   1.0000   1.0000   1.0000
     1.0000   1.0000   1.0000   1.0000   1.0000   1.0000   1.0000   1.0000
     1.0000   1.0000   1.0000   1.0000   1.0000   1.0000   1.0000   1.0000
     1.0000   1.0000   1.0000   1.0000   1.0000   1.0000   1.0000   1.0000

          k =-0.5000 0.5165 0.1576 (  6302 PWs)   bands (ev):

   -13.6819 -13.6819 -13.6753 -13.6753 -13.6721 -13.6721 -13.6691 -13.6691
   -13.6598 -13.6598 -13.6519 -13.6519 -13.6410 -13.6410 -13.6213 -13.6213
   -13.6156 -13.6156 -13.6029 -13.6029  -5.6809  -5.6809  -4.7152  -4.7152
     0.5313   0.5313   1.8757   1.8757   3.8210   3.8210   4.4677   4.4677
     5.3501   5.3501   5.5343   5.5343   6.2031   6.2031   7.1841   7.1841

     occupation numbers 
     1.0000   1.0000   1.0000   1.0000   1.0000   1.0000   1.0000   1.0000
     1.0000   1.0000   1.0000   1.0000   1.0000   1.0000   1.0000   1.0000
     1.0000   1.0000   1.0000   1.0000   1.0000   1.0000   1.0000   1.0000
     1.0000   1.0000   1.0000   1.0000   1.0000   1.0000   1.0000   1.0000
     1.0000   1.0000   1.0000   1.0000   1.0000   1.0000   1.0000   1.0000

          k =-0.5000 0.5165 0.4729 (  6288 PWs)   bands (ev):

   -13.6820 -13.6820 -13.6764 -13.6764 -13.6719 -13.6719 -13.6694 -13.6694
   -13.6596 -13.6596 -13.6498 -13.6498 -13.6408 -13.6408 -13.6211 -13.6211
   -13.6162 -13.6162 -13.6027 -13.6027  -5.5764  -5.5764  -4.7251  -4.7251
     0.4023   0.4023   1.6576   1.6576   3.7664   3.7664   4.3414   4.3414
     5.0175   5.0175   5.9893   5.9893   6.5844   6.5844   7.1126   7.1126

     occupation numbers 
     1.0000   1.0000   1.0000   1.0000   1.0000   1.0000   1.0000   1.0000
     1.0000   1.0000   1.0000   1.0000   1.0000   1.0000   1.0000   1.0000
     1.0000   1.0000   1.0000   1.0000   1.0000   1.0000   1.0000   1.0000
     1.0000   1.0000   1.0000   1.0000   1.0000   1.0000   1.0000   1.0000
     1.0000   1.0000   1.0000   1.0000   1.0000   1.0000   1.0000   1.0000

          k =-0.5000 0.5165 0.7882 (  6300 PWs)   bands (ev):

   -13.6823 -13.6823 -13.6781 -13.6781 -13.6718 -13.6718 -13.6696 -13.6696
   -13.6593 -13.6593 -13.6469 -13.6469 -13.6405 -13.6405 -13.6208 -13.6208
   -13.6170 -13.6170 -13.6026 -13.6026  -5.3931  -5.3931  -4.7721  -4.7721
     0.2017   0.2017   1.3543   1.3543   3.7590   3.7590   4.5124   4.5124
     4.8680   4.8680   6.0576   6.0576   6.4431   6.4431   7.0707   7.0707

     occupation numbers 
     1.0000   1.0000   1.0000   1.0000   1.0000   1.0000   1.0000   1.0000
     1.0000   1.0000   1.0000   1.0000   1.0000   1.0000   1.0000   1.0000
     1.0000   1.0000   1.0000   1.0000   1.0000   1.0000   1.0000   1.0000
     1.0000   1.0000   1.0000   1.0000   1.0000   1.0000   1.0000   1.0000
     1.0000   1.0000   1.0000   1.0000   1.0000   1.0000   1.0000   1.0000

          k =-0.5000 0.5165 1.1035 (  6272 PWs)   bands (ev):

   -13.6827 -13.6827 -13.6792 -13.6792 -13.6716 -13.6716 -13.6698 -13.6698
   -13.6592 -13.6592 -13.6449 -13.6449 -13.6402 -13.6402 -13.6204 -13.6204
   -13.6177 -13.6177 -13.6025 -13.6025  -5.1976  -5.1976  -4.8699  -4.8699
     0.0609   0.0609   1.1295   1.1295   3.9976   3.9976   4.4011   4.4011
     5.1093   5.1093   5.6628   5.6628   6.3357   6.3357   6.8990   6.8990

     occupation numbers 
     1.0000   1.0000   1.0000   1.0000   1.0000   1.0000   1.0000   1.0000
     1.0000   1.0000   1.0000   1.0000   1.0000   1.0000   1.0000   1.0000
     1.0000   1.0000   1.0000   1.0000   1.0000   1.0000   1.0000   1.0000
     1.0000   1.0000   1.0000   1.0000   1.0000   1.0000   1.0000   1.0000
     1.0000   1.0000   1.0000   1.0000   1.0000   1.0000   1.0000   1.0000

          k =-0.5000 0.8608 0.1576 (  6306 PWs)   bands (ev):

   -13.6819 -13.6819 -13.6773 -13.6773 -13.6689 -13.6689 -13.6672 -13.6672
   -13.6600 -13.6600 -13.6503 -13.6503 -13.6396 -13.6396 -13.6259 -13.6259
   -13.6126 -13.6126 -13.6035 -13.6035  -5.4093  -5.4093  -4.7123  -4.7123
     0.3040   0.3040   1.1723   1.1723   4.1072   4.1072   4.6459   4.6459
     5.5165   5.5165   5.6802   5.6802   6.2218   6.2218   7.0572   7.0572

     occupation numbers 
     1.0000   1.0000   1.0000   1.0000   1.0000   1.0000   1.0000   1.0000
     1.0000   1.0000   1.0000   1.0000   1.0000   1.0000   1.0000   1.0000
     1.0000   1.0000   1.0000   1.0000   1.0000   1.0000   1.0000   1.0000
     1.0000   1.0000   1.0000   1.0000   1.0000   1.0000   1.0000   1.0000
     1.0000   1.0000   1.0000   1.0000   1.0000   1.0000   1.0000   1.0000

          k =-0.5000 0.8608 0.4729 (  6302 PWs)   bands (ev):

   -13.6837 -13.6837 -13.6790 -13.6790 -13.6690 -13.6690 -13.6663 -13.6663
   -13.6594 -13.6594 -13.6492 -13.6492 -13.6389 -13.6389 -13.6256 -13.6256
   -13.6129 -13.6129 -13.6034 -13.6034  -5.3189  -5.3189  -4.7065  -4.7065
     0.3607   0.3607   1.1667   1.1667   3.6557   3.6557   4.4534   4.4534
     4.9310   4.9310   5.9326   5.9326   6.1494   6.1494   6.9525   6.9525

     occupation numbers 
     1.0000   1.0000   1.0000   1.0000   1.0000   1.0000   1.0000   1.0000
     1.0000   1.0000   1.0000   1.0000   1.0000   1.0000   1.0000   1.0000
     1.0000   1.0000   1.0000   1.0000   1.0000   1.0000   1.0000   1.0000
     1.0000   1.0000   1.0000   1.0000   1.0000   1.0000   1.0000   1.0000
     1.0000   1.0000   1.0000   1.0000   1.0000   1.0000   1.0000   1.0000

          k =-0.5000 0.8608 0.7882 (  6282 PWs)   bands (ev):

   -13.6861 -13.6861 -13.6814 -13.6814 -13.6687 -13.6687 -13.6656 -13.6656
   -13.6588 -13.6588 -13.6478 -13.6478 -13.6377 -13.6377 -13.6251 -13.6251
   -13.6132 -13.6132 -13.6032 -13.6032  -5.1648  -5.1648  -4.7203  -4.7203
     0.3965   0.3965   1.1717   1.1717   3.3094   3.3094   4.1206   4.1206
     4.7328   4.7328   5.4102   5.4102   6.0009   6.0009   6.7997   6.7997

     occupation numbers 
     1.0000   1.0000   1.0000   1.0000   1.0000   1.0000   1.0000   1.0000
     1.0000   1.0000   1.0000   1.0000   1.0000   1.0000   1.0000   1.0000
     1.0000   1.0000   1.0000   1.0000   1.0000   1.0000   1.0000   1.0000
     1.0000   1.0000   1.0000   1.0000   1.0000   1.0000   1.0000   1.0000
     1.0000   1.0000   1.0000   1.0000   1.0000   1.0000   1.0000   1.0000

          k =-0.5000 0.8608 1.1035 (  6312 PWs)   bands (ev):

   -13.6877 -13.6877 -13.6832 -13.6832 -13.6685 -13.6685 -13.6654 -13.6654
   -13.6584 -13.6584 -13.6469 -13.6469 -13.6365 -13.6365 -13.6248 -13.6248
   -13.6134 -13.6134 -13.6030 -13.6030  -5.0084  -5.0084  -4.7746  -4.7746
     0.3742   0.3742   1.1992   1.1992   3.3223   3.3223   3.6801   3.6801
     4.7325   4.7325   5.0416   5.0416   5.9582   5.9582   6.4651   6.4651

     occupation numbers 
     1.0000   1.0000   1.0000   1.0000   1.0000   1.0000   1.0000   1.0000
     1.0000   1.0000   1.0000   1.0000   1.0000   1.0000   1.0000   1.0000
     1.0000   1.0000   1.0000   1.0000   1.0000   1.0000   1.0000   1.0000
     1.0000   1.0000   1.0000   1.0000   1.0000   1.0000   1.0000   1.0000
     1.0000   1.0000   1.0000   1.0000   1.0000   1.0000   1.0000   1.0000

          k =-0.5000 1.2051 0.1576 (  6320 PWs)   bands (ev):

   -13.6831 -13.6831 -13.6815 -13.6815 -13.6653 -13.6653 -13.6647 -13.6647
   -13.6563 -13.6563 -13.6519 -13.6519 -13.6364 -13.6364 -13.6317 -13.6317
   -13.6085 -13.6085 -13.6052 -13.6052  -5.0897  -5.0897  -4.8296  -4.8296
     0.2641   0.2641   0.5709   0.5709   4.5712   4.5712   4.9190   4.9190
     5.4131   5.4131   5.6529   5.6529   6.3422   6.3422   6.6995   6.6995

     occupation numbers 
     1.0000   1.0000   1.0000   1.0000   1.0000   1.0000   1.0000   1.0000
     1.0000   1.0000   1.0000   1.0000   1.0000   1.0000   1.0000   1.0000
     1.0000   1.0000   1.0000   1.0000   1.0000   1.0000   1.0000   1.0000
     1.0000   1.0000   1.0000   1.0000   1.0000   1.0000   1.0000   1.0000
     1.0000   1.0000   1.0000   1.0000   1.0000   1.0000   1.0000   1.0000

          k =-0.5000 1.2051 0.4729 (  6298 PWs)   bands (ev):

   -13.6853 -13.6853 -13.6836 -13.6836 -13.6653 -13.6653 -13.6642 -13.6642
   -13.6556 -13.6556 -13.6514 -13.6514 -13.6354 -13.6354 -13.6309 -13.6309
   -13.6086 -13.6086 -13.6051 -13.6051  -5.0239  -5.0239  -4.7959  -4.7959
     0.3972   0.3972   0.6764   0.6764   3.9405   3.9405   4.4650   4.4650
     4.9988   4.9988   5.4407   5.4407   6.1191   6.1191   6.5535   6.5535

     occupation numbers 
     1.0000   1.0000   1.0000   1.0000   1.0000   1.0000   1.0000   1.0000
     1.0000   1.0000   1.0000   1.0000   1.0000   1.0000   1.0000   1.0000
     1.0000   1.0000   1.0000   1.0000   1.0000   1.0000   1.0000   1.0000
     1.0000   1.0000   1.0000   1.0000   1.0000   1.0000   1.0000   1.0000
     1.0000   1.0000   1.0000   1.0000   1.0000   1.0000   1.0000   1.0000

          k =-0.5000 1.2051 0.7882 (  6300 PWs)   bands (ev):

   -13.6883 -13.6883 -13.6865 -13.6865 -13.6653 -13.6653 -13.6639 -13.6639
   -13.6546 -13.6546 -13.6506 -13.6506 -13.6339 -13.6339 -13.6297 -13.6297
   -13.6087 -13.6087 -13.6050 -13.6050  -4.9194  -4.9194  -4.7546  -4.7546
     0.5965   0.5965   0.8578   0.8578   3.3726   3.3726   3.8852   3.8852
     4.4397   4.4397   4.8965   4.8965   6.0153   6.0153   6.3858   6.3858

     occupation numbers 
     1.0000   1.0000   1.0000   1.0000   1.0000   1.0000   1.0000   1.0000
     1.0000   1.0000   1.0000   1.0000   1.0000   1.0000   1.0000   1.0000
     1.0000   1.0000   1.0000   1.0000   1.0000   1.0000   1.0000   1.0000
     1.0000   1.0000   1.0000   1.0000   1.0000   1.0000   1.0000   1.0000
     1.0000   1.0000   1.0000   1.0000   1.0000   1.0000   1.0000   1.0000

          k =-0.5000 1.2051 1.1035 (  6314 PWs)   bands (ev):

   -13.6903 -13.6903 -13.6886 -13.6886 -13.6655 -13.6655 -13.6638 -13.6638
   -13.6539 -13.6539 -13.6501 -13.6501 -13.6327 -13.6327 -13.6288 -13.6288
   -13.6087 -13.6087 -13.6050 -13.6050  -4.8267  -4.8267  -4.7402  -4.7402
     0.7272   0.7272   1.0392   1.0392   3.1735   3.1735   3.4208   3.4208
     4.0781   4.0781   4.3758   4.3758   6.1107   6.1107   6.2967   6.2967

     occupation numbers 
     1.0000   1.0000   1.0000   1.0000   1.0000   1.0000   1.0000   1.0000
     1.0000   1.0000   1.0000   1.0000   1.0000   1.0000   1.0000   1.0000
     1.0000   1.0000   1.0000   1.0000   1.0000   1.0000   1.0000   1.0000
     1.0000   1.0000   1.0000   1.0000   1.0000   1.0000   1.0000   1.0000
     1.0000   1.0000   1.0000   1.0000   1.0000   1.0000   1.0000   1.0000

     highest occupied level (ev):     7.4653

!    total energy              =    -827.74461342 Ry
     estimated scf accuracy    <          5.4E-10 Ry

     The total energy is the sum of the following terms:
     one-electron contribution =    -265.38289655 Ry
     hartree contribution      =     182.07048522 Ry
     xc contribution           =    -309.00770705 Ry
     ewald contribution        =    -435.30430362 Ry
     DFT-D3 Dispersion         =      -0.12019142 Ry

     convergence has been achieved in  12 iterations

     Forces acting on atoms (cartesian axes, Ry/au):

     atom    1 type  2   force =     0.00155226    0.00000000   -0.00027207
     atom    2 type  1   force =    -0.00174644    0.00000000   -0.00017871
     atom    3 type  2   force =    -0.00155226    0.00000000   -0.00027207
     atom    4 type  1   force =     0.00174644   -0.00000000   -0.00017871
     atom    5 type  2   force =     0.00155226    0.00000000    0.00027207
     atom    6 type  1   force =    -0.00174644    0.00000000    0.00017871
     atom    7 type  2   force =    -0.00155226    0.00000000    0.00027207
     atom    8 type  1   force =     0.00174644    0.00000000    0.00017871
     The non-local contrib.  to forces
     atom    1 type  2   force =    -0.10403680    0.00000000    0.11335012
     atom    2 type  1   force =     0.34714978    0.00000000    0.30361373
     atom    3 type  2   force =     0.10403680    0.00000000    0.11335012
     atom    4 type  1   force =    -0.34714978    0.00000000    0.30361373
     atom    5 type  2   force =    -0.10403680    0.00000000   -0.11335012
     atom    6 type  1   force =     0.34714978    0.00000000   -0.30361373
     atom    7 type  2   force =     0.10403680    0.00000000   -0.11335012
     atom    8 type  1   force =    -0.34714978    0.00000000   -0.30361373
     The ionic contribution  to forces
     atom    1 type  2   force =     1.18331402   -0.00000000   -1.29289153
     atom    2 type  1   force =    -0.61637168    0.00000000   -0.72345021
     atom    3 type  2   force =    -1.18331402    0.00000000   -1.29289153
     atom    4 type  1   force =     0.61637168    0.00000000   -0.72345021
     atom    5 type  2   force =     1.18331402    0.00000000    1.29289153
     atom    6 type  1   force =    -0.61637168   -0.00000000    0.72345021
     atom    7 type  2   force =    -1.18331402   -0.00000000    1.29289153
     atom    8 type  1   force =     0.61637168    0.00000000    0.72345021
     The local contribution  to forces
     atom    1 type  2   force =    -1.08863456    0.00000000    1.19020201
     atom    2 type  1   force =     0.27426533    0.00000000    0.42379222
     atom    3 type  2   force =     1.08863456    0.00000000    1.19020201
     atom    4 type  1   force =    -0.27426533    0.00000000    0.42379222
     atom    5 type  2   force =    -1.08863456    0.00000000   -1.19020201
     atom    6 type  1   force =     0.27426533    0.00000000   -0.42379222
     atom    7 type  2   force =     1.08863456    0.00000000   -1.19020201
     atom    8 type  1   force =    -0.27426533    0.00000000   -0.42379222
     The core correction contribution to forces
     atom    1 type  2   force =     0.01161522    0.00000000   -0.01255775
     atom    2 type  1   force =    -0.00609294    0.00000000   -0.00507985
     atom    3 type  2   force =    -0.01161522    0.00000000   -0.01255775
     atom    4 type  1   force =     0.00609294    0.00000000   -0.00507985
     atom    5 type  2   force =     0.01161522   -0.00000000    0.01255775
     atom    6 type  1   force =    -0.00609294    0.00000000    0.00507985
     atom    7 type  2   force =    -0.01161522    0.00000000    0.01255775
     atom    8 type  1   force =     0.00609294    0.00000000    0.00507985
     The Hubbard contrib.    to forces
     atom    1 type  2   force =     0.00000000    0.00000000    0.00000000
     atom    2 type  1   force =     0.00000000    0.00000000    0.00000000
     atom    3 type  2   force =     0.00000000    0.00000000    0.00000000
     atom    4 type  1   force =     0.00000000    0.00000000    0.00000000
     atom    5 type  2   force =     0.00000000    0.00000000    0.00000000
     atom    6 type  1   force =     0.00000000    0.00000000    0.00000000
     atom    7 type  2   force =     0.00000000    0.00000000    0.00000000
     atom    8 type  1   force =     0.00000000    0.00000000    0.00000000
     The SCF correction term to forces
     atom    1 type  2   force =     0.00000238   -0.00000000   -0.00000044
     atom    2 type  1   force =    -0.00004396    0.00000000   -0.00002454
     atom    3 type  2   force =    -0.00000238    0.00000000   -0.00000044
     atom    4 type  1   force =     0.00004396   -0.00000000   -0.00002454
     atom    5 type  2   force =     0.00000238    0.00000000    0.00000044
     atom    6 type  1   force =    -0.00004396    0.00000000    0.00002454
     atom    7 type  2   force =    -0.00000238    0.00000000    0.00000044
     atom    8 type  1   force =     0.00004396    0.00000000    0.00002454

     DFT-D3 dispersion contribution to forces:
     atom    1 type  2   force =    -0.00070799    0.00000000    0.00162551
     atom    2 type  1   force =    -0.00065298    0.00000000    0.00096993
     atom    3 type  2   force =     0.00070799    0.00000000    0.00162551
     atom    4 type  1   force =     0.00065298   -0.00000000    0.00096993
     atom    5 type  2   force =    -0.00070799    0.00000000   -0.00162551
     atom    6 type  1   force =    -0.00065298    0.00000000   -0.00096993
     atom    7 type  2   force =     0.00070799   -0.00000000   -0.00162551
     atom    8 type  1   force =     0.00065298   -0.00000000   -0.00096993

     Total force =     0.004718     Total SCF correction =     0.000101

     DFT-D3 dispersion Force =     0.004248

     Writing all to output data dir ./tmp/SnSe_pnma.save/ :
     XML data file, charge density, pseudopotentials, collected wavefunctions
 
     init_run     :      1.73s CPU      1.87s WALL (       1 calls)
     electrons    :     38.61s CPU     41.33s WALL (       1 calls)
     forces       :      0.75s CPU      0.86s WALL (       1 calls)
     force_dftd3  :      0.08s CPU      0.08s WALL (       1 calls)

     Called by init_run:
     wfcinit      :      1.00s CPU      1.02s WALL (       1 calls)
     wfcinit:atom :      0.02s CPU      0.02s WALL (      11 calls)
     wfcinit:wfcr :      0.87s CPU      0.87s WALL (      11 calls)
     potinit      :      0.17s CPU      0.20s WALL (       1 calls)
     hinit0       :      0.16s CPU      0.17s WALL (       1 calls)

     Called by electrons:
     c_bands      :     28.51s CPU     28.74s WALL (      12 calls)
     sum_band     :      6.70s CPU      7.87s WALL (      12 calls)
     v_of_rho     :      1.28s CPU      1.38s WALL (      13 calls)
     v_h          :      0.09s CPU      0.10s WALL (      13 calls)
     v_xc         :      1.28s CPU      1.38s WALL (      14 calls)
     newd         :      2.21s CPU      3.46s WALL (      13 calls)
     mix_rho      :      0.14s CPU      0.14s WALL (      12 calls)
     energy_dftd3 :      0.04s CPU      0.05s WALL (       1 calls)

     Called by c_bands:
     init_us_2    :      0.90s CPU      0.92s WALL (     286 calls)
     cegterg      :     25.46s CPU     25.62s WALL (     132 calls)

     Called by sum_band:
     sum_band:wei :      0.00s CPU      0.00s WALL (      12 calls)
     sum_band:loo :      4.22s CPU      4.24s WALL (      12 calls)
     sum_band:buf :      0.06s CPU      0.06s WALL (     132 calls)
     sum_band:ini :      0.39s CPU      0.40s WALL (     132 calls)
     sum_band:cal :      0.57s CPU      0.57s WALL (     132 calls)
     sum_band:bec :      0.01s CPU      0.01s WALL (     132 calls)
     addusdens    :      2.20s CPU      3.32s WALL (      12 calls)
                                        0.00s GPU  (      12 calls)
     addusd:skk   :      0.01s CPU      0.01s WALL (      24 calls)
                                        0.00s GPU  (      24 calls)

     Called by *egterg:
     cdiaghg      :      0.91s CPU      0.92s WALL (     581 calls)
     cegterg:over :      1.34s CPU      1.35s WALL (     449 calls)
     cegterg:upda :      0.80s CPU      0.80s WALL (     449 calls)
     cegterg:last :      1.97s CPU      1.97s WALL (     333 calls)
     h_psi        :     18.49s CPU     18.61s WALL (     592 calls)
     s_psi        :      1.99s CPU      2.01s WALL (     592 calls)
     g_psi        :      0.08s CPU      0.08s WALL (     449 calls)

     Called by h_psi:
     h_psi:calbec :      1.85s CPU      1.86s WALL (     592 calls)
     vloc_psi     :     14.45s CPU     14.56s WALL (     592 calls)
     add_vuspsi   :      2.02s CPU      2.03s WALL (     592 calls)

     General routines
     calbec       :      2.60s CPU      2.61s WALL (     768 calls)
     fft          :      0.61s CPU      0.62s WALL (     178 calls)
     ffts         :      0.02s CPU      0.02s WALL (      25 calls)
     fftw         :     10.06s CPU     10.12s WALL (   37932 calls)
     interpolate  :      0.06s CPU      0.06s WALL (      13 calls)
 
     Parallel routines
 
     PWSCF        :     41.34s CPU     44.88s WALL

 
   This run was terminated on:  15:46:30  20May2026            

=------------------------------------------------------------------------------=
   JOB DONE.
=------------------------------------------------------------------------------=
