
     Program PWSCF v.7.3.1 starts on 20May2026 at 17:25: 0 

     This program is part of the open-source Quantum ESPRESSO suite
     for quantum simulation of materials; please cite
         "P. Giannozzi et al., J. Phys.:Condens. Matter 21 395502 (2009);
         "P. Giannozzi et al., J. Phys.:Condens. Matter 29 465901 (2017);
         "P. Giannozzi et al., J. Chem. Phys. 152 154105 (2020);
          URL http://www.quantum-espresso.org", 
     in publications or presentations arising from this work. More details at
     http://www.quantum-espresso.org/quote

     Parallel version (MPI & OpenMP), running on       6 processor cores
     Number of MPI processes:                 6
     Threads/MPI process:                     1

     MPI processes distributed on     1 nodes
     10651 MiB available memory on the printing compute node when the environment starts
 
     Waiting for input...
     Reading input from standard input

     Current dimensions of program PWSCF are:
     Max number of different atomic species (ntypx) = 10
     Max number of k-points (npk) =  40000
     Max angular momentum in pseudopotentials (lmaxx) =  4
 
     K-points division:     npool     =       3
     R & G space division:  proc/nbgrp/npool/nimage =       2
     Subspace diagonalization in iterative solution of the eigenvalue problem:
     a serial algorithm will be used

 
     Parallelization info
     --------------------
     sticks:   dense  smooth     PW     G-vecs:    dense   smooth      PW
     Min        3372    1349    388               138086    34968    5354
     Max        3373    1350    389               138087    34969    5355
     Sum        6745    2699    777               276173    69937   10709
 
     Using Slab Decomposition
 


     bravais-lattice index     =            8
     lattice parameter (alat)  =      21.5618  a.u.
     unit-cell volume          =    1463.1880 (a.u.)^3
     number of atoms/cell      =            8
     number of atomic types    =            2
     number of electrons       =        80.00
     number of Kohn-Sham states=           40
     kinetic-energy cutoff     =      50.0000  Ry
     charge density cutoff     =     500.0000  Ry
     scf convergence threshold =      1.0E-08
     mixing beta               =       0.7000
     number of iterations used =            8  plain     mixing
     Exchange-correlation= SLA  PW   PBE  PBE
                           (   1   4   3   4   0   0   0)

     celldm(1)=  21.561775  celldm(2)=   0.365592  celldm(3)=   0.399255
     celldm(4)=   0.000000  celldm(5)=   0.000000  celldm(6)=   0.000000

     crystal axes: (cart. coord. in units of alat)
               a(1) = (   1.000000   0.000000   0.000000 )  
               a(2) = (   0.000000   0.365592   0.000000 )  
               a(3) = (   0.000000   0.000000   0.399255 )  

     reciprocal axes: (cart. coord. in units 2 pi/alat)
               b(1) = (  1.000000  0.000000  0.000000 )  
               b(2) = (  0.000000  2.735293  0.000000 )  
               b(3) = (  0.000000  0.000000  2.504665 )  


     PseudoPot. # 1 for Sn read from file:
     ../pseudo/Sn_pbe_v1.uspp.F.UPF
     MD5 check sum: 4cf58ce39ec5d5d420df3dd08604eb00
     Pseudo is Ultrasoft + core correction, Zval = 14.0
     Generated by new atomic code, or converted to UPF format
     Using radial grid of  891 points,  6 beta functions with: 
                l(1) =   0
                l(2) =   0
                l(3) =   1
                l(4) =   1
                l(5) =   2
                l(6) =   2
     Q(r) pseudized with  6 coefficients,  rinner =    1.200   1.200   1.200
                                                       1.200   1.200

     PseudoPot. # 2 for Se read from file:
     ../pseudo/Se_pbe_v1.uspp.F.UPF
     MD5 check sum: 1b3568f3a8ae88f9a2a0ad0698632c85
     Pseudo is Ultrasoft + core correction, Zval =  6.0
     Generated by new atomic code, or converted to UPF format
     Using radial grid of  877 points,  6 beta functions with: 
                l(1) =   0
                l(2) =   0
                l(3) =   1
                l(4) =   1
                l(5) =   2
                l(6) =   2
     Q(r) pseudized with  8 coefficients,  rinner =    1.300   1.300   1.300
                                                       1.300   1.300

     atomic species   valence    mass     pseudopotential
     Sn               14.00   118.71000     Sn( 1.00)
     Se                6.00    78.97100     Se( 1.00)

      8 Sym. Ops., with inversion, found ( 6 have fractional translation)


                                    s                        frac. trans.

      isym =  1     identity                                     

 cryst.   s( 1) = (     1          0          0      )
                  (     0          1          0      )
                  (     0          0          1      )

 cart.    s( 1) = (  1.0000000  0.0000000  0.0000000 )
                  (  0.0000000  1.0000000  0.0000000 )
                  (  0.0000000  0.0000000  1.0000000 )


      isym =  2     180 deg rotation - cart. axis [0,0,1]        

 cryst.   s( 2) = (    -1          0          0      )    f =(  0.5000000 )
                  (     0         -1          0      )       (  0.0000000 )
                  (     0          0          1      )       ( -0.5000000 )

 cart.    s( 2) = ( -1.0000000  0.0000000  0.0000000 )    f =(  0.5000000 )
                  (  0.0000000 -1.0000000  0.0000000 )       (  0.0000000 )
                  (  0.0000000  0.0000000  1.0000000 )       ( -0.1996275 )


      isym =  3     180 deg rotation - cart. axis [0,1,0]        

 cryst.   s( 3) = (    -1          0          0      )    f =(  0.0000000 )
                  (     0          1          0      )       (  0.5000000 )
                  (     0          0         -1      )       (  0.0000000 )

 cart.    s( 3) = ( -1.0000000  0.0000000  0.0000000 )    f =(  0.0000000 )
                  (  0.0000000  1.0000000  0.0000000 )       (  0.1827958 )
                  (  0.0000000  0.0000000 -1.0000000 )       (  0.0000000 )


      isym =  4     180 deg rotation - cart. axis [1,0,0]        

 cryst.   s( 4) = (     1          0          0      )    f =(  0.5000000 )
                  (     0         -1          0      )       (  0.5000000 )
                  (     0          0         -1      )       (  0.5000000 )

 cart.    s( 4) = (  1.0000000  0.0000000  0.0000000 )    f =(  0.5000000 )
                  (  0.0000000 -1.0000000  0.0000000 )       (  0.1827958 )
                  (  0.0000000  0.0000000 -1.0000000 )       (  0.1996275 )


      isym =  5     inversion                                    

 cryst.   s( 5) = (    -1          0          0      )
                  (     0         -1          0      )
                  (     0          0         -1      )

 cart.    s( 5) = ( -1.0000000  0.0000000  0.0000000 )
                  (  0.0000000 -1.0000000  0.0000000 )
                  (  0.0000000  0.0000000 -1.0000000 )


      isym =  6     inv. 180 deg rotation - cart. axis [0,0,1]   

 cryst.   s( 6) = (     1          0          0      )    f =(  0.5000000 )
                  (     0          1          0      )       (  0.0000000 )
                  (     0          0         -1      )       (  0.5000000 )

 cart.    s( 6) = (  1.0000000  0.0000000  0.0000000 )    f =(  0.5000000 )
                  (  0.0000000  1.0000000  0.0000000 )       (  0.0000000 )
                  (  0.0000000  0.0000000 -1.0000000 )       (  0.1996275 )


      isym =  7     inv. 180 deg rotation - cart. axis [0,1,0]   

 cryst.   s( 7) = (     1          0          0      )    f =(  0.0000000 )
                  (     0         -1          0      )       (  0.5000000 )
                  (     0          0          1      )       (  0.0000000 )

 cart.    s( 7) = (  1.0000000  0.0000000  0.0000000 )    f =(  0.0000000 )
                  (  0.0000000 -1.0000000  0.0000000 )       (  0.1827958 )
                  (  0.0000000  0.0000000  1.0000000 )       (  0.0000000 )


      isym =  8     inv. 180 deg rotation - cart. axis [1,0,0]   

 cryst.   s( 8) = (    -1          0          0      )    f =(  0.5000000 )
                  (     0          1          0      )       (  0.5000000 )
                  (     0          0          1      )       ( -0.5000000 )

 cart.    s( 8) = ( -1.0000000  0.0000000  0.0000000 )    f =(  0.5000000 )
                  (  0.0000000  1.0000000  0.0000000 )       (  0.1827958 )
                  (  0.0000000  0.0000000  1.0000000 )       ( -0.1996275 )


     point group D_2h (mmm) 
     there are  8 classes
     the character table:

       E     C2    C2'   C2''  i     s_v   s_v'  s_v''
A_g    1.00  1.00  1.00  1.00  1.00  1.00  1.00  1.00
B_1g   1.00  1.00 -1.00 -1.00  1.00  1.00 -1.00 -1.00
B_2g   1.00 -1.00  1.00 -1.00  1.00 -1.00  1.00 -1.00
B_3g   1.00 -1.00 -1.00  1.00  1.00 -1.00 -1.00  1.00
A_u    1.00  1.00  1.00  1.00 -1.00 -1.00 -1.00 -1.00
B_1u   1.00  1.00 -1.00 -1.00 -1.00 -1.00  1.00  1.00
B_2u   1.00 -1.00  1.00 -1.00 -1.00  1.00 -1.00  1.00
B_3u   1.00 -1.00 -1.00  1.00 -1.00  1.00  1.00 -1.00

     the symmetry operations in each class and the name of the first element:

     E        1
          identity                                               
     C2       2
          180 deg rotation - cart. axis [0,0,1]                  
     C2'      4
          180 deg rotation - cart. axis [1,0,0]                  
     C2''     3
          180 deg rotation - cart. axis [0,1,0]                  
     i        5
          inversion                                              
     s_v      6
          inv. 180 deg rotation - cart. axis [0,0,1]             
     s_v'     8
          inv. 180 deg rotation - cart. axis [1,0,0]             
     s_v''    7
          inv. 180 deg rotation - cart. axis [0,1,0]             

   Cartesian axes

     site n.     atom                  positions (alat units)
         1        Se     tau(   1) = (   0.8549563   0.0913979   0.1929392  )
         2        Sn     tau(   2) = (   0.1165395   0.0913979   0.0448312  )
         3        Se     tau(   3) = (   0.6450437   0.2741937   0.3925667  )
         4        Sn     tau(   4) = (   0.3834605   0.2741937   0.2444587  )
         5        Se     tau(   5) = (   0.3549563   0.0913979   0.0066883  )
         6        Sn     tau(   6) = (   0.6165395   0.0913979   0.1547964  )
         7        Se     tau(   7) = (   0.1450437   0.2741937   0.2063158  )
         8        Sn     tau(   8) = (   0.8834605   0.2741937   0.3544239  )

     --------------------------------------------
     DFT-D3 Dispersion Correction (3-body terms):
     --------------------------------------------
       Reference C6 values for interpolation: 

         atom   Coordination number   C6
         Se         0.000           427.35
         Se         0.990           427.57
         Se         1.981           421.05
         Sn         0.000          1255.14
         Sn         0.951          1084.09
         Sn         1.950          1010.83
         Sn         2.926           818.29
         Sn         3.912           672.20

       Values used:

         atom   Coordination number  R0_AB[au]  C6      C8
         Se         3.464            3.332    421.05  29958.36
         Sn         4.204            3.957    672.48  84404.03
         Se         3.464            3.332    421.05  29958.36
         Sn         4.204            3.957    672.48  84404.03
         Se         3.464            3.332    421.05  29958.36
         Sn         4.204            3.957    672.48  84404.03
         Se         3.464            3.332    421.05  29958.36
         Sn         4.204            3.957    672.48  84404.03

         Molecular C6 ( Ry / a.u.^6 ) =     34504.13


   Crystallographic axes

     site n.     atom                  positions (cryst. coord.)
         1        Se     tau(   1) = (  0.8549563  0.2500000  0.4832481  )
         2        Sn     tau(   2) = (  0.1165395  0.2500000  0.1122870  )
         3        Se     tau(   3) = (  0.6450437  0.7500000  0.9832481  )
         4        Sn     tau(   4) = (  0.3834605  0.7500000  0.6122870  )
         5        Se     tau(   5) = (  0.3549563  0.2500000  0.0167519  )
         6        Sn     tau(   6) = (  0.6165395  0.2500000  0.3877130  )
         7        Se     tau(   7) = (  0.1450437  0.7500000  0.5167519  )
         8        Sn     tau(   8) = (  0.8834605  0.7500000  0.8877130  )

     number of k points=    32
                       cart. coord. in units 2pi/alat
        k(    1) = (   0.1666667   0.1709558   0.1565415), wk =   0.0833333
        k(    2) = (   0.1666667   0.1709558   0.4696246), wk =   0.0833333
        k(    3) = (   0.1666667   0.1709558   0.7827077), wk =   0.0833333
        k(    4) = (   0.1666667   0.1709558   1.0957908), wk =   0.0833333
        k(    5) = (   0.1666667   0.5128674   0.1565415), wk =   0.0833333
        k(    6) = (   0.1666667   0.5128674   0.4696246), wk =   0.0833333
        k(    7) = (   0.1666667   0.5128674   0.7827077), wk =   0.0833333
        k(    8) = (   0.1666667   0.5128674   1.0957908), wk =   0.0833333
        k(    9) = (   0.1666667   0.8547790   0.1565415), wk =   0.0833333
        k(   10) = (   0.1666667   0.8547790   0.4696246), wk =   0.0833333
        k(   11) = (   0.1666667   0.8547790   0.7827077), wk =   0.0833333
        k(   12) = (   0.1666667   0.8547790   1.0957908), wk =   0.0833333
        k(   13) = (   0.1666667   1.1966906   0.1565415), wk =   0.0833333
        k(   14) = (   0.1666667   1.1966906   0.4696246), wk =   0.0833333
        k(   15) = (   0.1666667   1.1966906   0.7827077), wk =   0.0833333
        k(   16) = (   0.1666667   1.1966906   1.0957908), wk =   0.0833333
        k(   17) = (  -0.5000000   0.1709558   0.1565415), wk =   0.0416667
        k(   18) = (  -0.5000000   0.1709558   0.4696246), wk =   0.0416667
        k(   19) = (  -0.5000000   0.1709558   0.7827077), wk =   0.0416667
        k(   20) = (  -0.5000000   0.1709558   1.0957908), wk =   0.0416667
        k(   21) = (  -0.5000000   0.5128674   0.1565415), wk =   0.0416667
        k(   22) = (  -0.5000000   0.5128674   0.4696246), wk =   0.0416667
        k(   23) = (  -0.5000000   0.5128674   0.7827077), wk =   0.0416667
        k(   24) = (  -0.5000000   0.5128674   1.0957908), wk =   0.0416667
        k(   25) = (  -0.5000000   0.8547790   0.1565415), wk =   0.0416667
        k(   26) = (  -0.5000000   0.8547790   0.4696246), wk =   0.0416667
        k(   27) = (  -0.5000000   0.8547790   0.7827077), wk =   0.0416667
        k(   28) = (  -0.5000000   0.8547790   1.0957908), wk =   0.0416667
        k(   29) = (  -0.5000000   1.1966906   0.1565415), wk =   0.0416667
        k(   30) = (  -0.5000000   1.1966906   0.4696246), wk =   0.0416667
        k(   31) = (  -0.5000000   1.1966906   0.7827077), wk =   0.0416667
        k(   32) = (  -0.5000000   1.1966906   1.0957908), wk =   0.0416667

                       cryst. coord.
        k(    1) = (   0.1666667   0.0625000   0.0625000), wk =   0.0833333
        k(    2) = (   0.1666667   0.0625000   0.1875000), wk =   0.0833333
        k(    3) = (   0.1666667   0.0625000   0.3125000), wk =   0.0833333
        k(    4) = (   0.1666667   0.0625000   0.4375000), wk =   0.0833333
        k(    5) = (   0.1666667   0.1875000   0.0625000), wk =   0.0833333
        k(    6) = (   0.1666667   0.1875000   0.1875000), wk =   0.0833333
        k(    7) = (   0.1666667   0.1875000   0.3125000), wk =   0.0833333
        k(    8) = (   0.1666667   0.1875000   0.4375000), wk =   0.0833333
        k(    9) = (   0.1666667   0.3125000   0.0625000), wk =   0.0833333
        k(   10) = (   0.1666667   0.3125000   0.1875000), wk =   0.0833333
        k(   11) = (   0.1666667   0.3125000   0.3125000), wk =   0.0833333
        k(   12) = (   0.1666667   0.3125000   0.4375000), wk =   0.0833333
        k(   13) = (   0.1666667   0.4375000   0.0625000), wk =   0.0833333
        k(   14) = (   0.1666667   0.4375000   0.1875000), wk =   0.0833333
        k(   15) = (   0.1666667   0.4375000   0.3125000), wk =   0.0833333
        k(   16) = (   0.1666667   0.4375000   0.4375000), wk =   0.0833333
        k(   17) = (  -0.5000000   0.0625000   0.0625000), wk =   0.0416667
        k(   18) = (  -0.5000000   0.0625000   0.1875000), wk =   0.0416667
        k(   19) = (  -0.5000000   0.0625000   0.3125000), wk =   0.0416667
        k(   20) = (  -0.5000000   0.0625000   0.4375000), wk =   0.0416667
        k(   21) = (  -0.5000000   0.1875000   0.0625000), wk =   0.0416667
        k(   22) = (  -0.5000000   0.1875000   0.1875000), wk =   0.0416667
        k(   23) = (  -0.5000000   0.1875000   0.3125000), wk =   0.0416667
        k(   24) = (  -0.5000000   0.1875000   0.4375000), wk =   0.0416667
        k(   25) = (  -0.5000000   0.3125000   0.0625000), wk =   0.0416667
        k(   26) = (  -0.5000000   0.3125000   0.1875000), wk =   0.0416667
        k(   27) = (  -0.5000000   0.3125000   0.3125000), wk =   0.0416667
        k(   28) = (  -0.5000000   0.3125000   0.4375000), wk =   0.0416667
        k(   29) = (  -0.5000000   0.4375000   0.0625000), wk =   0.0416667
        k(   30) = (  -0.5000000   0.4375000   0.1875000), wk =   0.0416667
        k(   31) = (  -0.5000000   0.4375000   0.3125000), wk =   0.0416667
        k(   32) = (  -0.5000000   0.4375000   0.4375000), wk =   0.0416667

     Dense  grid:   276173 G-vectors     FFT dimensions: ( 160,  60,  64)

     Smooth grid:    69937 G-vectors     FFT dimensions: ( 100,  36,  40)

     Dynamical RAM for                 wfc:       2.67 MB

     Dynamical RAM for     wfc (w. buffer):      31.99 MB

     Dynamical RAM for           str. fact:       4.21 MB

     Dynamical RAM for           local pot:       0.00 MB

     Dynamical RAM for          nlocal pot:       9.60 MB

     Dynamical RAM for                qrad:       3.59 MB

     Dynamical RAM for          rho,v,vnew:      13.35 MB

     Dynamical RAM for               rhoin:       4.45 MB

     Dynamical RAM for            rho*nmix:      33.71 MB

     Dynamical RAM for           G-vectors:       8.17 MB

     Dynamical RAM for          h,s,v(r/c):       0.29 MB

     Dynamical RAM for          <psi|beta>:       0.09 MB

     Dynamical RAM for                 psi:       5.33 MB

     Dynamical RAM for                hpsi:       5.33 MB

     Dynamical RAM for                spsi:       5.33 MB

     Dynamical RAM for      wfcinit/wfcrot:       6.99 MB

     Dynamical RAM for           addusdens:     134.85 MB

     Dynamical RAM for          addusforce:     138.73 MB

     Estimated static dynamical RAM per process >      93.40 MB

     Estimated max dynamical RAM per process >     265.85 MB

     Estimated total dynamical RAM >       1.43 GB

     Initial potential from superposition of free atoms

     starting charge      75.9995, renormalised to      80.0000
     Starting wfcs are   52 randomized atomic wfcs

     total cpu time spent up to now is        2.9 secs

     Self-consistent Calculation

     iteration #  1     ecut=    50.00 Ry     beta= 0.70
     Davidson diagonalization with overlap

---- Real-time Memory Report at c_bands before calling an iterative solver
           323 MiB given to the printing process from OS
             0 MiB allocation reported by mallinfo(arena+hblkhd)
          9843 MiB available memory on the node where the printing process lives
------------------
     ethr =  1.00E-02,  avg # of iterations =  2.0

     total cpu time spent up to now is        7.8 secs

     total energy              =    -826.63617859 Ry
     estimated scf accuracy    <       2.67773171 Ry

     iteration #  2     ecut=    50.00 Ry     beta= 0.70
     Davidson diagonalization with overlap

---- Real-time Memory Report at c_bands before calling an iterative solver
           414 MiB given to the printing process from OS
             0 MiB allocation reported by mallinfo(arena+hblkhd)
          9531 MiB available memory on the node where the printing process lives
------------------
     ethr =  3.35E-03,  avg # of iterations =  3.0

     total cpu time spent up to now is       13.2 secs

     total energy              =    -827.54249774 Ry
     estimated scf accuracy    <       0.97319681 Ry

     iteration #  3     ecut=    50.00 Ry     beta= 0.70
     Davidson diagonalization with overlap

---- Real-time Memory Report at c_bands before calling an iterative solver
           428 MiB given to the printing process from OS
             0 MiB allocation reported by mallinfo(arena+hblkhd)
          9444 MiB available memory on the node where the printing process lives
------------------
     ethr =  1.22E-03,  avg # of iterations =  2.5

     total cpu time spent up to now is       18.0 secs

     total energy              =    -827.73880797 Ry
     estimated scf accuracy    <       0.00994809 Ry

     iteration #  4     ecut=    50.00 Ry     beta= 0.70
     Davidson diagonalization with overlap

---- Real-time Memory Report at c_bands before calling an iterative solver
           446 MiB given to the printing process from OS
             0 MiB allocation reported by mallinfo(arena+hblkhd)
          9409 MiB available memory on the node where the printing process lives
------------------
     ethr =  1.24E-05,  avg # of iterations =  4.9

     total cpu time spent up to now is       23.7 secs

     total energy              =    -827.74521902 Ry
     estimated scf accuracy    <       0.00512170 Ry

     iteration #  5     ecut=    50.00 Ry     beta= 0.70
     Davidson diagonalization with overlap

---- Real-time Memory Report at c_bands before calling an iterative solver
           448 MiB given to the printing process from OS
             0 MiB allocation reported by mallinfo(arena+hblkhd)
          9397 MiB available memory on the node where the printing process lives
------------------
     ethr =  6.40E-06,  avg # of iterations =  3.1

     total cpu time spent up to now is       28.3 secs

     total energy              =    -827.74687515 Ry
     estimated scf accuracy    <       0.00082256 Ry

     iteration #  6     ecut=    50.00 Ry     beta= 0.70
     Davidson diagonalization with overlap

---- Real-time Memory Report at c_bands before calling an iterative solver
           450 MiB given to the printing process from OS
             0 MiB allocation reported by mallinfo(arena+hblkhd)
          9396 MiB available memory on the node where the printing process lives
------------------
     ethr =  1.03E-06,  avg # of iterations =  2.0

     total cpu time spent up to now is       32.5 secs

     total energy              =    -827.74688356 Ry
     estimated scf accuracy    <       0.00019508 Ry

     iteration #  7     ecut=    50.00 Ry     beta= 0.70
     Davidson diagonalization with overlap

---- Real-time Memory Report at c_bands before calling an iterative solver
           452 MiB given to the printing process from OS
             0 MiB allocation reported by mallinfo(arena+hblkhd)
          9393 MiB available memory on the node where the printing process lives
------------------
     ethr =  2.44E-07,  avg # of iterations =  2.8

     total cpu time spent up to now is       37.0 secs

     total energy              =    -827.74691901 Ry
     estimated scf accuracy    <       0.00000579 Ry

     iteration #  8     ecut=    50.00 Ry     beta= 0.70
     Davidson diagonalization with overlap

---- Real-time Memory Report at c_bands before calling an iterative solver
           454 MiB given to the printing process from OS
             0 MiB allocation reported by mallinfo(arena+hblkhd)
          9389 MiB available memory on the node where the printing process lives
------------------
     ethr =  7.24E-09,  avg # of iterations =  6.9

     total cpu time spent up to now is       45.4 secs

     total energy              =    -827.74692781 Ry
     estimated scf accuracy    <       0.00000499 Ry

     iteration #  9     ecut=    50.00 Ry     beta= 0.70
     Davidson diagonalization with overlap

---- Real-time Memory Report at c_bands before calling an iterative solver
           458 MiB given to the printing process from OS
             0 MiB allocation reported by mallinfo(arena+hblkhd)
          9383 MiB available memory on the node where the printing process lives
------------------
     ethr =  6.24E-09,  avg # of iterations =  2.3

     total cpu time spent up to now is       49.7 secs

     total energy              =    -827.74692844 Ry
     estimated scf accuracy    <       0.00000020 Ry

     iteration # 10     ecut=    50.00 Ry     beta= 0.70
     Davidson diagonalization with overlap

---- Real-time Memory Report at c_bands before calling an iterative solver
           462 MiB given to the printing process from OS
             0 MiB allocation reported by mallinfo(arena+hblkhd)
          9380 MiB available memory on the node where the printing process lives
------------------
     ethr =  2.56E-10,  avg # of iterations =  4.8

     total cpu time spent up to now is       55.5 secs

     total energy              =    -827.74692856 Ry
     estimated scf accuracy    <       0.00000002 Ry

     iteration # 11     ecut=    50.00 Ry     beta= 0.70
     Davidson diagonalization with overlap

---- Real-time Memory Report at c_bands before calling an iterative solver
           463 MiB given to the printing process from OS
             0 MiB allocation reported by mallinfo(arena+hblkhd)
          9380 MiB available memory on the node where the printing process lives
------------------
     ethr =  2.71E-11,  avg # of iterations =  4.1

     total cpu time spent up to now is       61.0 secs

     End of self-consistent calculation

          k = 0.1667 0.1710 0.1565 (  8722 PWs)   bands (ev):

   -13.6014 -13.5919 -13.5880 -13.5852 -13.5846 -13.5826 -13.5785 -13.5755
   -13.5717 -13.5658 -13.5654 -13.5647 -13.5537 -13.5490 -13.5316 -13.5298
   -13.5241 -13.5234 -13.5137 -13.5077  -5.9035  -5.6111  -4.8941  -4.4953
     0.4450   1.3081   2.1888   2.5492   3.0935   4.3248   4.4604   4.7352
     4.9947   5.0729   5.6433   5.9657   6.2123   6.6278   6.9870   7.2844

     occupation numbers 
     1.0000   1.0000   1.0000   1.0000   1.0000   1.0000   1.0000   1.0000
     1.0000   1.0000   1.0000   1.0000   1.0000   1.0000   1.0000   1.0000
     1.0000   1.0000   1.0000   1.0000   1.0000   1.0000   1.0000   1.0000
     1.0000   1.0000   1.0000   1.0000   1.0000   1.0000   1.0000   1.0000
     1.0000   1.0000   1.0000   1.0000   1.0000   1.0000   1.0000   1.0000

          k = 0.1667 0.1710 0.4696 (  8725 PWs)   bands (ev):

   -13.6000 -13.5913 -13.5879 -13.5863 -13.5843 -13.5838 -13.5791 -13.5763
   -13.5712 -13.5660 -13.5631 -13.5622 -13.5532 -13.5494 -13.5319 -13.5290
   -13.5251 -13.5240 -13.5132 -13.5082  -5.7868  -5.5042  -4.8937  -4.5331
     0.1311   1.0567   1.6451   2.2278   3.1928   4.3667   4.5789   5.1223
     5.3230   5.5997   5.6502   6.0731   6.4514   6.7555   7.0723   7.3111

     occupation numbers 
     1.0000   1.0000   1.0000   1.0000   1.0000   1.0000   1.0000   1.0000
     1.0000   1.0000   1.0000   1.0000   1.0000   1.0000   1.0000   1.0000
     1.0000   1.0000   1.0000   1.0000   1.0000   1.0000   1.0000   1.0000
     1.0000   1.0000   1.0000   1.0000   1.0000   1.0000   1.0000   1.0000
     1.0000   1.0000   1.0000   1.0000   1.0000   1.0000   1.0000   1.0000

          k = 0.1667 0.1710 0.7827 (  8709 PWs)   bands (ev):

   -13.5975 -13.5910 -13.5883 -13.5876 -13.5854 -13.5843 -13.5797 -13.5778
   -13.5700 -13.5666 -13.5593 -13.5585 -13.5528 -13.5503 -13.5316 -13.5281
   -13.5266 -13.5248 -13.5123 -13.5090  -5.5767  -5.3133  -4.9316  -4.6307
    -0.1751   0.5556   1.2040   1.7486   3.4961   4.5974   4.7969   5.3874
     5.6329   5.7600   6.0195   6.1287   6.6221   7.0887   7.1265   7.5602

     occupation numbers 
     1.0000   1.0000   1.0000   1.0000   1.0000   1.0000   1.0000   1.0000
     1.0000   1.0000   1.0000   1.0000   1.0000   1.0000   1.0000   1.0000
     1.0000   1.0000   1.0000   1.0000   1.0000   1.0000   1.0000   1.0000
     1.0000   1.0000   1.0000   1.0000   1.0000   1.0000   1.0000   1.0000
     1.0000   1.0000   1.0000   1.0000   1.0000   1.0000   1.0000   1.0000

          k = 0.1667 0.1710 1.0958 (  8735 PWs)   bands (ev):

   -13.5947 -13.5922 -13.5888 -13.5884 -13.5856 -13.5849 -13.5798 -13.5791
   -13.5687 -13.5675 -13.5554 -13.5551 -13.5534 -13.5521 -13.5305 -13.5289
   -13.5266 -13.5257 -13.5113 -13.5101  -5.3251  -5.1466  -4.9901  -4.8029
    -0.2306   0.0397   1.1155   1.3247   3.9657   4.4730   5.1726   5.4474
     5.6657   5.7961   6.0660   6.3394   6.9115   7.2182   7.3949   7.4789

     occupation numbers 
     1.0000   1.0000   1.0000   1.0000   1.0000   1.0000   1.0000   1.0000
     1.0000   1.0000   1.0000   1.0000   1.0000   1.0000   1.0000   1.0000
     1.0000   1.0000   1.0000   1.0000   1.0000   1.0000   1.0000   1.0000
     1.0000   1.0000   1.0000   1.0000   1.0000   1.0000   1.0000   1.0000
     1.0000   1.0000   1.0000   1.0000   1.0000   1.0000   1.0000   1.0000

          k = 0.1667 0.5129 0.1565 (  8739 PWs)   bands (ev):

   -13.5956 -13.5902 -13.5876 -13.5844 -13.5831 -13.5823 -13.5814 -13.5787
   -13.5725 -13.5681 -13.5633 -13.5621 -13.5515 -13.5498 -13.5321 -13.5293
   -13.5268 -13.5224 -13.5135 -13.5090  -5.7421  -5.4723  -4.8290  -4.4957
     0.2986   1.0586   1.8578   1.9691   3.2084   4.1912   4.4994   4.8296
     5.1324   5.2983   5.6693   6.0145   6.2305   6.8682   7.1338   7.2383

     occupation numbers 
     1.0000   1.0000   1.0000   1.0000   1.0000   1.0000   1.0000   1.0000
     1.0000   1.0000   1.0000   1.0000   1.0000   1.0000   1.0000   1.0000
     1.0000   1.0000   1.0000   1.0000   1.0000   1.0000   1.0000   1.0000
     1.0000   1.0000   1.0000   1.0000   1.0000   1.0000   1.0000   1.0000
     1.0000   1.0000   1.0000   1.0000   1.0000   1.0000   1.0000   1.0000

          k = 0.1667 0.5129 0.4696 (  8724 PWs)   bands (ev):

   -13.5956 -13.5902 -13.5890 -13.5849 -13.5833 -13.5825 -13.5807 -13.5799
   -13.5720 -13.5683 -13.5610 -13.5598 -13.5517 -13.5494 -13.5318 -13.5291
   -13.5271 -13.5233 -13.5130 -13.5093  -5.6314  -5.3718  -4.8258  -4.5225
     0.1405   0.9956   1.5017   1.8670   3.3418   3.7905   4.0859   4.9229
     5.1184   5.6716   5.8535   6.0390   6.6555   6.7936   7.1221   7.3010

     occupation numbers 
     1.0000   1.0000   1.0000   1.0000   1.0000   1.0000   1.0000   1.0000
     1.0000   1.0000   1.0000   1.0000   1.0000   1.0000   1.0000   1.0000
     1.0000   1.0000   1.0000   1.0000   1.0000   1.0000   1.0000   1.0000
     1.0000   1.0000   1.0000   1.0000   1.0000   1.0000   1.0000   1.0000
     1.0000   1.0000   1.0000   1.0000   1.0000   1.0000   1.0000   1.0000

          k = 0.1667 0.5129 0.7827 (  8733 PWs)   bands (ev):

   -13.5956 -13.5918 -13.5894 -13.5861 -13.5840 -13.5821 -13.5816 -13.5801
   -13.5710 -13.5687 -13.5578 -13.5562 -13.5519 -13.5494 -13.5311 -13.5289
   -13.5274 -13.5247 -13.5123 -13.5098  -5.4340  -5.1947  -4.8551  -4.5981
    -0.0332   0.6637   1.2360   1.6404   3.5992   3.7433   4.0360   4.8286
     4.9461   5.6846   5.7576   6.3072   6.5306   6.7959   7.0036   7.3027

     occupation numbers 
     1.0000   1.0000   1.0000   1.0000   1.0000   1.0000   1.0000   1.0000
     1.0000   1.0000   1.0000   1.0000   1.0000   1.0000   1.0000   1.0000
     1.0000   1.0000   1.0000   1.0000   1.0000   1.0000   1.0000   1.0000
     1.0000   1.0000   1.0000   1.0000   1.0000   1.0000   1.0000   1.0000
     1.0000   1.0000   1.0000   1.0000   1.0000   1.0000   1.0000   1.0000

          k = 0.1667 0.5129 1.0958 (  8743 PWs)   bands (ev):

   -13.5953 -13.5940 -13.5886 -13.5875 -13.5841 -13.5832 -13.5811 -13.5803
   -13.5700 -13.5693 -13.5548 -13.5535 -13.5520 -13.5504 -13.5302 -13.5293
   -13.5270 -13.5260 -13.5114 -13.5105  -5.2022  -5.0420  -4.9038  -4.7410
    -0.0376   0.2176   1.2208   1.3794   3.9170   3.9816   4.2590   4.5418
     4.8485   5.1689   5.8260   6.1100   6.4913   6.7441   7.0155   7.2073

     occupation numbers 
     1.0000   1.0000   1.0000   1.0000   1.0000   1.0000   1.0000   1.0000
     1.0000   1.0000   1.0000   1.0000   1.0000   1.0000   1.0000   1.0000
     1.0000   1.0000   1.0000   1.0000   1.0000   1.0000   1.0000   1.0000
     1.0000   1.0000   1.0000   1.0000   1.0000   1.0000   1.0000   1.0000
     1.0000   1.0000   1.0000   1.0000   1.0000   1.0000   1.0000   1.0000

          k = 0.1667 0.8548 0.1565 (  8745 PWs)   bands (ev):

   -13.5937 -13.5915 -13.5896 -13.5889 -13.5810 -13.5786 -13.5776 -13.5759
   -13.5710 -13.5699 -13.5629 -13.5574 -13.5522 -13.5481 -13.5362 -13.5349
   -13.5237 -13.5194 -13.5130 -13.5110  -5.4479  -5.2309  -4.7601  -4.5583
     0.1019   0.7422   1.0776   1.4267   3.5482   4.3079   4.6798   5.0375
     5.3788   5.4603   5.8084   5.9926   6.3505   6.8419   6.9543   7.3312

     occupation numbers 
     1.0000   1.0000   1.0000   1.0000   1.0000   1.0000   1.0000   1.0000
     1.0000   1.0000   1.0000   1.0000   1.0000   1.0000   1.0000   1.0000
     1.0000   1.0000   1.0000   1.0000   1.0000   1.0000   1.0000   1.0000
     1.0000   1.0000   1.0000   1.0000   1.0000   1.0000   1.0000   1.0000
     1.0000   1.0000   1.0000   1.0000   1.0000   1.0000   1.0000   1.0000

          k = 0.1667 0.8548 0.4696 (  8748 PWs)   bands (ev):

   -13.5963 -13.5934 -13.5910 -13.5895 -13.5816 -13.5777 -13.5772 -13.5758
   -13.5703 -13.5697 -13.5611 -13.5560 -13.5521 -13.5476 -13.5356 -13.5345
   -13.5238 -13.5201 -13.5127 -13.5110  -5.3512  -5.1453  -4.7479  -4.5605
     0.1407   0.8359   1.1089   1.3480   3.5493   3.6645   4.0281   4.6393
     5.0726   5.6169   5.6932   6.1585   6.2459   6.6295   6.8390   7.0904

     occupation numbers 
     1.0000   1.0000   1.0000   1.0000   1.0000   1.0000   1.0000   1.0000
     1.0000   1.0000   1.0000   1.0000   1.0000   1.0000   1.0000   1.0000
     1.0000   1.0000   1.0000   1.0000   1.0000   1.0000   1.0000   1.0000
     1.0000   1.0000   1.0000   1.0000   1.0000   1.0000   1.0000   1.0000
     1.0000   1.0000   1.0000   1.0000   1.0000   1.0000   1.0000   1.0000

          k = 0.1667 0.8548 0.7827 (  8739 PWs)   bands (ev):

   -13.5990 -13.5967 -13.5926 -13.5913 -13.5812 -13.5777 -13.5765 -13.5755
   -13.5695 -13.5693 -13.5585 -13.5546 -13.5508 -13.5474 -13.5348 -13.5339
   -13.5236 -13.5211 -13.5122 -13.5110  -5.1837  -4.9991  -4.7541  -4.5882
     0.2008   0.7897   1.1667   1.3357   3.1647   3.5089   3.9389   4.2140
     4.5380   5.1028   5.4170   5.7828   6.0886   6.3696   6.5982   7.0585

     occupation numbers 
     1.0000   1.0000   1.0000   1.0000   1.0000   1.0000   1.0000   1.0000
     1.0000   1.0000   1.0000   1.0000   1.0000   1.0000   1.0000   1.0000
     1.0000   1.0000   1.0000   1.0000   1.0000   1.0000   1.0000   1.0000
     1.0000   1.0000   1.0000   1.0000   1.0000   1.0000   1.0000   1.0000
     1.0000   1.0000   1.0000   1.0000   1.0000   1.0000   1.0000   1.0000

          k = 0.1667 0.8548 1.0958 (  8731 PWs)   bands (ev):

   -13.6003 -13.5994 -13.5936 -13.5931 -13.5801 -13.5787 -13.5759 -13.5755
   -13.5690 -13.5689 -13.5562 -13.5548 -13.5489 -13.5476 -13.5340 -13.5337
   -13.5230 -13.5221 -13.5116 -13.5112  -4.9968  -4.8775  -4.7790  -4.6682
     0.3090   0.5228   1.2970   1.3531   3.1815   3.5251   3.6159   3.9933
     4.3772   4.7729   5.1410   5.5313   5.7575   6.0229   6.6843   6.8193

     occupation numbers 
     1.0000   1.0000   1.0000   1.0000   1.0000   1.0000   1.0000   1.0000
     1.0000   1.0000   1.0000   1.0000   1.0000   1.0000   1.0000   1.0000
     1.0000   1.0000   1.0000   1.0000   1.0000   1.0000   1.0000   1.0000
     1.0000   1.0000   1.0000   1.0000   1.0000   1.0000   1.0000   1.0000
     1.0000   1.0000   1.0000   1.0000   1.0000   1.0000   1.0000   1.0000

          k = 0.1667 1.1967 0.1565 (  8748 PWs)   bands (ev):

   -13.5957 -13.5942 -13.5928 -13.5915 -13.5775 -13.5760 -13.5745 -13.5731
   -13.5677 -13.5657 -13.5642 -13.5588 -13.5497 -13.5449 -13.5425 -13.5405
   -13.5186 -13.5161 -13.5140 -13.5136  -5.0855  -4.9662  -4.7883  -4.7570
     0.0786   0.4093   0.6599   0.9251   4.0632   4.5066   4.8937   5.2244
     5.4118   5.4567   5.8697   6.1516   6.4742   6.6903   6.7480   6.9178

     occupation numbers 
     1.0000   1.0000   1.0000   1.0000   1.0000   1.0000   1.0000   1.0000
     1.0000   1.0000   1.0000   1.0000   1.0000   1.0000   1.0000   1.0000
     1.0000   1.0000   1.0000   1.0000   1.0000   1.0000   1.0000   1.0000
     1.0000   1.0000   1.0000   1.0000   1.0000   1.0000   1.0000   1.0000
     1.0000   1.0000   1.0000   1.0000   1.0000   1.0000   1.0000   1.0000

          k = 0.1667 1.1967 0.4696 (  8766 PWs)   bands (ev):

   -13.5983 -13.5970 -13.5943 -13.5933 -13.5779 -13.5761 -13.5734 -13.5725
   -13.5673 -13.5657 -13.5625 -13.5584 -13.5488 -13.5455 -13.5405 -13.5395
   -13.5188 -13.5169 -13.5135 -13.5133  -5.0145  -4.9050  -4.7558  -4.7224
     0.2242   0.5472   0.7834   0.9709   3.8206   4.0111   4.2850   4.5684
     4.7680   5.2096   5.6773   5.8656   5.9872   6.2721   6.7717   7.0274

     occupation numbers 
     1.0000   1.0000   1.0000   1.0000   1.0000   1.0000   1.0000   1.0000
     1.0000   1.0000   1.0000   1.0000   1.0000   1.0000   1.0000   1.0000
     1.0000   1.0000   1.0000   1.0000   1.0000   1.0000   1.0000   1.0000
     1.0000   1.0000   1.0000   1.0000   1.0000   1.0000   1.0000   1.0000
     1.0000   1.0000   1.0000   1.0000   1.0000   1.0000   1.0000   1.0000

          k = 0.1667 1.1967 0.7827 (  8736 PWs)   bands (ev):

   -13.6018 -13.6008 -13.5965 -13.5959 -13.5780 -13.5765 -13.5723 -13.5718
   -13.5665 -13.5653 -13.5606 -13.5579 -13.5472 -13.5455 -13.5385 -13.5381
   -13.5189 -13.5177 -13.5130 -13.5129  -4.8995  -4.8088  -4.7177  -4.6793
     0.4711   0.7607   0.9755   1.0393   3.1767   3.6270   3.7312   4.0536
     4.3330   4.6733   5.0209   5.4820   5.5847   5.8452   6.6346   6.7739

     occupation numbers 
     1.0000   1.0000   1.0000   1.0000   1.0000   1.0000   1.0000   1.0000
     1.0000   1.0000   1.0000   1.0000   1.0000   1.0000   1.0000   1.0000
     1.0000   1.0000   1.0000   1.0000   1.0000   1.0000   1.0000   1.0000
     1.0000   1.0000   1.0000   1.0000   1.0000   1.0000   1.0000   1.0000
     1.0000   1.0000   1.0000   1.0000   1.0000   1.0000   1.0000   1.0000

          k = 0.1667 1.1967 1.0958 (  8738 PWs)   bands (ev):

   -13.6039 -13.6036 -13.5980 -13.5978 -13.5777 -13.5771 -13.5717 -13.5715
   -13.5656 -13.5652 -13.5591 -13.5581 -13.5458 -13.5453 -13.5372 -13.5371
   -13.5187 -13.5182 -13.5127 -13.5127  -4.7883  -4.7362  -4.6996  -4.6664
     0.7140   0.8407   1.1268   1.1608   2.9221   3.1265   3.5150   3.6560
     4.1440   4.1788   4.6854   5.0092   5.5526   5.7413   6.4990   6.5483

     occupation numbers 
     1.0000   1.0000   1.0000   1.0000   1.0000   1.0000   1.0000   1.0000
     1.0000   1.0000   1.0000   1.0000   1.0000   1.0000   1.0000   1.0000
     1.0000   1.0000   1.0000   1.0000   1.0000   1.0000   1.0000   1.0000
     1.0000   1.0000   1.0000   1.0000   1.0000   1.0000   1.0000   1.0000
     1.0000   1.0000   1.0000   1.0000   1.0000   1.0000   1.0000   1.0000

          k =-0.5000 0.1710 0.1565 (  8734 PWs)   bands (ev):

   -13.5971 -13.5971 -13.5862 -13.5862 -13.5842 -13.5842 -13.5766 -13.5766
   -13.5689 -13.5689 -13.5649 -13.5649 -13.5514 -13.5514 -13.5304 -13.5304
   -13.5240 -13.5240 -13.5105 -13.5105  -5.7835  -5.7835  -4.6685  -4.6685
     0.7495   0.7495   2.4656   2.4656   3.7578   3.7578   4.6438   4.6438
     5.1170   5.1170   5.7248   5.7248   6.0745   6.0745   7.1953   7.1953

     occupation numbers 
     1.0000   1.0000   1.0000   1.0000   1.0000   1.0000   1.0000   1.0000
     1.0000   1.0000   1.0000   1.0000   1.0000   1.0000   1.0000   1.0000
     1.0000   1.0000   1.0000   1.0000   1.0000   1.0000   1.0000   1.0000
     1.0000   1.0000   1.0000   1.0000   1.0000   1.0000   1.0000   1.0000
     1.0000   1.0000   1.0000   1.0000   1.0000   1.0000   1.0000   1.0000

          k =-0.5000 0.1710 0.4696 (  8720 PWs)   bands (ev):

   -13.5962 -13.5962 -13.5862 -13.5862 -13.5849 -13.5849 -13.5776 -13.5776
   -13.5685 -13.5685 -13.5625 -13.5625 -13.5514 -13.5514 -13.5302 -13.5302
   -13.5247 -13.5247 -13.5106 -13.5106  -5.6719  -5.6719  -4.6869  -4.6869
     0.4632   0.4632   2.0020   2.0020   3.9847   3.9847   4.7093   4.7093
     5.3964   5.3964   5.8759   5.8759   6.5233   6.5233   7.1005   7.1005

     occupation numbers 
     1.0000   1.0000   1.0000   1.0000   1.0000   1.0000   1.0000   1.0000
     1.0000   1.0000   1.0000   1.0000   1.0000   1.0000   1.0000   1.0000
     1.0000   1.0000   1.0000   1.0000   1.0000   1.0000   1.0000   1.0000
     1.0000   1.0000   1.0000   1.0000   1.0000   1.0000   1.0000   1.0000
     1.0000   1.0000   1.0000   1.0000   1.0000   1.0000   1.0000   1.0000

          k =-0.5000 0.1710 0.7827 (  8736 PWs)   bands (ev):

   -13.5947 -13.5947 -13.5874 -13.5874 -13.5849 -13.5849 -13.5791 -13.5791
   -13.5681 -13.5681 -13.5588 -13.5588 -13.5517 -13.5517 -13.5299 -13.5299
   -13.5257 -13.5257 -13.5106 -13.5106  -5.4736  -5.4736  -4.7528  -4.7528
     0.1318   0.1318   1.4587   1.4587   4.3047   4.3047   4.9912   4.9912
     5.5358   5.5358   6.0946   6.0946   6.7366   6.7366   7.2752   7.2752

     occupation numbers 
     1.0000   1.0000   1.0000   1.0000   1.0000   1.0000   1.0000   1.0000
     1.0000   1.0000   1.0000   1.0000   1.0000   1.0000   1.0000   1.0000
     1.0000   1.0000   1.0000   1.0000   1.0000   1.0000   1.0000   1.0000
     1.0000   1.0000   1.0000   1.0000   1.0000   1.0000   1.0000   1.0000
     1.0000   1.0000   1.0000   1.0000   1.0000   1.0000   1.0000   1.0000

          k =-0.5000 0.1710 1.0958 (  8746 PWs)   bands (ev):

   -13.5933 -13.5933 -13.5887 -13.5887 -13.5850 -13.5850 -13.5801 -13.5801
   -13.5677 -13.5677 -13.5552 -13.5552 -13.5528 -13.5528 -13.5295 -13.5295
   -13.5265 -13.5265 -13.5106 -13.5106  -5.2576  -5.2576  -4.8756  -4.8756
    -0.0550  -0.0550   1.1026   1.1026   4.7142   4.7142   5.2918   5.2918
     5.3740   5.3740   5.9469   5.9469   7.1123   7.1123   7.3928   7.3928

     occupation numbers 
     1.0000   1.0000   1.0000   1.0000   1.0000   1.0000   1.0000   1.0000
     1.0000   1.0000   1.0000   1.0000   1.0000   1.0000   1.0000   1.0000
     1.0000   1.0000   1.0000   1.0000   1.0000   1.0000   1.0000   1.0000
     1.0000   1.0000   1.0000   1.0000   1.0000   1.0000   1.0000   1.0000
     1.0000   1.0000   1.0000   1.0000   1.0000   1.0000   1.0000   1.0000

          k =-0.5000 0.5129 0.1565 (  8740 PWs)   bands (ev):

   -13.5929 -13.5929 -13.5865 -13.5865 -13.5828 -13.5828 -13.5798 -13.5798
   -13.5702 -13.5702 -13.5624 -13.5624 -13.5508 -13.5508 -13.5308 -13.5308
   -13.5244 -13.5244 -13.5112 -13.5112  -5.6307  -5.6307  -4.6382  -4.6382
     0.5842   0.5842   1.9592   1.9592   3.8848   3.8848   4.5314   4.5314
     5.4227   5.4227   5.6114   5.6114   6.2777   6.2777   7.2813   7.2813

     occupation numbers 
     1.0000   1.0000   1.0000   1.0000   1.0000   1.0000   1.0000   1.0000
     1.0000   1.0000   1.0000   1.0000   1.0000   1.0000   1.0000   1.0000
     1.0000   1.0000   1.0000   1.0000   1.0000   1.0000   1.0000   1.0000
     1.0000   1.0000   1.0000   1.0000   1.0000   1.0000   1.0000   1.0000
     1.0000   1.0000   1.0000   1.0000   1.0000   1.0000   1.0000   1.0000

          k =-0.5000 0.5129 0.4696 (  8730 PWs)   bands (ev):

   -13.5930 -13.5930 -13.5875 -13.5875 -13.5827 -13.5827 -13.5801 -13.5801
   -13.5700 -13.5700 -13.5602 -13.5602 -13.5508 -13.5508 -13.5307 -13.5307
   -13.5250 -13.5250 -13.5110 -13.5110  -5.5252  -5.5252  -4.6502  -4.6502
     0.4580   0.4580   1.7374   1.7374   3.8258   3.8258   4.4178   4.4178
     5.0953   5.0953   6.0565   6.0565   6.6547   6.6547   7.2045   7.2045

     occupation numbers 
     1.0000   1.0000   1.0000   1.0000   1.0000   1.0000   1.0000   1.0000
     1.0000   1.0000   1.0000   1.0000   1.0000   1.0000   1.0000   1.0000
     1.0000   1.0000   1.0000   1.0000   1.0000   1.0000   1.0000   1.0000
     1.0000   1.0000   1.0000   1.0000   1.0000   1.0000   1.0000   1.0000
     1.0000   1.0000   1.0000   1.0000   1.0000   1.0000   1.0000   1.0000

          k =-0.5000 0.5129 0.7827 (  8716 PWs)   bands (ev):

   -13.5934 -13.5934 -13.5892 -13.5892 -13.5825 -13.5825 -13.5802 -13.5802
   -13.5697 -13.5697 -13.5571 -13.5571 -13.5507 -13.5507 -13.5303 -13.5303
   -13.5259 -13.5259 -13.5108 -13.5108  -5.3397  -5.3397  -4.7014  -4.7014
     0.2619   0.2619   1.4316   1.4316   3.8170   3.8170   4.5878   4.5878
     4.9426   4.9426   6.1333   6.1333   6.5130   6.5130   7.1609   7.1609

     occupation numbers 
     1.0000   1.0000   1.0000   1.0000   1.0000   1.0000   1.0000   1.0000
     1.0000   1.0000   1.0000   1.0000   1.0000   1.0000   1.0000   1.0000
     1.0000   1.0000   1.0000   1.0000   1.0000   1.0000   1.0000   1.0000
     1.0000   1.0000   1.0000   1.0000   1.0000   1.0000   1.0000   1.0000
     1.0000   1.0000   1.0000   1.0000   1.0000   1.0000   1.0000   1.0000

          k =-0.5000 0.5129 1.0958 (  8718 PWs)   bands (ev):

   -13.5938 -13.5938 -13.5903 -13.5903 -13.5822 -13.5822 -13.5804 -13.5804
   -13.5695 -13.5695 -13.5546 -13.5546 -13.5509 -13.5509 -13.5301 -13.5301
   -13.5265 -13.5265 -13.5107 -13.5107  -5.1414  -5.1414  -4.8038  -4.8038
     0.1247   0.1247   1.2055   1.2055   4.0558   4.0558   4.4646   4.4646
     5.1799   5.1799   5.7469   5.7469   6.4164   6.4164   6.9916   6.9916

     occupation numbers 
     1.0000   1.0000   1.0000   1.0000   1.0000   1.0000   1.0000   1.0000
     1.0000   1.0000   1.0000   1.0000   1.0000   1.0000   1.0000   1.0000
     1.0000   1.0000   1.0000   1.0000   1.0000   1.0000   1.0000   1.0000
     1.0000   1.0000   1.0000   1.0000   1.0000   1.0000   1.0000   1.0000
     1.0000   1.0000   1.0000   1.0000   1.0000   1.0000   1.0000   1.0000

          k =-0.5000 0.8548 0.1565 (  8766 PWs)   bands (ev):

   -13.5931 -13.5931 -13.5886 -13.5886 -13.5794 -13.5794 -13.5778 -13.5778
   -13.5702 -13.5702 -13.5604 -13.5604 -13.5498 -13.5498 -13.5357 -13.5357
   -13.5214 -13.5214 -13.5120 -13.5120  -5.3569  -5.3569  -4.6410  -4.6410
     0.3647   0.3647   1.2546   1.2546   4.1697   4.1697   4.7106   4.7106
     5.5873   5.5873   5.7492   5.7492   6.2904   6.2904   7.1480   7.1480

     occupation numbers 
     1.0000   1.0000   1.0000   1.0000   1.0000   1.0000   1.0000   1.0000
     1.0000   1.0000   1.0000   1.0000   1.0000   1.0000   1.0000   1.0000
     1.0000   1.0000   1.0000   1.0000   1.0000   1.0000   1.0000   1.0000
     1.0000   1.0000   1.0000   1.0000   1.0000   1.0000   1.0000   1.0000
     1.0000   1.0000   1.0000   1.0000   1.0000   1.0000   1.0000   1.0000

          k =-0.5000 0.8548 0.4696 (  8732 PWs)   bands (ev):

   -13.5949 -13.5949 -13.5904 -13.5904 -13.5794 -13.5794 -13.5768 -13.5768
   -13.5697 -13.5697 -13.5591 -13.5591 -13.5493 -13.5493 -13.5354 -13.5354
   -13.5217 -13.5217 -13.5118 -13.5118  -5.2656  -5.2656  -4.6365  -4.6365
     0.4224   0.4224   1.2458   1.2458   3.7121   3.7121   4.5261   4.5261
     5.0042   5.0042   6.0000   6.0000   6.2220   6.2220   7.0449   7.0449

     occupation numbers 
     1.0000   1.0000   1.0000   1.0000   1.0000   1.0000   1.0000   1.0000
     1.0000   1.0000   1.0000   1.0000   1.0000   1.0000   1.0000   1.0000
     1.0000   1.0000   1.0000   1.0000   1.0000   1.0000   1.0000   1.0000
     1.0000   1.0000   1.0000   1.0000   1.0000   1.0000   1.0000   1.0000
     1.0000   1.0000   1.0000   1.0000   1.0000   1.0000   1.0000   1.0000

          k =-0.5000 0.8548 0.7827 (  8734 PWs)   bands (ev):

   -13.5973 -13.5973 -13.5929 -13.5929 -13.5791 -13.5791 -13.5761 -13.5761
   -13.5691 -13.5691 -13.5575 -13.5575 -13.5482 -13.5482 -13.5350 -13.5350
   -13.5220 -13.5220 -13.5116 -13.5116  -5.1097  -5.1097  -4.6529  -4.6529
     0.4599   0.4599   1.2468   1.2468   3.3682   3.3682   4.1906   4.1906
     4.7950   4.7950   5.4799   5.4799   6.0910   6.0910   6.9027   6.9027

     occupation numbers 
     1.0000   1.0000   1.0000   1.0000   1.0000   1.0000   1.0000   1.0000
     1.0000   1.0000   1.0000   1.0000   1.0000   1.0000   1.0000   1.0000
     1.0000   1.0000   1.0000   1.0000   1.0000   1.0000   1.0000   1.0000
     1.0000   1.0000   1.0000   1.0000   1.0000   1.0000   1.0000   1.0000
     1.0000   1.0000   1.0000   1.0000   1.0000   1.0000   1.0000   1.0000

          k =-0.5000 0.8548 1.0958 (  8726 PWs)   bands (ev):

   -13.5990 -13.5990 -13.5946 -13.5946 -13.5787 -13.5787 -13.5759 -13.5759
   -13.5687 -13.5687 -13.5565 -13.5565 -13.5472 -13.5472 -13.5347 -13.5347
   -13.5221 -13.5221 -13.5114 -13.5114  -4.9509  -4.9509  -4.7101  -4.7101
     0.4384   0.4384   1.2731   1.2731   3.3815   3.3815   3.7429   3.7429
     4.7969   4.7969   5.1059   5.1059   6.0608   6.0608   6.5729   6.5729

     occupation numbers 
     1.0000   1.0000   1.0000   1.0000   1.0000   1.0000   1.0000   1.0000
     1.0000   1.0000   1.0000   1.0000   1.0000   1.0000   1.0000   1.0000
     1.0000   1.0000   1.0000   1.0000   1.0000   1.0000   1.0000   1.0000
     1.0000   1.0000   1.0000   1.0000   1.0000   1.0000   1.0000   1.0000
     1.0000   1.0000   1.0000   1.0000   1.0000   1.0000   1.0000   1.0000

          k =-0.5000 1.1967 0.1565 (  8752 PWs)   bands (ev):

   -13.5945 -13.5945 -13.5928 -13.5928 -13.5758 -13.5758 -13.5751 -13.5751
   -13.5662 -13.5662 -13.5617 -13.5617 -13.5468 -13.5468 -13.5418 -13.5418
   -13.5173 -13.5173 -13.5138 -13.5138  -5.0329  -5.0329  -4.7660  -4.7660
     0.3344   0.3344   0.6489   0.6489   4.6324   4.6324   4.9816   4.9816
     5.4786   5.4786   5.7224   5.7224   6.4112   6.4112   6.7767   6.7767

     occupation numbers 
     1.0000   1.0000   1.0000   1.0000   1.0000   1.0000   1.0000   1.0000
     1.0000   1.0000   1.0000   1.0000   1.0000   1.0000   1.0000   1.0000
     1.0000   1.0000   1.0000   1.0000   1.0000   1.0000   1.0000   1.0000
     1.0000   1.0000   1.0000   1.0000   1.0000   1.0000   1.0000   1.0000
     1.0000   1.0000   1.0000   1.0000   1.0000   1.0000   1.0000   1.0000

          k =-0.5000 1.1967 0.4696 (  8764 PWs)   bands (ev):

   -13.5967 -13.5967 -13.5950 -13.5950 -13.5757 -13.5757 -13.5747 -13.5747
   -13.5656 -13.5656 -13.5611 -13.5611 -13.5458 -13.5458 -13.5410 -13.5410
   -13.5173 -13.5173 -13.5138 -13.5138  -4.9666  -4.9666  -4.7326  -4.7326
     0.4669   0.4669   0.7525   0.7525   3.9953   3.9953   4.5243   4.5243
     5.0646   5.0646   5.5067   5.5067   6.2133   6.2133   6.6493   6.6493

     occupation numbers 
     1.0000   1.0000   1.0000   1.0000   1.0000   1.0000   1.0000   1.0000
     1.0000   1.0000   1.0000   1.0000   1.0000   1.0000   1.0000   1.0000
     1.0000   1.0000   1.0000   1.0000   1.0000   1.0000   1.0000   1.0000
     1.0000   1.0000   1.0000   1.0000   1.0000   1.0000   1.0000   1.0000
     1.0000   1.0000   1.0000   1.0000   1.0000   1.0000   1.0000   1.0000

          k =-0.5000 1.1967 0.7827 (  8722 PWs)   bands (ev):

   -13.5996 -13.5996 -13.5979 -13.5979 -13.5757 -13.5757 -13.5743 -13.5743
   -13.5646 -13.5646 -13.5604 -13.5604 -13.5443 -13.5443 -13.5399 -13.5399
   -13.5173 -13.5173 -13.5136 -13.5136  -4.8611  -4.8611  -4.6917  -4.6917
     0.6647   0.6647   0.9302   0.9302   3.4304   3.4304   3.9447   3.9447
     4.5030   4.5030   4.9613   4.9613   6.1206   6.1206   6.4922   6.4922

     occupation numbers 
     1.0000   1.0000   1.0000   1.0000   1.0000   1.0000   1.0000   1.0000
     1.0000   1.0000   1.0000   1.0000   1.0000   1.0000   1.0000   1.0000
     1.0000   1.0000   1.0000   1.0000   1.0000   1.0000   1.0000   1.0000
     1.0000   1.0000   1.0000   1.0000   1.0000   1.0000   1.0000   1.0000
     1.0000   1.0000   1.0000   1.0000   1.0000   1.0000   1.0000   1.0000

          k =-0.5000 1.1967 1.0958 (  8736 PWs)   bands (ev):

   -13.6017 -13.6017 -13.6001 -13.6001 -13.5757 -13.5757 -13.5742 -13.5742
   -13.5640 -13.5640 -13.5598 -13.5598 -13.5431 -13.5431 -13.5390 -13.5390
   -13.5174 -13.5174 -13.5135 -13.5135  -4.7672  -4.7672  -4.6781  -4.6781
     0.7928   0.7928   1.1085   1.1085   3.2358   3.2358   3.4825   3.4825
     4.1452   4.1452   4.4384   4.4384   6.2173   6.2173   6.4044   6.4044

     occupation numbers 
     1.0000   1.0000   1.0000   1.0000   1.0000   1.0000   1.0000   1.0000
     1.0000   1.0000   1.0000   1.0000   1.0000   1.0000   1.0000   1.0000
     1.0000   1.0000   1.0000   1.0000   1.0000   1.0000   1.0000   1.0000
     1.0000   1.0000   1.0000   1.0000   1.0000   1.0000   1.0000   1.0000
     1.0000   1.0000   1.0000   1.0000   1.0000   1.0000   1.0000   1.0000

     highest occupied level (ev):     7.5602

!    total energy              =    -827.74692857 Ry
     estimated scf accuracy    <          1.3E-09 Ry

     The total energy is the sum of the following terms:
     one-electron contribution =    -263.90181388 Ry
     hartree contribution      =     181.58496725 Ry
     xc contribution           =    -309.03513267 Ry
     ewald contribution        =    -436.27418071 Ry
     DFT-D3 Dispersion         =      -0.12076856 Ry

     convergence has been achieved in  11 iterations

     Forces acting on atoms (cartesian axes, Ry/au):

     atom    1 type  2   force =     0.00385778    0.00000000   -0.00001339
     atom    2 type  1   force =    -0.00402589    0.00000000   -0.00025137
     atom    3 type  2   force =    -0.00385778    0.00000000   -0.00001339
     atom    4 type  1   force =     0.00402589    0.00000000   -0.00025137
     atom    5 type  2   force =     0.00385778    0.00000000    0.00001339
     atom    6 type  1   force =    -0.00402589    0.00000000    0.00025137
     atom    7 type  2   force =    -0.00385778    0.00000000    0.00001339
     atom    8 type  1   force =     0.00402589    0.00000000    0.00025137
     The non-local contrib.  to forces
     atom    1 type  2   force =    -0.10493712    0.00000000    0.11293024
     atom    2 type  1   force =     0.34879302    0.00000000    0.30379196
     atom    3 type  2   force =     0.10493712    0.00000000    0.11293024
     atom    4 type  1   force =    -0.34879302    0.00000000    0.30379196
     atom    5 type  2   force =    -0.10493712    0.00000000   -0.11293024
     atom    6 type  1   force =     0.34879302    0.00000000   -0.30379196
     atom    7 type  2   force =     0.10493712    0.00000000   -0.11293024
     atom    8 type  1   force =    -0.34879302    0.00000000   -0.30379196
     The ionic contribution  to forces
     atom    1 type  2   force =     1.23381356   -0.00000000   -1.26706516
     atom    2 type  1   force =    -0.62739715   -0.00000000   -0.69207172
     atom    3 type  2   force =    -1.23381356    0.00000000   -1.26706516
     atom    4 type  1   force =     0.62739715   -0.00000000   -0.69207172
     atom    5 type  2   force =     1.23381356   -0.00000000    1.26706516
     atom    6 type  1   force =    -0.62739715   -0.00000000    0.69207172
     atom    7 type  2   force =    -1.23381356    0.00000000    1.26706516
     atom    8 type  1   force =     0.62739715   -0.00000000    0.69207172
     The local contribution  to forces
     atom    1 type  2   force =    -1.13589773    0.00000000    1.16505757
     atom    2 type  1   force =     0.28096988   -0.00000000    0.39216765
     atom    3 type  2   force =     1.13589773    0.00000000    1.16505757
     atom    4 type  1   force =    -0.28096988    0.00000000    0.39216765
     atom    5 type  2   force =    -1.13589773   -0.00000000   -1.16505757
     atom    6 type  1   force =     0.28096988   -0.00000000   -0.39216765
     atom    7 type  2   force =     1.13589773    0.00000000   -1.16505757
     atom    8 type  1   force =    -0.28096988    0.00000000   -0.39216765
     The core correction contribution to forces
     atom    1 type  2   force =     0.01163209    0.00000000   -0.01251739
     atom    2 type  1   force =    -0.00578409    0.00000000   -0.00514988
     atom    3 type  2   force =    -0.01163209   -0.00000000   -0.01251739
     atom    4 type  1   force =     0.00578409    0.00000000   -0.00514988
     atom    5 type  2   force =     0.01163209    0.00000000    0.01251739
     atom    6 type  1   force =    -0.00578409    0.00000000    0.00514988
     atom    7 type  2   force =    -0.01163209    0.00000000    0.01251739
     atom    8 type  1   force =     0.00578409    0.00000000    0.00514988
     The Hubbard contrib.    to forces
     atom    1 type  2   force =     0.00000000    0.00000000    0.00000000
     atom    2 type  1   force =     0.00000000    0.00000000    0.00000000
     atom    3 type  2   force =     0.00000000    0.00000000    0.00000000
     atom    4 type  1   force =     0.00000000    0.00000000    0.00000000
     atom    5 type  2   force =     0.00000000    0.00000000    0.00000000
     atom    6 type  1   force =     0.00000000    0.00000000    0.00000000
     atom    7 type  2   force =     0.00000000    0.00000000    0.00000000
     atom    8 type  1   force =     0.00000000    0.00000000    0.00000000
     The SCF correction term to forces
     atom    1 type  2   force =    -0.00000527    0.00000000    0.00000036
     atom    2 type  1   force =     0.00006984    0.00000000    0.00003547
     atom    3 type  2   force =     0.00000527   -0.00000000    0.00000036
     atom    4 type  1   force =    -0.00006984   -0.00000000    0.00003547
     atom    5 type  2   force =    -0.00000527   -0.00000000   -0.00000036
     atom    6 type  1   force =     0.00006984   -0.00000000   -0.00003547
     atom    7 type  2   force =     0.00000527    0.00000000   -0.00000036
     atom    8 type  1   force =    -0.00006984    0.00000000   -0.00003547

     DFT-D3 dispersion contribution to forces:
     atom    1 type  2   force =    -0.00074775    0.00000000    0.00158100
     atom    2 type  1   force =    -0.00067739    0.00000000    0.00097515
     atom    3 type  2   force =     0.00074775    0.00000000    0.00158100
     atom    4 type  1   force =     0.00067739   -0.00000000    0.00097515
     atom    5 type  2   force =    -0.00074775    0.00000000   -0.00158100
     atom    6 type  1   force =    -0.00067739    0.00000000   -0.00097515
     atom    7 type  2   force =     0.00074775   -0.00000000   -0.00158100
     atom    8 type  1   force =     0.00067739   -0.00000000   -0.00097515

     Total force =     0.011163     Total SCF correction =     0.000157

     DFT-D3 dispersion Force =     0.004228

     Writing all to output data dir ./tmp/SnSe_pnma.save/ :
     XML data file, charge density, pseudopotentials, collected wavefunctions
 
     init_run     :      2.34s CPU      2.64s WALL (       1 calls)
     electrons    :     54.72s CPU     58.11s WALL (       1 calls)
     forces       :      0.95s CPU      1.12s WALL (       1 calls)
     force_dftd3  :      0.06s CPU      0.06s WALL (       1 calls)

     Called by init_run:
     wfcinit      :      1.43s CPU      1.51s WALL (       1 calls)
     wfcinit:atom :      0.02s CPU      0.02s WALL (      11 calls)
     wfcinit:wfcr :      1.27s CPU      1.32s WALL (      11 calls)
     potinit      :      0.21s CPU      0.24s WALL (       1 calls)
     hinit0       :      0.26s CPU      0.27s WALL (       1 calls)

     Called by electrons:
     c_bands      :     40.24s CPU     40.52s WALL (      11 calls)
     sum_band     :      9.84s CPU     11.34s WALL (      11 calls)
     v_of_rho     :      1.71s CPU      1.74s WALL (      12 calls)
     v_h          :      0.13s CPU      0.13s WALL (      12 calls)
     v_xc         :      1.71s CPU      1.74s WALL (      13 calls)
     newd         :      3.05s CPU      4.72s WALL (      12 calls)
     mix_rho      :      0.17s CPU      0.19s WALL (      11 calls)
     energy_dftd3 :      0.05s CPU      0.05s WALL (       1 calls)

     Called by c_bands:
     init_us_2    :      1.15s CPU      1.18s WALL (     264 calls)
     cegterg      :     35.99s CPU     36.18s WALL (     121 calls)

     Called by sum_band:
     sum_band:wei :      0.00s CPU      0.00s WALL (      11 calls)
     sum_band:loo :      6.06s CPU      6.11s WALL (      11 calls)
     sum_band:buf :      0.07s CPU      0.07s WALL (     121 calls)
     sum_band:ini :      0.50s CPU      0.50s WALL (     121 calls)
     sum_band:cal :      0.71s CPU      0.71s WALL (     121 calls)
     sum_band:bec :      0.01s CPU      0.01s WALL (     121 calls)
     addusdens    :      3.18s CPU      4.60s WALL (      11 calls)
                                        0.00s GPU  (      11 calls)
     addusd:skk   :      0.01s CPU      0.02s WALL (      22 calls)
                                        0.00s GPU  (      22 calls)

     Called by *egterg:
     cdiaghg      :      0.89s CPU      0.89s WALL (     558 calls)
     cegterg:over :      1.85s CPU      1.86s WALL (     437 calls)
     cegterg:upda :      1.11s CPU      1.12s WALL (     437 calls)
     cegterg:last :      2.57s CPU      2.57s WALL (     319 calls)
     h_psi        :     27.04s CPU     27.22s WALL (     569 calls)
     s_psi        :      2.59s CPU      2.61s WALL (     569 calls)
     g_psi        :      0.11s CPU      0.11s WALL (     437 calls)

     Called by h_psi:
     h_psi:calbec :      2.39s CPU      2.41s WALL (     569 calls)
     vloc_psi     :     21.82s CPU     21.97s WALL (     569 calls)
     add_vuspsi   :      2.62s CPU      2.62s WALL (     569 calls)

     General routines
     calbec       :      3.34s CPU      3.37s WALL (     734 calls)
     fft          :      0.86s CPU      0.89s WALL (     165 calls)
     ffts         :      0.02s CPU      0.02s WALL (      23 calls)
     fftw         :     14.56s CPU     14.67s WALL (   35872 calls)
     interpolate  :      0.09s CPU      0.09s WALL (      12 calls)
 
     Parallel routines
 
     PWSCF        :     58.36s CPU   1m 2.88s WALL

 
   This run was terminated on:  17:26: 3  20May2026            

=------------------------------------------------------------------------------=
   JOB DONE.
=------------------------------------------------------------------------------=
