
     Program PWSCF v.7.3.1 starts on 20May2026 at 14:54:18 

     This program is part of the open-source Quantum ESPRESSO suite
     for quantum simulation of materials; please cite
         "P. Giannozzi et al., J. Phys.:Condens. Matter 21 395502 (2009);
         "P. Giannozzi et al., J. Phys.:Condens. Matter 29 465901 (2017);
         "P. Giannozzi et al., J. Chem. Phys. 152 154105 (2020);
          URL http://www.quantum-espresso.org", 
     in publications or presentations arising from this work. More details at
     http://www.quantum-espresso.org/quote

     Parallel version (MPI & OpenMP), running on       6 processor cores
     Number of MPI processes:                 6
     Threads/MPI process:                     1

     MPI processes distributed on     1 nodes
     10815 MiB available memory on the printing compute node when the environment starts
 
     Waiting for input...
     Reading input from standard input

     Current dimensions of program PWSCF are:
     Max number of different atomic species (ntypx) = 10
     Max number of k-points (npk) =  40000
     Max angular momentum in pseudopotentials (lmaxx) =  4
 
     K-points division:     npool     =       3
     R & G space division:  proc/nbgrp/npool/nimage =       2
     Subspace diagonalization in iterative solution of the eigenvalue problem:
     a serial algorithm will be used

 
     Parallelization info
     --------------------
     sticks:   dense  smooth     PW     G-vecs:    dense   smooth      PW
     Min        2001     802    243                63380    16017    2589
     Max        2002     803    244                63381    16018    2590
     Sum        4003    1605    487               126761    32035    5179
 
     Using Slab Decomposition
 


     bravais-lattice index     =            8
     lattice parameter (alat)  =      21.2783  a.u.
     unit-cell volume          =    1443.9524 (a.u.)^3
     number of atoms/cell      =            8
     number of atomic types    =            2
     number of electrons       =        80.00
     number of Kohn-Sham states=           40
     kinetic-energy cutoff     =      30.0000  Ry
     charge density cutoff     =     300.0000  Ry
     scf convergence threshold =      1.0E-08
     mixing beta               =       0.7000
     number of iterations used =            8  plain     mixing
     Exchange-correlation= SLA  PW   PBE  PBE
                           (   1   4   3   4   0   0   0)

     celldm(1)=  21.278316  celldm(2)=   0.370462  celldm(3)=   0.404574
     celldm(4)=   0.000000  celldm(5)=   0.000000  celldm(6)=   0.000000

     crystal axes: (cart. coord. in units of alat)
               a(1) = (   1.000000   0.000000   0.000000 )  
               a(2) = (   0.000000   0.370462   0.000000 )  
               a(3) = (   0.000000   0.000000   0.404574 )  

     reciprocal axes: (cart. coord. in units 2 pi/alat)
               b(1) = (  1.000000  0.000000  0.000000 )  
               b(2) = (  0.000000  2.699334  0.000000 )  
               b(3) = (  0.000000  0.000000  2.471737 )  


     PseudoPot. # 1 for Sn read from file:
     ../pseudo/Sn_pbe_v1.uspp.F.UPF
     MD5 check sum: 4cf58ce39ec5d5d420df3dd08604eb00
     Pseudo is Ultrasoft + core correction, Zval = 14.0
     Generated by new atomic code, or converted to UPF format
     Using radial grid of  891 points,  6 beta functions with: 
                l(1) =   0
                l(2) =   0
                l(3) =   1
                l(4) =   1
                l(5) =   2
                l(6) =   2
     Q(r) pseudized with  6 coefficients,  rinner =    1.200   1.200   1.200
                                                       1.200   1.200

     PseudoPot. # 2 for Se read from file:
     ../pseudo/Se_pbe_v1.uspp.F.UPF
     MD5 check sum: 1b3568f3a8ae88f9a2a0ad0698632c85
     Pseudo is Ultrasoft + core correction, Zval =  6.0
     Generated by new atomic code, or converted to UPF format
     Using radial grid of  877 points,  6 beta functions with: 
                l(1) =   0
                l(2) =   0
                l(3) =   1
                l(4) =   1
                l(5) =   2
                l(6) =   2
     Q(r) pseudized with  8 coefficients,  rinner =    1.300   1.300   1.300
                                                       1.300   1.300

     atomic species   valence    mass     pseudopotential
     Sn               14.00   118.71000     Sn( 1.00)
     Se                6.00    78.97100     Se( 1.00)

      8 Sym. Ops., with inversion, found ( 6 have fractional translation)


                                    s                        frac. trans.

      isym =  1     identity                                     

 cryst.   s( 1) = (     1          0          0      )
                  (     0          1          0      )
                  (     0          0          1      )

 cart.    s( 1) = (  1.0000000  0.0000000  0.0000000 )
                  (  0.0000000  1.0000000  0.0000000 )
                  (  0.0000000  0.0000000  1.0000000 )


      isym =  2     180 deg rotation - cart. axis [0,0,1]        

 cryst.   s( 2) = (    -1          0          0      )    f =(  0.5000000 )
                  (     0         -1          0      )       (  0.0000000 )
                  (     0          0          1      )       ( -0.5000000 )

 cart.    s( 2) = ( -1.0000000  0.0000000  0.0000000 )    f =(  0.5000000 )
                  (  0.0000000 -1.0000000  0.0000000 )       (  0.0000000 )
                  (  0.0000000  0.0000000  1.0000000 )       ( -0.2022869 )


      isym =  3     180 deg rotation - cart. axis [0,1,0]        

 cryst.   s( 3) = (    -1          0          0      )    f =(  0.0000000 )
                  (     0          1          0      )       ( -0.5000000 )
                  (     0          0         -1      )       ( -0.0000000 )

 cart.    s( 3) = ( -1.0000000  0.0000000  0.0000000 )    f =(  0.0000000 )
                  (  0.0000000  1.0000000  0.0000000 )       ( -0.1852309 )
                  (  0.0000000  0.0000000 -1.0000000 )       ( -0.0000000 )


      isym =  4     180 deg rotation - cart. axis [1,0,0]        

 cryst.   s( 4) = (     1          0          0      )    f =(  0.5000000 )
                  (     0         -1          0      )       (  0.5000000 )
                  (     0          0         -1      )       (  0.5000000 )

 cart.    s( 4) = (  1.0000000  0.0000000  0.0000000 )    f =(  0.5000000 )
                  (  0.0000000 -1.0000000  0.0000000 )       (  0.1852309 )
                  (  0.0000000  0.0000000 -1.0000000 )       (  0.2022869 )


      isym =  5     inversion                                    

 cryst.   s( 5) = (    -1          0          0      )
                  (     0         -1          0      )
                  (     0          0         -1      )

 cart.    s( 5) = ( -1.0000000  0.0000000  0.0000000 )
                  (  0.0000000 -1.0000000  0.0000000 )
                  (  0.0000000  0.0000000 -1.0000000 )


      isym =  6     inv. 180 deg rotation - cart. axis [0,0,1]   

 cryst.   s( 6) = (     1          0          0      )    f =(  0.5000000 )
                  (     0          1          0      )       (  0.0000000 )
                  (     0          0         -1      )       (  0.5000000 )

 cart.    s( 6) = (  1.0000000  0.0000000  0.0000000 )    f =(  0.5000000 )
                  (  0.0000000  1.0000000  0.0000000 )       (  0.0000000 )
                  (  0.0000000  0.0000000 -1.0000000 )       (  0.2022869 )


      isym =  7     inv. 180 deg rotation - cart. axis [0,1,0]   

 cryst.   s( 7) = (     1          0          0      )    f =(  0.0000000 )
                  (     0         -1          0      )       (  0.5000000 )
                  (     0          0          1      )       (  0.0000000 )

 cart.    s( 7) = (  1.0000000  0.0000000  0.0000000 )    f =(  0.0000000 )
                  (  0.0000000 -1.0000000  0.0000000 )       (  0.1852309 )
                  (  0.0000000  0.0000000  1.0000000 )       (  0.0000000 )


      isym =  8     inv. 180 deg rotation - cart. axis [1,0,0]   

 cryst.   s( 8) = (    -1          0          0      )    f =(  0.5000000 )
                  (     0          1          0      )       ( -0.5000000 )
                  (     0          0          1      )       ( -0.5000000 )

 cart.    s( 8) = ( -1.0000000  0.0000000  0.0000000 )    f =(  0.5000000 )
                  (  0.0000000  1.0000000  0.0000000 )       ( -0.1852309 )
                  (  0.0000000  0.0000000  1.0000000 )       ( -0.2022869 )


     point group D_2h (mmm) 
     there are  8 classes
     the character table:

       E     C2    C2'   C2''  i     s_v   s_v'  s_v''
A_g    1.00  1.00  1.00  1.00  1.00  1.00  1.00  1.00
B_1g   1.00  1.00 -1.00 -1.00  1.00  1.00 -1.00 -1.00
B_2g   1.00 -1.00  1.00 -1.00  1.00 -1.00  1.00 -1.00
B_3g   1.00 -1.00 -1.00  1.00  1.00 -1.00 -1.00  1.00
A_u    1.00  1.00  1.00  1.00 -1.00 -1.00 -1.00 -1.00
B_1u   1.00  1.00 -1.00 -1.00 -1.00 -1.00  1.00  1.00
B_2u   1.00 -1.00  1.00 -1.00 -1.00  1.00 -1.00  1.00
B_3u   1.00 -1.00 -1.00  1.00 -1.00  1.00  1.00 -1.00

     the symmetry operations in each class and the name of the first element:

     E        1
          identity                                               
     C2       2
          180 deg rotation - cart. axis [0,0,1]                  
     C2'      4
          180 deg rotation - cart. axis [1,0,0]                  
     C2''     3
          180 deg rotation - cart. axis [0,1,0]                  
     i        5
          inversion                                              
     s_v      6
          inv. 180 deg rotation - cart. axis [0,0,1]             
     s_v'     8
          inv. 180 deg rotation - cart. axis [1,0,0]             
     s_v''    7
          inv. 180 deg rotation - cart. axis [0,1,0]             

   Cartesian axes

     site n.     atom                  positions (alat units)
         1        Se     tau(   1) = (   0.8549563   0.0926155   0.1955095  )
         2        Sn     tau(   2) = (   0.1165395   0.0926155   0.0454284  )
         3        Se     tau(   3) = (   0.6450437   0.2778464   0.3977963  )
         4        Sn     tau(   4) = (   0.3834605   0.2778464   0.2477152  )
         5        Se     tau(   5) = (   0.3549563   0.0926155   0.0067774  )
         6        Sn     tau(   6) = (   0.6165395   0.0926155   0.1568585  )
         7        Se     tau(   7) = (   0.1450437   0.2778464   0.2090642  )
         8        Sn     tau(   8) = (   0.8834605   0.2778464   0.3591453  )

     --------------------------------------------
     DFT-D3 Dispersion Correction (3-body terms):
     --------------------------------------------
       Reference C6 values for interpolation: 

         atom   Coordination number   C6
         Se         0.000           427.35
         Se         0.990           427.57
         Se         1.981           421.05
         Sn         0.000          1255.14
         Sn         0.951          1084.09
         Sn         1.950          1010.83
         Sn         2.926           818.29
         Sn         3.912           672.20

       Values used:

         atom   Coordination number  R0_AB[au]  C6      C8
         Se         3.520            3.332    421.05  29958.36
         Sn         4.311            3.957    672.32  84384.04
         Se         3.520            3.332    421.05  29958.36
         Sn         4.311            3.957    672.32  84384.04
         Se         3.520            3.332    421.05  29958.36
         Sn         4.311            3.957    672.32  84384.04
         Se         3.520            3.332    421.05  29958.36
         Sn         4.311            3.957    672.32  84384.04

         Molecular C6 ( Ry / a.u.^6 ) =     34499.61


   Crystallographic axes

     site n.     atom                  positions (cryst. coord.)
         1        Se     tau(   1) = (  0.8549563  0.2500000  0.4832481  )
         2        Sn     tau(   2) = (  0.1165395  0.2500000  0.1122870  )
         3        Se     tau(   3) = (  0.6450437  0.7500000  0.9832481  )
         4        Sn     tau(   4) = (  0.3834605  0.7500000  0.6122870  )
         5        Se     tau(   5) = (  0.3549563  0.2500000  0.0167519  )
         6        Sn     tau(   6) = (  0.6165395  0.2500000  0.3877130  )
         7        Se     tau(   7) = (  0.1450437  0.7500000  0.5167519  )
         8        Sn     tau(   8) = (  0.8834605  0.7500000  0.8877130  )

     number of k points=    32
                       cart. coord. in units 2pi/alat
        k(    1) = (   0.1666667   0.1687083   0.1544836), wk =   0.0833333
        k(    2) = (   0.1666667   0.1687083   0.4634508), wk =   0.0833333
        k(    3) = (   0.1666667   0.1687083   0.7724180), wk =   0.0833333
        k(    4) = (   0.1666667   0.1687083   1.0813851), wk =   0.0833333
        k(    5) = (   0.1666667   0.5061250   0.1544836), wk =   0.0833333
        k(    6) = (   0.1666667   0.5061250   0.4634508), wk =   0.0833333
        k(    7) = (   0.1666667   0.5061250   0.7724180), wk =   0.0833333
        k(    8) = (   0.1666667   0.5061250   1.0813851), wk =   0.0833333
        k(    9) = (   0.1666667   0.8435417   0.1544836), wk =   0.0833333
        k(   10) = (   0.1666667   0.8435417   0.4634508), wk =   0.0833333
        k(   11) = (   0.1666667   0.8435417   0.7724180), wk =   0.0833333
        k(   12) = (   0.1666667   0.8435417   1.0813851), wk =   0.0833333
        k(   13) = (   0.1666667   1.1809584   0.1544836), wk =   0.0833333
        k(   14) = (   0.1666667   1.1809584   0.4634508), wk =   0.0833333
        k(   15) = (   0.1666667   1.1809584   0.7724180), wk =   0.0833333
        k(   16) = (   0.1666667   1.1809584   1.0813851), wk =   0.0833333
        k(   17) = (  -0.5000000   0.1687083   0.1544836), wk =   0.0416667
        k(   18) = (  -0.5000000   0.1687083   0.4634508), wk =   0.0416667
        k(   19) = (  -0.5000000   0.1687083   0.7724180), wk =   0.0416667
        k(   20) = (  -0.5000000   0.1687083   1.0813851), wk =   0.0416667
        k(   21) = (  -0.5000000   0.5061250   0.1544836), wk =   0.0416667
        k(   22) = (  -0.5000000   0.5061250   0.4634508), wk =   0.0416667
        k(   23) = (  -0.5000000   0.5061250   0.7724180), wk =   0.0416667
        k(   24) = (  -0.5000000   0.5061250   1.0813851), wk =   0.0416667
        k(   25) = (  -0.5000000   0.8435417   0.1544836), wk =   0.0416667
        k(   26) = (  -0.5000000   0.8435417   0.4634508), wk =   0.0416667
        k(   27) = (  -0.5000000   0.8435417   0.7724180), wk =   0.0416667
        k(   28) = (  -0.5000000   0.8435417   1.0813851), wk =   0.0416667
        k(   29) = (  -0.5000000   1.1809584   0.1544836), wk =   0.0416667
        k(   30) = (  -0.5000000   1.1809584   0.4634508), wk =   0.0416667
        k(   31) = (  -0.5000000   1.1809584   0.7724180), wk =   0.0416667
        k(   32) = (  -0.5000000   1.1809584   1.0813851), wk =   0.0416667

                       cryst. coord.
        k(    1) = (   0.1666667   0.0625000   0.0625000), wk =   0.0833333
        k(    2) = (   0.1666667   0.0625000   0.1875000), wk =   0.0833333
        k(    3) = (   0.1666667   0.0625000   0.3125000), wk =   0.0833333
        k(    4) = (   0.1666667   0.0625000   0.4375000), wk =   0.0833333
        k(    5) = (   0.1666667   0.1875000   0.0625000), wk =   0.0833333
        k(    6) = (   0.1666667   0.1875000   0.1875000), wk =   0.0833333
        k(    7) = (   0.1666667   0.1875000   0.3125000), wk =   0.0833333
        k(    8) = (   0.1666667   0.1875000   0.4375000), wk =   0.0833333
        k(    9) = (   0.1666667   0.3125000   0.0625000), wk =   0.0833333
        k(   10) = (   0.1666667   0.3125000   0.1875000), wk =   0.0833333
        k(   11) = (   0.1666667   0.3125000   0.3125000), wk =   0.0833333
        k(   12) = (   0.1666667   0.3125000   0.4375000), wk =   0.0833333
        k(   13) = (   0.1666667   0.4375000   0.0625000), wk =   0.0833333
        k(   14) = (   0.1666667   0.4375000   0.1875000), wk =   0.0833333
        k(   15) = (   0.1666667   0.4375000   0.3125000), wk =   0.0833333
        k(   16) = (   0.1666667   0.4375000   0.4375000), wk =   0.0833333
        k(   17) = (  -0.5000000   0.0625000   0.0625000), wk =   0.0416667
        k(   18) = (  -0.5000000   0.0625000   0.1875000), wk =   0.0416667
        k(   19) = (  -0.5000000   0.0625000   0.3125000), wk =   0.0416667
        k(   20) = (  -0.5000000   0.0625000   0.4375000), wk =   0.0416667
        k(   21) = (  -0.5000000   0.1875000   0.0625000), wk =   0.0416667
        k(   22) = (  -0.5000000   0.1875000   0.1875000), wk =   0.0416667
        k(   23) = (  -0.5000000   0.1875000   0.3125000), wk =   0.0416667
        k(   24) = (  -0.5000000   0.1875000   0.4375000), wk =   0.0416667
        k(   25) = (  -0.5000000   0.3125000   0.0625000), wk =   0.0416667
        k(   26) = (  -0.5000000   0.3125000   0.1875000), wk =   0.0416667
        k(   27) = (  -0.5000000   0.3125000   0.3125000), wk =   0.0416667
        k(   28) = (  -0.5000000   0.3125000   0.4375000), wk =   0.0416667
        k(   29) = (  -0.5000000   0.4375000   0.0625000), wk =   0.0416667
        k(   30) = (  -0.5000000   0.4375000   0.1875000), wk =   0.0416667
        k(   31) = (  -0.5000000   0.4375000   0.3125000), wk =   0.0416667
        k(   32) = (  -0.5000000   0.4375000   0.4375000), wk =   0.0416667

     Dense  grid:   126761 G-vectors     FFT dimensions: ( 120,  48,  48)

     Smooth grid:    32035 G-vectors     FFT dimensions: (  80,  30,  32)

     Dynamical RAM for                 wfc:       1.22 MB

     Dynamical RAM for     wfc (w. buffer):      14.67 MB

     Dynamical RAM for           str. fact:       1.93 MB

     Dynamical RAM for           local pot:       0.00 MB

     Dynamical RAM for          nlocal pot:       4.40 MB

     Dynamical RAM for                qrad:       2.78 MB

     Dynamical RAM for          rho,v,vnew:       6.07 MB

     Dynamical RAM for               rhoin:       2.02 MB

     Dynamical RAM for            rho*nmix:      15.47 MB

     Dynamical RAM for           G-vectors:       3.75 MB

     Dynamical RAM for          h,s,v(r/c):       0.29 MB

     Dynamical RAM for          <psi|beta>:       0.09 MB

     Dynamical RAM for                 psi:       2.45 MB

     Dynamical RAM for                hpsi:       2.45 MB

     Dynamical RAM for                spsi:       2.45 MB

     Dynamical RAM for      wfcinit/wfcrot:       3.24 MB

     Dynamical RAM for           addusdens:      61.90 MB

     Dynamical RAM for          addusforce:      63.68 MB

     Estimated static dynamical RAM per process >      43.80 MB

     Estimated max dynamical RAM per process >     122.96 MB

     Estimated total dynamical RAM >     675.84 MB

     Initial potential from superposition of free atoms

     starting charge      75.9995, renormalised to      80.0000
     Starting wfcs are   52 randomized atomic wfcs

     total cpu time spent up to now is        1.5 secs

     Self-consistent Calculation

     iteration #  1     ecut=    30.00 Ry     beta= 0.70
     Davidson diagonalization with overlap

---- Real-time Memory Report at c_bands before calling an iterative solver
           207 MiB given to the printing process from OS
             0 MiB allocation reported by mallinfo(arena+hblkhd)
         10367 MiB available memory on the node where the printing process lives
------------------
     ethr =  1.00E-02,  avg # of iterations =  2.0

     total cpu time spent up to now is        3.9 secs

     total energy              =    -826.61754917 Ry
     estimated scf accuracy    <       2.68185581 Ry

     iteration #  2     ecut=    30.00 Ry     beta= 0.70
     Davidson diagonalization with overlap

---- Real-time Memory Report at c_bands before calling an iterative solver
           252 MiB given to the printing process from OS
             0 MiB allocation reported by mallinfo(arena+hblkhd)
          9889 MiB available memory on the node where the printing process lives
------------------
     ethr =  3.35E-03,  avg # of iterations =  3.0

     total cpu time spent up to now is        6.1 secs

     total energy              =    -827.53327093 Ry
     estimated scf accuracy    <       0.96537938 Ry

     iteration #  3     ecut=    30.00 Ry     beta= 0.70
     Davidson diagonalization with overlap

---- Real-time Memory Report at c_bands before calling an iterative solver
           277 MiB given to the printing process from OS
             0 MiB allocation reported by mallinfo(arena+hblkhd)
          9793 MiB available memory on the node where the printing process lives
------------------
     ethr =  1.21E-03,  avg # of iterations =  2.5

     total cpu time spent up to now is        8.0 secs

     total energy              =    -827.72881381 Ry
     estimated scf accuracy    <       0.00902448 Ry

     iteration #  4     ecut=    30.00 Ry     beta= 0.70
     Davidson diagonalization with overlap

---- Real-time Memory Report at c_bands before calling an iterative solver
           279 MiB given to the printing process from OS
             0 MiB allocation reported by mallinfo(arena+hblkhd)
          9790 MiB available memory on the node where the printing process lives
------------------
     ethr =  1.13E-05,  avg # of iterations =  5.0

     total cpu time spent up to now is       10.5 secs

     total energy              =    -827.73463306 Ry
     estimated scf accuracy    <       0.00475234 Ry

     iteration #  5     ecut=    30.00 Ry     beta= 0.70
     Davidson diagonalization with overlap

---- Real-time Memory Report at c_bands before calling an iterative solver
           281 MiB given to the printing process from OS
             0 MiB allocation reported by mallinfo(arena+hblkhd)
          9788 MiB available memory on the node where the printing process lives
------------------
     ethr =  5.94E-06,  avg # of iterations =  3.2

     total cpu time spent up to now is       12.5 secs

     total energy              =    -827.73616052 Ry
     estimated scf accuracy    <       0.00088350 Ry

     iteration #  6     ecut=    30.00 Ry     beta= 0.70
     Davidson diagonalization with overlap

---- Real-time Memory Report at c_bands before calling an iterative solver
           283 MiB given to the printing process from OS
             0 MiB allocation reported by mallinfo(arena+hblkhd)
          9785 MiB available memory on the node where the printing process lives
------------------
     ethr =  1.10E-06,  avg # of iterations =  2.0

     total cpu time spent up to now is       14.3 secs

     total energy              =    -827.73623522 Ry
     estimated scf accuracy    <       0.00009146 Ry

     iteration #  7     ecut=    30.00 Ry     beta= 0.70
     Davidson diagonalization with overlap

---- Real-time Memory Report at c_bands before calling an iterative solver
           284 MiB given to the printing process from OS
             0 MiB allocation reported by mallinfo(arena+hblkhd)
          9784 MiB available memory on the node where the printing process lives
------------------
     ethr =  1.14E-07,  avg # of iterations =  4.1

     total cpu time spent up to now is       16.5 secs

     total energy              =    -827.73626572 Ry
     estimated scf accuracy    <       0.00000160 Ry

     iteration #  8     ecut=    30.00 Ry     beta= 0.70
     Davidson diagonalization with overlap

---- Real-time Memory Report at c_bands before calling an iterative solver
           286 MiB given to the printing process from OS
             0 MiB allocation reported by mallinfo(arena+hblkhd)
          9781 MiB available memory on the node where the printing process lives
------------------
     ethr =  2.00E-09,  avg # of iterations =  5.5

     total cpu time spent up to now is       19.2 secs

     total energy              =    -827.73626694 Ry
     estimated scf accuracy    <       0.00000091 Ry

     iteration #  9     ecut=    30.00 Ry     beta= 0.70
     Davidson diagonalization with overlap

---- Real-time Memory Report at c_bands before calling an iterative solver
           290 MiB given to the printing process from OS
             0 MiB allocation reported by mallinfo(arena+hblkhd)
          9776 MiB available memory on the node where the printing process lives
------------------
     ethr =  1.13E-09,  avg # of iterations =  3.3

     total cpu time spent up to now is       21.1 secs

     total energy              =    -827.73626716 Ry
     estimated scf accuracy    <       0.00000003 Ry

     iteration # 10     ecut=    30.00 Ry     beta= 0.70
     Davidson diagonalization with overlap

---- Real-time Memory Report at c_bands before calling an iterative solver
           292 MiB given to the printing process from OS
             0 MiB allocation reported by mallinfo(arena+hblkhd)
          9775 MiB available memory on the node where the printing process lives
------------------
     ethr =  3.79E-11,  avg # of iterations =  3.5

     total cpu time spent up to now is       23.3 secs

     End of self-consistent calculation

          k = 0.1667 0.1687 0.1545 (  4006 PWs)   bands (ev):

   -13.4241 -13.4136 -13.4095 -13.4074 -13.4060 -13.4046 -13.4007 -13.3971
   -13.3930 -13.3880 -13.3863 -13.3858 -13.3745 -13.3680 -13.3502 -13.3490
   -13.3420 -13.3419 -13.3308 -13.3241  -5.8160  -5.5080  -4.7547  -4.3312
     0.5245   1.4230   2.3627   2.7011   3.1924   4.4337   4.5636   4.8429
     5.1112   5.2264   5.7994   6.1398   6.3968   6.8559   7.1478   7.4470

     occupation numbers 
     1.0000   1.0000   1.0000   1.0000   1.0000   1.0000   1.0000   1.0000
     1.0000   1.0000   1.0000   1.0000   1.0000   1.0000   1.0000   1.0000
     1.0000   1.0000   1.0000   1.0000   1.0000   1.0000   1.0000   1.0000
     1.0000   1.0000   1.0000   1.0000   1.0000   1.0000   1.0000   1.0000
     1.0000   1.0000   1.0000   1.0000   1.0000   1.0000   1.0000   1.0000

          k = 0.1667 0.1687 0.4635 (  3995 PWs)   bands (ev):

   -13.4226 -13.4130 -13.4095 -13.4085 -13.4059 -13.4057 -13.4013 -13.3981
   -13.3921 -13.3864 -13.3854 -13.3833 -13.3741 -13.3687 -13.3505 -13.3480
   -13.3430 -13.3426 -13.3302 -13.3246  -5.6971  -5.3989  -4.7580  -4.3755
     0.2147   1.1860   1.7945   2.3932   3.2976   4.4699   4.6842   5.2511
     5.4376   5.7595   5.8063   6.2447   6.6064   6.9109   7.2705   7.4998

     occupation numbers 
     1.0000   1.0000   1.0000   1.0000   1.0000   1.0000   1.0000   1.0000
     1.0000   1.0000   1.0000   1.0000   1.0000   1.0000   1.0000   1.0000
     1.0000   1.0000   1.0000   1.0000   1.0000   1.0000   1.0000   1.0000
     1.0000   1.0000   1.0000   1.0000   1.0000   1.0000   1.0000   1.0000
     1.0000   1.0000   1.0000   1.0000   1.0000   1.0000   1.0000   1.0000

          k = 0.1667 0.1687 0.7724 (  3996 PWs)   bands (ev):

   -13.4198 -13.4127 -13.4103 -13.4094 -13.4074 -13.4058 -13.4020 -13.3998
   -13.3907 -13.3869 -13.3813 -13.3796 -13.3739 -13.3700 -13.3501 -13.3469
   -13.3447 -13.3435 -13.3292 -13.3255  -5.4821  -5.2035  -4.8039  -4.4848
    -0.0818   0.6899   1.3496   1.9201   3.6026   4.7002   4.8978   5.5078
     5.7930   5.9013   6.1773   6.2731   6.7796   7.2403   7.3031   7.7434

     occupation numbers 
     1.0000   1.0000   1.0000   1.0000   1.0000   1.0000   1.0000   1.0000
     1.0000   1.0000   1.0000   1.0000   1.0000   1.0000   1.0000   1.0000
     1.0000   1.0000   1.0000   1.0000   1.0000   1.0000   1.0000   1.0000
     1.0000   1.0000   1.0000   1.0000   1.0000   1.0000   1.0000   1.0000
     1.0000   1.0000   1.0000   1.0000   1.0000   1.0000   1.0000   1.0000

          k = 0.1667 0.1687 1.0814 (  3992 PWs)   bands (ev):

   -13.4167 -13.4140 -13.4108 -13.4103 -13.4073 -13.4064 -13.4020 -13.4013
   -13.3892 -13.3878 -13.3772 -13.3760 -13.3746 -13.3723 -13.3489 -13.3471
   -13.3455 -13.3445 -13.3280 -13.3267  -5.2226  -5.0346  -4.8679  -4.6705
    -0.1232   0.1621   1.2742   1.4935   4.0702   4.5725   5.2805   5.5728
     5.7988   5.9392   6.2378   6.4919   7.0710   7.3661   7.5560   7.6376

     occupation numbers 
     1.0000   1.0000   1.0000   1.0000   1.0000   1.0000   1.0000   1.0000
     1.0000   1.0000   1.0000   1.0000   1.0000   1.0000   1.0000   1.0000
     1.0000   1.0000   1.0000   1.0000   1.0000   1.0000   1.0000   1.0000
     1.0000   1.0000   1.0000   1.0000   1.0000   1.0000   1.0000   1.0000
     1.0000   1.0000   1.0000   1.0000   1.0000   1.0000   1.0000   1.0000

          k = 0.1667 0.5061 0.1545 (  4001 PWs)   bands (ev):

   -13.4183 -13.4121 -13.4100 -13.4068 -13.4047 -13.4042 -13.4028 -13.4004
   -13.3934 -13.3883 -13.3844 -13.3837 -13.3722 -13.3691 -13.3516 -13.3480
   -13.3453 -13.3402 -13.3307 -13.3257  -5.6525  -5.3679  -4.6922  -4.3397
     0.3843   1.1829   2.0138   2.1407   3.3066   4.2916   4.6111   4.9571
     5.2555   5.4165   5.8350   6.1929   6.3828   7.0375   7.3192   7.4416

     occupation numbers 
     1.0000   1.0000   1.0000   1.0000   1.0000   1.0000   1.0000   1.0000
     1.0000   1.0000   1.0000   1.0000   1.0000   1.0000   1.0000   1.0000
     1.0000   1.0000   1.0000   1.0000   1.0000   1.0000   1.0000   1.0000
     1.0000   1.0000   1.0000   1.0000   1.0000   1.0000   1.0000   1.0000
     1.0000   1.0000   1.0000   1.0000   1.0000   1.0000   1.0000   1.0000

          k = 0.1667 0.5061 0.4635 (  4013 PWs)   bands (ev):

   -13.4182 -13.4122 -13.4113 -13.4074 -13.4049 -13.4043 -13.4023 -13.4016
   -13.3927 -13.3885 -13.3821 -13.3813 -13.3724 -13.3690 -13.3512 -13.3480
   -13.3456 -13.3411 -13.3302 -13.3259  -5.5395  -5.2654  -4.6925  -4.3718
     0.2289   1.1290   1.6542   2.0262   3.4411   3.8904   4.2009   5.0850
     5.2756   5.8272   5.9646   6.1903   6.7923   6.9425   7.3036   7.4840

     occupation numbers 
     1.0000   1.0000   1.0000   1.0000   1.0000   1.0000   1.0000   1.0000
     1.0000   1.0000   1.0000   1.0000   1.0000   1.0000   1.0000   1.0000
     1.0000   1.0000   1.0000   1.0000   1.0000   1.0000   1.0000   1.0000
     1.0000   1.0000   1.0000   1.0000   1.0000   1.0000   1.0000   1.0000
     1.0000   1.0000   1.0000   1.0000   1.0000   1.0000   1.0000   1.0000

          k = 0.1667 0.5061 0.7724 (  4003 PWs)   bands (ev):

   -13.4182 -13.4141 -13.4116 -13.4087 -13.4058 -13.4036 -13.4034 -13.4014
   -13.3916 -13.3890 -13.3785 -13.3778 -13.3726 -13.3696 -13.3505 -13.3480
   -13.3457 -13.3426 -13.3293 -13.3264  -5.3375  -5.0841  -4.7286  -4.4567
     0.0629   0.7997   1.3826   1.8021   3.6970   3.8443   4.1516   4.9746
     5.1026   5.8163   5.9100   6.4446   6.6765   6.9587   7.1722   7.4937

     occupation numbers 
     1.0000   1.0000   1.0000   1.0000   1.0000   1.0000   1.0000   1.0000
     1.0000   1.0000   1.0000   1.0000   1.0000   1.0000   1.0000   1.0000
     1.0000   1.0000   1.0000   1.0000   1.0000   1.0000   1.0000   1.0000
     1.0000   1.0000   1.0000   1.0000   1.0000   1.0000   1.0000   1.0000
     1.0000   1.0000   1.0000   1.0000   1.0000   1.0000   1.0000   1.0000

          k = 0.1667 0.5061 1.0814 (  4001 PWs)   bands (ev):

   -13.4178 -13.4164 -13.4110 -13.4100 -13.4059 -13.4049 -13.4024 -13.4016
   -13.3905 -13.3897 -13.3753 -13.3742 -13.3732 -13.3712 -13.3495 -13.3485
   -13.3452 -13.3440 -13.3283 -13.3272  -5.0982  -4.9294  -4.7822  -4.6107
     0.0709   0.3405   1.3767   1.5414   4.0134   4.0821   4.3707   4.6636
     4.9894   5.3020   5.9732   6.2558   6.6609   6.9231   7.2055   7.4045

     occupation numbers 
     1.0000   1.0000   1.0000   1.0000   1.0000   1.0000   1.0000   1.0000
     1.0000   1.0000   1.0000   1.0000   1.0000   1.0000   1.0000   1.0000
     1.0000   1.0000   1.0000   1.0000   1.0000   1.0000   1.0000   1.0000
     1.0000   1.0000   1.0000   1.0000   1.0000   1.0000   1.0000   1.0000
     1.0000   1.0000   1.0000   1.0000   1.0000   1.0000   1.0000   1.0000

          k = 0.1667 0.8435 0.1545 (  4021 PWs)   bands (ev):

   -13.4162 -13.4140 -13.4124 -13.4116 -13.4021 -13.4002 -13.3989 -13.3971
   -13.3919 -13.3900 -13.3828 -13.3790 -13.3721 -13.3688 -13.3561 -13.3545
   -13.3418 -13.3372 -13.3305 -13.3281  -5.3532  -5.1233  -4.6292  -4.4183
     0.1995   0.8853   1.2141   1.6118   3.6480   4.4064   4.7858   5.1664
     5.4868   5.5879   5.9627   6.1513   6.4917   7.0056   7.1241   7.5186

     occupation numbers 
     1.0000   1.0000   1.0000   1.0000   1.0000   1.0000   1.0000   1.0000
     1.0000   1.0000   1.0000   1.0000   1.0000   1.0000   1.0000   1.0000
     1.0000   1.0000   1.0000   1.0000   1.0000   1.0000   1.0000   1.0000
     1.0000   1.0000   1.0000   1.0000   1.0000   1.0000   1.0000   1.0000
     1.0000   1.0000   1.0000   1.0000   1.0000   1.0000   1.0000   1.0000

          k = 0.1667 0.8435 0.4635 (  4018 PWs)   bands (ev):

   -13.4190 -13.4159 -13.4139 -13.4122 -13.4026 -13.3992 -13.3984 -13.3970
   -13.3910 -13.3899 -13.3810 -13.3774 -13.3723 -13.3684 -13.3555 -13.3542
   -13.3419 -13.3379 -13.3301 -13.3280  -5.2545  -5.0361  -4.6194  -4.4232
     0.2397   0.9790   1.2493   1.5165   3.6451   3.7613   4.1432   4.7861
     5.2210   5.7530   5.8143   6.3004   6.3782   6.8182   7.0012   7.2769

     occupation numbers 
     1.0000   1.0000   1.0000   1.0000   1.0000   1.0000   1.0000   1.0000
     1.0000   1.0000   1.0000   1.0000   1.0000   1.0000   1.0000   1.0000
     1.0000   1.0000   1.0000   1.0000   1.0000   1.0000   1.0000   1.0000
     1.0000   1.0000   1.0000   1.0000   1.0000   1.0000   1.0000   1.0000
     1.0000   1.0000   1.0000   1.0000   1.0000   1.0000   1.0000   1.0000

          k = 0.1667 0.8435 0.7724 (  4015 PWs)   bands (ev):

   -13.4219 -13.4194 -13.4154 -13.4140 -13.4022 -13.3987 -13.3979 -13.3967
   -13.3900 -13.3897 -13.3783 -13.3752 -13.3719 -13.3684 -13.3547 -13.3537
   -13.3417 -13.3389 -13.3295 -13.3280  -5.0828  -4.8867  -4.6304  -4.4559
     0.3038   0.9279   1.3136   1.4853   3.2634   3.6174   4.0444   4.3427
     4.6962   5.2247   5.5459   5.9270   6.2401   6.5529   6.8091   7.2511

     occupation numbers 
     1.0000   1.0000   1.0000   1.0000   1.0000   1.0000   1.0000   1.0000
     1.0000   1.0000   1.0000   1.0000   1.0000   1.0000   1.0000   1.0000
     1.0000   1.0000   1.0000   1.0000   1.0000   1.0000   1.0000   1.0000
     1.0000   1.0000   1.0000   1.0000   1.0000   1.0000   1.0000   1.0000
     1.0000   1.0000   1.0000   1.0000   1.0000   1.0000   1.0000   1.0000

          k = 0.1667 0.8435 1.0814 (  4007 PWs)   bands (ev):

   -13.4233 -13.4223 -13.4163 -13.4158 -13.4011 -13.3997 -13.3971 -13.3967
   -13.3894 -13.3894 -13.3759 -13.3746 -13.3704 -13.3690 -13.3539 -13.3535
   -13.3410 -13.3400 -13.3288 -13.3282  -4.8896  -4.7637  -4.6587  -4.5423
     0.4206   0.6472   1.4453   1.5009   3.2823   3.6278   3.7395   4.1089
     4.5082   4.8866   5.2958   5.6802   5.9258   6.2022   6.9003   7.0278

     occupation numbers 
     1.0000   1.0000   1.0000   1.0000   1.0000   1.0000   1.0000   1.0000
     1.0000   1.0000   1.0000   1.0000   1.0000   1.0000   1.0000   1.0000
     1.0000   1.0000   1.0000   1.0000   1.0000   1.0000   1.0000   1.0000
     1.0000   1.0000   1.0000   1.0000   1.0000   1.0000   1.0000   1.0000
     1.0000   1.0000   1.0000   1.0000   1.0000   1.0000   1.0000   1.0000

          k = 0.1667 1.1810 0.1545 (  4029 PWs)   bands (ev):

   -13.4185 -13.4172 -13.4153 -13.4141 -13.3984 -13.3970 -13.3958 -13.3941
   -13.3877 -13.3863 -13.3841 -13.3790 -13.3708 -13.3655 -13.3628 -13.3608
   -13.3365 -13.3339 -13.3315 -13.3313  -4.9810  -4.8528  -4.6662  -4.6366
     0.1910   0.5352   0.8241   1.1044   4.1595   4.5962   4.9977   5.3470
     5.5405   5.5747   6.0009   6.3064   6.6119   6.8526   6.9024   7.0792

     occupation numbers 
     1.0000   1.0000   1.0000   1.0000   1.0000   1.0000   1.0000   1.0000
     1.0000   1.0000   1.0000   1.0000   1.0000   1.0000   1.0000   1.0000
     1.0000   1.0000   1.0000   1.0000   1.0000   1.0000   1.0000   1.0000
     1.0000   1.0000   1.0000   1.0000   1.0000   1.0000   1.0000   1.0000
     1.0000   1.0000   1.0000   1.0000   1.0000   1.0000   1.0000   1.0000

          k = 0.1667 1.1810 0.4635 (  4024 PWs)   bands (ev):

   -13.4213 -13.4201 -13.4168 -13.4158 -13.3989 -13.3972 -13.3945 -13.3935
   -13.3873 -13.3858 -13.3825 -13.3785 -13.3700 -13.3664 -13.3608 -13.3598
   -13.3367 -13.3347 -13.3309 -13.3308  -4.9085  -4.7908  -4.6344  -4.6019
     0.3370   0.6729   0.9430   1.1413   3.9153   4.1022   4.3868   4.6679
     4.9030   5.3342   5.8322   6.0228   6.1472   6.4296   6.9761   7.2213

     occupation numbers 
     1.0000   1.0000   1.0000   1.0000   1.0000   1.0000   1.0000   1.0000
     1.0000   1.0000   1.0000   1.0000   1.0000   1.0000   1.0000   1.0000
     1.0000   1.0000   1.0000   1.0000   1.0000   1.0000   1.0000   1.0000
     1.0000   1.0000   1.0000   1.0000   1.0000   1.0000   1.0000   1.0000
     1.0000   1.0000   1.0000   1.0000   1.0000   1.0000   1.0000   1.0000

          k = 0.1667 1.1810 0.7724 (  4015 PWs)   bands (ev):

   -13.4250 -13.4240 -13.4190 -13.4184 -13.3990 -13.3975 -13.3933 -13.3928
   -13.3864 -13.3853 -13.3806 -13.3779 -13.3686 -13.3666 -13.3588 -13.3584
   -13.3369 -13.3356 -13.3304 -13.3302  -4.7908  -4.6932  -4.5980  -4.5590
     0.5850   0.8866   1.1256   1.1918   3.2732   3.7280   3.8386   4.1380
     4.4810   4.7999   5.1850   5.6427   5.7545   6.0080   6.8503   6.9828

     occupation numbers 
     1.0000   1.0000   1.0000   1.0000   1.0000   1.0000   1.0000   1.0000
     1.0000   1.0000   1.0000   1.0000   1.0000   1.0000   1.0000   1.0000
     1.0000   1.0000   1.0000   1.0000   1.0000   1.0000   1.0000   1.0000
     1.0000   1.0000   1.0000   1.0000   1.0000   1.0000   1.0000   1.0000
     1.0000   1.0000   1.0000   1.0000   1.0000   1.0000   1.0000   1.0000

          k = 0.1667 1.1810 1.0814 (  3997 PWs)   bands (ev):

   -13.4273 -13.4269 -13.4205 -13.4203 -13.3987 -13.3981 -13.3926 -13.3924
   -13.3856 -13.3851 -13.3790 -13.3780 -13.3672 -13.3666 -13.3576 -13.3574
   -13.3366 -13.3362 -13.3300 -13.3299  -4.6758  -4.6204  -4.5814  -4.5470
     0.8315   0.9657   1.2626   1.2995   3.0211   3.2269   3.6249   3.7503
     4.3082   4.3221   4.8439   5.1724   5.7191   5.9058   6.7001   6.7532

     occupation numbers 
     1.0000   1.0000   1.0000   1.0000   1.0000   1.0000   1.0000   1.0000
     1.0000   1.0000   1.0000   1.0000   1.0000   1.0000   1.0000   1.0000
     1.0000   1.0000   1.0000   1.0000   1.0000   1.0000   1.0000   1.0000
     1.0000   1.0000   1.0000   1.0000   1.0000   1.0000   1.0000   1.0000
     1.0000   1.0000   1.0000   1.0000   1.0000   1.0000   1.0000   1.0000

          k =-0.5000 0.1687 0.1545 (  4014 PWs)   bands (ev):

   -13.4194 -13.4194 -13.4077 -13.4077 -13.4064 -13.4064 -13.3984 -13.3984
   -13.3898 -13.3898 -13.3870 -13.3870 -13.3710 -13.3710 -13.3491 -13.3491
   -13.3422 -13.3422 -13.3273 -13.3273  -5.6898  -5.6898  -4.5150  -4.5150
     0.8417   0.8417   2.6227   2.6227   3.8814   3.8814   4.7556   4.7556
     5.2669   5.2669   5.8826   5.8826   6.2386   6.2386   7.3631   7.3631

     occupation numbers 
     1.0000   1.0000   1.0000   1.0000   1.0000   1.0000   1.0000   1.0000
     1.0000   1.0000   1.0000   1.0000   1.0000   1.0000   1.0000   1.0000
     1.0000   1.0000   1.0000   1.0000   1.0000   1.0000   1.0000   1.0000
     1.0000   1.0000   1.0000   1.0000   1.0000   1.0000   1.0000   1.0000
     1.0000   1.0000   1.0000   1.0000   1.0000   1.0000   1.0000   1.0000

          k =-0.5000 0.1687 0.4635 (  3992 PWs)   bands (ev):

   -13.4184 -13.4184 -13.4079 -13.4079 -13.4068 -13.4068 -13.3996 -13.3996
   -13.3892 -13.3892 -13.3845 -13.3845 -13.3712 -13.3712 -13.3489 -13.3489
   -13.3430 -13.3430 -13.3273 -13.3273  -5.5761  -5.5761  -4.5386  -4.5386
     0.5631   0.5631   2.1534   2.1534   4.1233   4.1233   4.8295   4.8295
     5.5192   5.5192   6.0358   6.0358   6.6776   6.6776   7.2754   7.2754

     occupation numbers 
     1.0000   1.0000   1.0000   1.0000   1.0000   1.0000   1.0000   1.0000
     1.0000   1.0000   1.0000   1.0000   1.0000   1.0000   1.0000   1.0000
     1.0000   1.0000   1.0000   1.0000   1.0000   1.0000   1.0000   1.0000
     1.0000   1.0000   1.0000   1.0000   1.0000   1.0000   1.0000   1.0000
     1.0000   1.0000   1.0000   1.0000   1.0000   1.0000   1.0000   1.0000

          k =-0.5000 0.1687 0.7724 (  4002 PWs)   bands (ev):

   -13.4167 -13.4167 -13.4094 -13.4094 -13.4065 -13.4065 -13.4012 -13.4012
   -13.3886 -13.3886 -13.3806 -13.3806 -13.3719 -13.3719 -13.3484 -13.3484
   -13.3442 -13.3442 -13.3273 -13.3273  -5.3733  -5.3733  -4.6142  -4.6142
     0.2436   0.2436   1.6064   1.6064   4.4468   4.4468   5.1143   5.1143
     5.6572   5.6572   6.2443   6.2443   6.8923   6.8923   7.4336   7.4336

     occupation numbers 
     1.0000   1.0000   1.0000   1.0000   1.0000   1.0000   1.0000   1.0000
     1.0000   1.0000   1.0000   1.0000   1.0000   1.0000   1.0000   1.0000
     1.0000   1.0000   1.0000   1.0000   1.0000   1.0000   1.0000   1.0000
     1.0000   1.0000   1.0000   1.0000   1.0000   1.0000   1.0000   1.0000
     1.0000   1.0000   1.0000   1.0000   1.0000   1.0000   1.0000   1.0000

          k =-0.5000 0.1687 1.0814 (  3986 PWs)   bands (ev):

   -13.4152 -13.4152 -13.4107 -13.4107 -13.4065 -13.4065 -13.4024 -13.4024
   -13.3881 -13.3881 -13.3768 -13.3768 -13.3733 -13.3733 -13.3477 -13.3477
   -13.3453 -13.3453 -13.3273 -13.3273  -5.1512  -5.1512  -4.7476  -4.7476
     0.0670   0.0670   1.2466   1.2466   4.8561   4.8561   5.4153   5.4153
     5.4991   5.4991   6.0997   6.0997   7.2533   7.2533   7.5389   7.5389

     occupation numbers 
     1.0000   1.0000   1.0000   1.0000   1.0000   1.0000   1.0000   1.0000
     1.0000   1.0000   1.0000   1.0000   1.0000   1.0000   1.0000   1.0000
     1.0000   1.0000   1.0000   1.0000   1.0000   1.0000   1.0000   1.0000
     1.0000   1.0000   1.0000   1.0000   1.0000   1.0000   1.0000   1.0000
     1.0000   1.0000   1.0000   1.0000   1.0000   1.0000   1.0000   1.0000

          k =-0.5000 0.5061 0.1545 (  4014 PWs)   bands (ev):

   -13.4152 -13.4152 -13.4089 -13.4089 -13.4043 -13.4043 -13.4015 -13.4015
   -13.3908 -13.3908 -13.3840 -13.3840 -13.3706 -13.3706 -13.3501 -13.3501
   -13.3424 -13.3424 -13.3281 -13.3281  -5.5352  -5.5352  -4.4901  -4.4901
     0.6838   0.6838   2.1175   2.1175   4.0070   4.0070   4.6540   4.6540
     5.5626   5.5626   5.7598   5.7598   6.4213   6.4213   7.4693   7.4693

     occupation numbers 
     1.0000   1.0000   1.0000   1.0000   1.0000   1.0000   1.0000   1.0000
     1.0000   1.0000   1.0000   1.0000   1.0000   1.0000   1.0000   1.0000
     1.0000   1.0000   1.0000   1.0000   1.0000   1.0000   1.0000   1.0000
     1.0000   1.0000   1.0000   1.0000   1.0000   1.0000   1.0000   1.0000
     1.0000   1.0000   1.0000   1.0000   1.0000   1.0000   1.0000   1.0000

          k =-0.5000 0.5061 0.4635 (  3994 PWs)   bands (ev):

   -13.4153 -13.4153 -13.4099 -13.4099 -13.4044 -13.4044 -13.4017 -13.4017
   -13.3906 -13.3906 -13.3816 -13.3816 -13.3708 -13.3708 -13.3499 -13.3499
   -13.3430 -13.3430 -13.3279 -13.3279  -5.4276  -5.4276  -4.5065  -4.5065
     0.5630   0.5630   1.8881   1.8881   3.9400   3.9400   4.5653   4.5653
     5.2442   5.2442   6.1864   6.1864   6.7896   6.7896   7.3824   7.3824

     occupation numbers 
     1.0000   1.0000   1.0000   1.0000   1.0000   1.0000   1.0000   1.0000
     1.0000   1.0000   1.0000   1.0000   1.0000   1.0000   1.0000   1.0000
     1.0000   1.0000   1.0000   1.0000   1.0000   1.0000   1.0000   1.0000
     1.0000   1.0000   1.0000   1.0000   1.0000   1.0000   1.0000   1.0000
     1.0000   1.0000   1.0000   1.0000   1.0000   1.0000   1.0000   1.0000

          k =-0.5000 0.5061 0.7724 (  4004 PWs)   bands (ev):

   -13.4157 -13.4157 -13.4116 -13.4116 -13.4042 -13.4042 -13.4017 -13.4017
   -13.3903 -13.3903 -13.3781 -13.3781 -13.3713 -13.3713 -13.3497 -13.3497
   -13.3439 -13.3439 -13.3276 -13.3276  -5.2378  -5.2378  -4.5658  -4.5658
     0.3761   0.3761   1.5772   1.5772   3.9286   3.9286   4.7324   4.7324
     5.0862   5.0862   6.2798   6.2798   6.6480   6.6480   7.3354   7.3354

     occupation numbers 
     1.0000   1.0000   1.0000   1.0000   1.0000   1.0000   1.0000   1.0000
     1.0000   1.0000   1.0000   1.0000   1.0000   1.0000   1.0000   1.0000
     1.0000   1.0000   1.0000   1.0000   1.0000   1.0000   1.0000   1.0000
     1.0000   1.0000   1.0000   1.0000   1.0000   1.0000   1.0000   1.0000
     1.0000   1.0000   1.0000   1.0000   1.0000   1.0000   1.0000   1.0000

          k =-0.5000 0.5061 1.0814 (  3990 PWs)   bands (ev):

   -13.4161 -13.4161 -13.4129 -13.4129 -13.4037 -13.4037 -13.4019 -13.4019
   -13.3901 -13.3901 -13.3749 -13.3749 -13.3723 -13.3723 -13.3494 -13.3494
   -13.3446 -13.3446 -13.3275 -13.3275  -5.0339  -5.0339  -4.6772  -4.6772
     0.2466   0.2466   1.3485   1.3485   4.1675   4.1675   4.5857   4.5857
     5.3148   5.3148   5.9114   5.9114   6.5729   6.5729   7.1702   7.1702

     occupation numbers 
     1.0000   1.0000   1.0000   1.0000   1.0000   1.0000   1.0000   1.0000
     1.0000   1.0000   1.0000   1.0000   1.0000   1.0000   1.0000   1.0000
     1.0000   1.0000   1.0000   1.0000   1.0000   1.0000   1.0000   1.0000
     1.0000   1.0000   1.0000   1.0000   1.0000   1.0000   1.0000   1.0000
     1.0000   1.0000   1.0000   1.0000   1.0000   1.0000   1.0000   1.0000

          k =-0.5000 0.8435 0.1545 (  4004 PWs)   bands (ev):

   -13.4157 -13.4157 -13.4113 -13.4113 -13.4006 -13.4006 -13.3990 -13.3990
   -13.3906 -13.3906 -13.3810 -13.3810 -13.3702 -13.3702 -13.3555 -13.3555
   -13.3393 -13.3393 -13.3292 -13.3292  -5.2569  -5.2569  -4.5043  -4.5043
     0.4794   0.4794   1.4109   1.4109   4.2894   4.2894   4.8356   4.8356
     5.7223   5.7223   5.8831   5.8831   6.4228   6.4228   7.3216   7.3216

     occupation numbers 
     1.0000   1.0000   1.0000   1.0000   1.0000   1.0000   1.0000   1.0000
     1.0000   1.0000   1.0000   1.0000   1.0000   1.0000   1.0000   1.0000
     1.0000   1.0000   1.0000   1.0000   1.0000   1.0000   1.0000   1.0000
     1.0000   1.0000   1.0000   1.0000   1.0000   1.0000   1.0000   1.0000
     1.0000   1.0000   1.0000   1.0000   1.0000   1.0000   1.0000   1.0000

          k =-0.5000 0.8435 0.4635 (  4012 PWs)   bands (ev):

   -13.4175 -13.4175 -13.4132 -13.4132 -13.4005 -13.4005 -13.3980 -13.3980
   -13.3903 -13.3903 -13.3795 -13.3795 -13.3700 -13.3700 -13.3552 -13.3552
   -13.3396 -13.3396 -13.3290 -13.3290  -5.1638  -5.1638  -4.5023  -4.5023
     0.5392   0.5392   1.3956   1.3956   3.8207   3.8207   4.6660   4.6660
     5.1444   5.1444   6.1300   6.1300   6.3622   6.3622   7.2236   7.2236

     occupation numbers 
     1.0000   1.0000   1.0000   1.0000   1.0000   1.0000   1.0000   1.0000
     1.0000   1.0000   1.0000   1.0000   1.0000   1.0000   1.0000   1.0000
     1.0000   1.0000   1.0000   1.0000   1.0000   1.0000   1.0000   1.0000
     1.0000   1.0000   1.0000   1.0000   1.0000   1.0000   1.0000   1.0000
     1.0000   1.0000   1.0000   1.0000   1.0000   1.0000   1.0000   1.0000

          k =-0.5000 0.8435 0.7724 (  4006 PWs)   bands (ev):

   -13.4200 -13.4200 -13.4159 -13.4159 -13.4000 -13.4000 -13.3973 -13.3973
   -13.3897 -13.3897 -13.3774 -13.3774 -13.3693 -13.3693 -13.3549 -13.3549
   -13.3399 -13.3399 -13.3287 -13.3287  -5.0043  -5.0043  -4.5237  -4.5237
     0.5799   0.5799   1.3883   1.3883   3.4813   3.4813   4.3242   4.3242
     4.9143   4.9143   5.6151   5.6151   6.2665   6.2665   7.1016   7.1016

     occupation numbers 
     1.0000   1.0000   1.0000   1.0000   1.0000   1.0000   1.0000   1.0000
     1.0000   1.0000   1.0000   1.0000   1.0000   1.0000   1.0000   1.0000
     1.0000   1.0000   1.0000   1.0000   1.0000   1.0000   1.0000   1.0000
     1.0000   1.0000   1.0000   1.0000   1.0000   1.0000   1.0000   1.0000
     1.0000   1.0000   1.0000   1.0000   1.0000   1.0000   1.0000   1.0000

          k =-0.5000 0.8435 1.0814 (  3986 PWs)   bands (ev):

   -13.4216 -13.4216 -13.4177 -13.4177 -13.3994 -13.3994 -13.3972 -13.3972
   -13.3894 -13.3894 -13.3762 -13.3762 -13.3686 -13.3686 -13.3546 -13.3546
   -13.3400 -13.3400 -13.3285 -13.3285  -4.8410  -4.8410  -4.5866  -4.5866
     0.5603   0.5603   1.4120   1.4120   3.4948   3.4948   3.8626   3.8626
     4.9199   4.9199   5.2322   5.2322   6.2604   6.2604   6.7813   6.7813

     occupation numbers 
     1.0000   1.0000   1.0000   1.0000   1.0000   1.0000   1.0000   1.0000
     1.0000   1.0000   1.0000   1.0000   1.0000   1.0000   1.0000   1.0000
     1.0000   1.0000   1.0000   1.0000   1.0000   1.0000   1.0000   1.0000
     1.0000   1.0000   1.0000   1.0000   1.0000   1.0000   1.0000   1.0000
     1.0000   1.0000   1.0000   1.0000   1.0000   1.0000   1.0000   1.0000

          k =-0.5000 1.1810 0.1545 (  4030 PWs)   bands (ev):

   -13.4172 -13.4172 -13.4156 -13.4156 -13.3968 -13.3968 -13.3961 -13.3961
   -13.3865 -13.3865 -13.3817 -13.3817 -13.3676 -13.3676 -13.3622 -13.3622
   -13.3351 -13.3351 -13.3314 -13.3314  -4.9245  -4.9245  -4.6444  -4.6444
     0.4675   0.4675   0.7970   0.7970   4.7498   4.7498   5.1021   5.1021
     5.6054   5.6054   5.8563   5.8563   6.5436   6.5436   6.9245   6.9245

     occupation numbers 
     1.0000   1.0000   1.0000   1.0000   1.0000   1.0000   1.0000   1.0000
     1.0000   1.0000   1.0000   1.0000   1.0000   1.0000   1.0000   1.0000
     1.0000   1.0000   1.0000   1.0000   1.0000   1.0000   1.0000   1.0000
     1.0000   1.0000   1.0000   1.0000   1.0000   1.0000   1.0000   1.0000
     1.0000   1.0000   1.0000   1.0000   1.0000   1.0000   1.0000   1.0000

          k =-0.5000 1.1810 0.4635 (  4018 PWs)   bands (ev):

   -13.4194 -13.4194 -13.4178 -13.4178 -13.3966 -13.3966 -13.3957 -13.3957
   -13.3858 -13.3858 -13.3811 -13.3811 -13.3667 -13.3667 -13.3614 -13.3614
   -13.3351 -13.3351 -13.3313 -13.3313  -4.8570  -4.8570  -4.6113  -4.6113
     0.5990   0.5990   0.8969   0.8969   4.1004   4.1004   4.6375   4.6375
     5.1923   5.1923   5.6346   5.6346   6.3944   6.3944   6.8338   6.8338

     occupation numbers 
     1.0000   1.0000   1.0000   1.0000   1.0000   1.0000   1.0000   1.0000
     1.0000   1.0000   1.0000   1.0000   1.0000   1.0000   1.0000   1.0000
     1.0000   1.0000   1.0000   1.0000   1.0000   1.0000   1.0000   1.0000
     1.0000   1.0000   1.0000   1.0000   1.0000   1.0000   1.0000   1.0000
     1.0000   1.0000   1.0000   1.0000   1.0000   1.0000   1.0000   1.0000

          k =-0.5000 1.1810 0.7724 (  4010 PWs)   bands (ev):

   -13.4225 -13.4225 -13.4209 -13.4209 -13.3965 -13.3965 -13.3953 -13.3953
   -13.3849 -13.3849 -13.3803 -13.3803 -13.3653 -13.3653 -13.3604 -13.3604
   -13.3351 -13.3351 -13.3311 -13.3311  -4.7494  -4.7494  -4.5714  -4.5714
     0.7938   0.7938   1.0671   1.0671   3.5412   3.5412   4.0579   4.0579
     4.6254   4.6254   5.0867   5.0867   6.3248   6.3248   6.6986   6.6986

     occupation numbers 
     1.0000   1.0000   1.0000   1.0000   1.0000   1.0000   1.0000   1.0000
     1.0000   1.0000   1.0000   1.0000   1.0000   1.0000   1.0000   1.0000
     1.0000   1.0000   1.0000   1.0000   1.0000   1.0000   1.0000   1.0000
     1.0000   1.0000   1.0000   1.0000   1.0000   1.0000   1.0000   1.0000
     1.0000   1.0000   1.0000   1.0000   1.0000   1.0000   1.0000   1.0000

          k =-0.5000 1.1810 1.0814 (  3978 PWs)   bands (ev):

   -13.4246 -13.4246 -13.4231 -13.4231 -13.3964 -13.3964 -13.3952 -13.3952
   -13.3843 -13.3843 -13.3797 -13.3797 -13.3642 -13.3642 -13.3596 -13.3596
   -13.3351 -13.3351 -13.3309 -13.3309  -4.6532  -4.6532  -4.5591  -4.5591
     0.9167   0.9167   1.2389   1.2389   3.3553   3.3553   3.6007   3.6007
     4.2739   4.2739   4.5587   4.5587   6.4253   6.4253   6.6142   6.6142

     occupation numbers 
     1.0000   1.0000   1.0000   1.0000   1.0000   1.0000   1.0000   1.0000
     1.0000   1.0000   1.0000   1.0000   1.0000   1.0000   1.0000   1.0000
     1.0000   1.0000   1.0000   1.0000   1.0000   1.0000   1.0000   1.0000
     1.0000   1.0000   1.0000   1.0000   1.0000   1.0000   1.0000   1.0000
     1.0000   1.0000   1.0000   1.0000   1.0000   1.0000   1.0000   1.0000

     highest occupied level (ev):     7.7434

!    total energy              =    -827.73626718 Ry
     estimated scf accuracy    <          5.0E-10 Ry

     The total energy is the sum of the following terms:
     one-electron contribution =    -261.10921869 Ry
     hartree contribution      =     180.69476406 Ry
     xc contribution           =    -309.10296953 Ry
     ewald contribution        =    -438.09696103 Ry
     DFT-D3 Dispersion         =      -0.12188199 Ry

     convergence has been achieved in  10 iterations

     Forces acting on atoms (cartesian axes, Ry/au):

     atom    1 type  2   force =     0.00882658    0.00000000    0.00056422
     atom    2 type  1   force =    -0.00908802    0.00000000   -0.00043718
     atom    3 type  2   force =    -0.00882658    0.00000000    0.00056422
     atom    4 type  1   force =     0.00908802    0.00000000   -0.00043718
     atom    5 type  2   force =     0.00882658    0.00000000   -0.00056422
     atom    6 type  1   force =    -0.00908802    0.00000000    0.00043718
     atom    7 type  2   force =    -0.00882658    0.00000000   -0.00056422
     atom    8 type  1   force =     0.00908802    0.00000000    0.00043718
     The non-local contrib.  to forces
     atom    1 type  2   force =    -0.10732534   -0.00000000    0.11351624
     atom    2 type  1   force =     0.35175760    0.00000000    0.30421317
     atom    3 type  2   force =     0.10732534    0.00000000    0.11351624
     atom    4 type  1   force =    -0.35175760    0.00000000    0.30421317
     atom    5 type  2   force =    -0.10732534    0.00000000   -0.11351624
     atom    6 type  1   force =     0.35175760    0.00000000   -0.30421317
     atom    7 type  2   force =     0.10732534   -0.00000000   -0.11351624
     atom    8 type  1   force =    -0.35175760    0.00000000   -0.30421317
     The ionic contribution  to forces
     atom    1 type  2   force =     1.33159656   -0.00000000   -1.21632012
     atom    2 type  1   force =    -0.65116392    0.00000000   -0.63146959
     atom    3 type  2   force =    -1.33159656    0.00000000   -1.21632012
     atom    4 type  1   force =     0.65116392    0.00000000   -0.63146959
     atom    5 type  2   force =     1.33159656    0.00000000    1.21632012
     atom    6 type  1   force =    -0.65116392   -0.00000000    0.63146959
     atom    7 type  2   force =    -1.33159656    0.00000000    1.21632012
     atom    8 type  1   force =     0.65116392    0.00000000    0.63146959
     The local contribution  to forces
     atom    1 type  2   force =    -1.22651701    0.00000000    1.11468126
     atom    2 type  1   force =     0.29618773   -0.00000000    0.33112705
     atom    3 type  2   force =     1.22651701    0.00000000    1.11468126
     atom    4 type  1   force =    -0.29618773    0.00000000    0.33112705
     atom    5 type  2   force =    -1.22651701   -0.00000000   -1.11468126
     atom    6 type  1   force =     0.29618773   -0.00000000   -0.33112705
     atom    7 type  2   force =     1.22651701    0.00000000   -1.11468126
     atom    8 type  1   force =    -0.29618773    0.00000000   -0.33112705
     The core correction contribution to forces
     atom    1 type  2   force =     0.01189783    0.00000000   -0.01281488
     atom    2 type  1   force =    -0.00521064   -0.00000000   -0.00534629
     atom    3 type  2   force =    -0.01189783   -0.00000000   -0.01281488
     atom    4 type  1   force =     0.00521064   -0.00000000   -0.00534629
     atom    5 type  2   force =     0.01189783   -0.00000000    0.01281488
     atom    6 type  1   force =    -0.00521064   -0.00000000    0.00534629
     atom    7 type  2   force =    -0.01189783   -0.00000000    0.01281488
     atom    8 type  1   force =     0.00521064   -0.00000000    0.00534629
     The Hubbard contrib.    to forces
     atom    1 type  2   force =     0.00000000    0.00000000    0.00000000
     atom    2 type  1   force =     0.00000000    0.00000000    0.00000000
     atom    3 type  2   force =     0.00000000    0.00000000    0.00000000
     atom    4 type  1   force =     0.00000000    0.00000000    0.00000000
     atom    5 type  2   force =     0.00000000    0.00000000    0.00000000
     atom    6 type  1   force =     0.00000000    0.00000000    0.00000000
     atom    7 type  2   force =     0.00000000    0.00000000    0.00000000
     atom    8 type  1   force =     0.00000000    0.00000000    0.00000000
     The SCF correction term to forces
     atom    1 type  2   force =    -0.00000349    0.00000000    0.00000145
     atom    2 type  1   force =     0.00003891   -0.00000000    0.00003960
     atom    3 type  2   force =     0.00000349   -0.00000000    0.00000145
     atom    4 type  1   force =    -0.00003891    0.00000000    0.00003960
     atom    5 type  2   force =    -0.00000349    0.00000000   -0.00000145
     atom    6 type  1   force =     0.00003891   -0.00000000   -0.00003960
     atom    7 type  2   force =     0.00000349   -0.00000000   -0.00000145
     atom    8 type  1   force =    -0.00003891    0.00000000   -0.00003960

     DFT-D3 dispersion contribution to forces:
     atom    1 type  2   force =    -0.00082199    0.00000000    0.00150028
     atom    2 type  1   force =    -0.00069771   -0.00000000    0.00099889
     atom    3 type  2   force =     0.00082199    0.00000000    0.00150028
     atom    4 type  1   force =     0.00069771   -0.00000000    0.00099889
     atom    5 type  2   force =    -0.00082199   -0.00000000   -0.00150028
     atom    6 type  1   force =    -0.00069771   -0.00000000   -0.00099889
     atom    7 type  2   force =     0.00082199    0.00000000   -0.00150028
     atom    8 type  1   force =     0.00069771   -0.00000000   -0.00099889

     Total force =     0.025378     Total SCF correction =     0.000111

     DFT-D3 dispersion Force =     0.004201

     Writing all to output data dir ./tmp/SnSe_pnma.save/ :
     XML data file, charge density, pseudopotentials, collected wavefunctions
 
     init_run     :      1.01s CPU      1.14s WALL (       1 calls)
     electrons    :     20.38s CPU     21.83s WALL (       1 calls)
     forces       :      0.46s CPU      0.54s WALL (       1 calls)
     force_dftd3  :      0.06s CPU      0.06s WALL (       1 calls)

     Called by init_run:
     wfcinit      :      0.54s CPU      0.56s WALL (       1 calls)
     wfcinit:atom :      0.01s CPU      0.01s WALL (      11 calls)
     wfcinit:wfcr :      0.47s CPU      0.48s WALL (      11 calls)
     potinit      :      0.12s CPU      0.13s WALL (       1 calls)
     hinit0       :      0.14s CPU      0.15s WALL (       1 calls)

     Called by electrons:
     c_bands      :     15.12s CPU     15.38s WALL (      10 calls)
     sum_band     :      3.37s CPU      3.93s WALL (      10 calls)
     v_of_rho     :      0.62s CPU      0.65s WALL (      11 calls)
     v_h          :      0.04s CPU      0.05s WALL (      11 calls)
     v_xc         :      0.64s CPU      0.66s WALL (      12 calls)
     newd         :      1.31s CPU      1.93s WALL (      11 calls)
     mix_rho      :      0.06s CPU      0.09s WALL (      10 calls)
     energy_dftd3 :      0.05s CPU      0.05s WALL (       1 calls)

     Called by c_bands:
     init_us_2    :      0.44s CPU      0.45s WALL (     242 calls)
     cegterg      :     13.15s CPU     13.30s WALL (     110 calls)

     Called by sum_band:
     sum_band:wei :      0.00s CPU      0.00s WALL (      10 calls)
     sum_band:loo :      1.93s CPU      1.96s WALL (      10 calls)
     sum_band:buf :      0.03s CPU      0.03s WALL (     110 calls)
     sum_band:ini :      0.19s CPU      0.19s WALL (     110 calls)
     sum_band:cal :      0.29s CPU      0.30s WALL (     110 calls)
     sum_band:bec :      0.01s CPU      0.01s WALL (     110 calls)
     addusdens    :      1.26s CPU      1.77s WALL (      10 calls)
                                        0.00s GPU  (      10 calls)
     addusd:skk   :      0.01s CPU      0.01s WALL (      20 calls)
                                        0.00s GPU  (      20 calls)

     Called by *egterg:
     cdiaghg      :      0.79s CPU      0.80s WALL (     498 calls)
     cegterg:over :      0.74s CPU      0.74s WALL (     388 calls)
     cegterg:upda :      0.41s CPU      0.41s WALL (     388 calls)
     cegterg:last :      0.96s CPU      0.96s WALL (     271 calls)
     h_psi        :      9.25s CPU      9.35s WALL (     509 calls)
     s_psi        :      1.01s CPU      1.01s WALL (     509 calls)
     g_psi        :      0.04s CPU      0.04s WALL (     388 calls)

     Called by h_psi:
     h_psi:calbec :      0.99s CPU      1.00s WALL (     509 calls)
     vloc_psi     :      7.13s CPU      7.20s WALL (     509 calls)
     add_vuspsi   :      1.05s CPU      1.06s WALL (     509 calls)

     General routines
     calbec       :      1.40s CPU      1.41s WALL (     663 calls)
     fft          :      0.28s CPU      0.30s WALL (     152 calls)
     ffts         :      0.01s CPU      0.01s WALL (      21 calls)
     fftw         :      5.84s CPU      5.91s WALL (   31862 calls)
     interpolate  :      0.03s CPU      0.03s WALL (      11 calls)
 
     Parallel routines
 
     PWSCF        :     22.20s CPU     24.24s WALL

 
   This run was terminated on:  14:54:42  20May2026            

=------------------------------------------------------------------------------=
   JOB DONE.
=------------------------------------------------------------------------------=
