
     Program PWSCF v.7.3.1 starts on 19May2026 at 21:37: 0 

     This program is part of the open-source Quantum ESPRESSO suite
     for quantum simulation of materials; please cite
         "P. Giannozzi et al., J. Phys.:Condens. Matter 21 395502 (2009);
         "P. Giannozzi et al., J. Phys.:Condens. Matter 29 465901 (2017);
         "P. Giannozzi et al., J. Chem. Phys. 152 154105 (2020);
          URL http://www.quantum-espresso.org", 
     in publications or presentations arising from this work. More details at
     http://www.quantum-espresso.org/quote

     Parallel version (MPI & OpenMP), running on       6 processor cores
     Number of MPI processes:                 6
     Threads/MPI process:                     1

     MPI processes distributed on     1 nodes
     12184 MiB available memory on the printing compute node when the environment starts
 
     Waiting for input...
     Reading input from standard input

     Current dimensions of program PWSCF are:
     Max number of different atomic species (ntypx) = 10
     Max number of k-points (npk) =  40000
     Max angular momentum in pseudopotentials (lmaxx) =  4
 
     K-points division:     npool     =       3
     R & G space division:  proc/nbgrp/npool/nimage =       2
     Subspace diagonalization in iterative solution of the eigenvalue problem:
     a serial algorithm will be used

 
     Parallelization info
     --------------------
     sticks:   dense  smooth     PW     G-vecs:    dense   smooth      PW
     Min        2857    1138    334               104352    26419    4155
     Max        2858    1139    335               104353    26420    4156
     Sum        5715    2277    669               208705    52839    8311
 
     Using Slab Decomposition
 


     bravais-lattice index     =            8
     lattice parameter (alat)  =      22.7712  a.u.
     unit-cell volume          =    1545.2599 (a.u.)^3
     number of atoms/cell      =            8
     number of atomic types    =            2
     number of electrons       =        80.00
     number of Kohn-Sham states=           40
     kinetic-energy cutoff     =      40.0000  Ry
     charge density cutoff     =     400.0000  Ry
     scf convergence threshold =      1.0E-08
     mixing beta               =       0.7000
     number of iterations used =            8  plain     mixing
     Exchange-correlation= SLA  PW   PBE  PBE
                           (   1   4   3   4   0   0   0)

     celldm(1)=  22.771200  celldm(2)=   0.346174  celldm(3)=   0.378050
     celldm(4)=   0.000000  celldm(5)=   0.000000  celldm(6)=   0.000000

     crystal axes: (cart. coord. in units of alat)
               a(1) = (   1.000000   0.000000   0.000000 )  
               a(2) = (   0.000000   0.346174   0.000000 )  
               a(3) = (   0.000000   0.000000   0.378050 )  

     reciprocal axes: (cart. coord. in units 2 pi/alat)
               b(1) = (  1.000000  0.000000  0.000000 )  
               b(2) = (  0.000000  2.888718  0.000000 )  
               b(3) = (  0.000000  0.000000  2.645154 )  


     PseudoPot. # 1 for Sn read from file:
     ../pseudo/Sn_pbe_v1.uspp.F.UPF
     MD5 check sum: 4cf58ce39ec5d5d420df3dd08604eb00
     Pseudo is Ultrasoft + core correction, Zval = 14.0
     Generated by new atomic code, or converted to UPF format
     Using radial grid of  891 points,  6 beta functions with: 
                l(1) =   0
                l(2) =   0
                l(3) =   1
                l(4) =   1
                l(5) =   2
                l(6) =   2
     Q(r) pseudized with  6 coefficients,  rinner =    1.200   1.200   1.200
                                                       1.200   1.200

     PseudoPot. # 2 for Se read from file:
     ../pseudo/Se_pbe_v1.uspp.F.UPF
     MD5 check sum: 1b3568f3a8ae88f9a2a0ad0698632c85
     Pseudo is Ultrasoft + core correction, Zval =  6.0
     Generated by new atomic code, or converted to UPF format
     Using radial grid of  877 points,  6 beta functions with: 
                l(1) =   0
                l(2) =   0
                l(3) =   1
                l(4) =   1
                l(5) =   2
                l(6) =   2
     Q(r) pseudized with  8 coefficients,  rinner =    1.300   1.300   1.300
                                                       1.300   1.300

     atomic species   valence    mass     pseudopotential
     Sn               14.00   118.71000     Sn( 1.00)
     Se                6.00    78.97100     Se( 1.00)

      8 Sym. Ops., with inversion, found ( 6 have fractional translation)


                                    s                        frac. trans.

      isym =  1     identity                                     

 cryst.   s( 1) = (     1          0          0      )
                  (     0          1          0      )
                  (     0          0          1      )

 cart.    s( 1) = (  1.0000000  0.0000000  0.0000000 )
                  (  0.0000000  1.0000000  0.0000000 )
                  (  0.0000000  0.0000000  1.0000000 )


      isym =  2     180 deg rotation - cart. axis [0,0,1]        

 cryst.   s( 2) = (    -1          0          0      )    f =(  0.5000000 )
                  (     0         -1          0      )       (  0.0000000 )
                  (     0          0          1      )       ( -0.5000000 )

 cart.    s( 2) = ( -1.0000000  0.0000000  0.0000000 )    f =(  0.5000000 )
                  (  0.0000000 -1.0000000  0.0000000 )       (  0.0000000 )
                  (  0.0000000  0.0000000  1.0000000 )       ( -0.1890249 )


      isym =  3     180 deg rotation - cart. axis [0,1,0]        

 cryst.   s( 3) = (    -1          0          0      )    f =(  0.0000000 )
                  (     0          1          0      )       (  0.5000000 )
                  (     0          0         -1      )       (  0.0000000 )

 cart.    s( 3) = ( -1.0000000  0.0000000  0.0000000 )    f =(  0.0000000 )
                  (  0.0000000  1.0000000  0.0000000 )       (  0.1730871 )
                  (  0.0000000  0.0000000 -1.0000000 )       (  0.0000000 )


      isym =  4     180 deg rotation - cart. axis [1,0,0]        

 cryst.   s( 4) = (     1          0          0      )    f =(  0.5000000 )
                  (     0         -1          0      )       (  0.5000000 )
                  (     0          0         -1      )       ( -0.5000000 )

 cart.    s( 4) = (  1.0000000  0.0000000  0.0000000 )    f =(  0.5000000 )
                  (  0.0000000 -1.0000000  0.0000000 )       (  0.1730871 )
                  (  0.0000000  0.0000000 -1.0000000 )       ( -0.1890249 )


      isym =  5     inversion                                    

 cryst.   s( 5) = (    -1          0          0      )
                  (     0         -1          0      )
                  (     0          0         -1      )

 cart.    s( 5) = ( -1.0000000  0.0000000  0.0000000 )
                  (  0.0000000 -1.0000000  0.0000000 )
                  (  0.0000000  0.0000000 -1.0000000 )


      isym =  6     inv. 180 deg rotation - cart. axis [0,0,1]   

 cryst.   s( 6) = (     1          0          0      )    f =(  0.5000000 )
                  (     0          1          0      )       (  0.0000000 )
                  (     0          0         -1      )       ( -0.5000000 )

 cart.    s( 6) = (  1.0000000  0.0000000  0.0000000 )    f =(  0.5000000 )
                  (  0.0000000  1.0000000  0.0000000 )       (  0.0000000 )
                  (  0.0000000  0.0000000 -1.0000000 )       ( -0.1890249 )


      isym =  7     inv. 180 deg rotation - cart. axis [0,1,0]   

 cryst.   s( 7) = (     1          0          0      )    f =(  0.0000000 )
                  (     0         -1          0      )       (  0.5000000 )
                  (     0          0          1      )       (  0.0000000 )

 cart.    s( 7) = (  1.0000000  0.0000000  0.0000000 )    f =(  0.0000000 )
                  (  0.0000000 -1.0000000  0.0000000 )       (  0.1730871 )
                  (  0.0000000  0.0000000  1.0000000 )       (  0.0000000 )


      isym =  8     inv. 180 deg rotation - cart. axis [1,0,0]   

 cryst.   s( 8) = (    -1          0          0      )    f =(  0.5000000 )
                  (     0          1          0      )       (  0.5000000 )
                  (     0          0          1      )       ( -0.5000000 )

 cart.    s( 8) = ( -1.0000000  0.0000000  0.0000000 )    f =(  0.5000000 )
                  (  0.0000000  1.0000000  0.0000000 )       (  0.1730871 )
                  (  0.0000000  0.0000000  1.0000000 )       ( -0.1890249 )


     point group D_2h (mmm) 
     there are  8 classes
     the character table:

       E     C2    C2'   C2''  i     s_v   s_v'  s_v''
A_g    1.00  1.00  1.00  1.00  1.00  1.00  1.00  1.00
B_1g   1.00  1.00 -1.00 -1.00  1.00  1.00 -1.00 -1.00
B_2g   1.00 -1.00  1.00 -1.00  1.00 -1.00  1.00 -1.00
B_3g   1.00 -1.00 -1.00  1.00  1.00 -1.00 -1.00  1.00
A_u    1.00  1.00  1.00  1.00 -1.00 -1.00 -1.00 -1.00
B_1u   1.00  1.00 -1.00 -1.00 -1.00 -1.00  1.00  1.00
B_2u   1.00 -1.00  1.00 -1.00 -1.00  1.00 -1.00  1.00
B_3u   1.00 -1.00 -1.00  1.00 -1.00  1.00  1.00 -1.00

     the symmetry operations in each class and the name of the first element:

     E        1
          identity                                               
     C2       2
          180 deg rotation - cart. axis [0,0,1]                  
     C2'      4
          180 deg rotation - cart. axis [1,0,0]                  
     C2''     3
          180 deg rotation - cart. axis [0,1,0]                  
     i        5
          inversion                                              
     s_v      6
          inv. 180 deg rotation - cart. axis [0,0,1]             
     s_v'     8
          inv. 180 deg rotation - cart. axis [1,0,0]             
     s_v''    7
          inv. 180 deg rotation - cart. axis [0,1,0]             

   Cartesian axes

     site n.     atom                  positions (alat units)
         1        Se     tau(   1) = (   0.8549563   0.0865436   0.1826918  )
         2        Sn     tau(   2) = (   0.1165395   0.0865436   0.0424501  )
         3        Se     tau(   3) = (   0.6450437   0.2596307   0.3717167  )
         4        Sn     tau(   4) = (   0.3834605   0.2596307   0.2314750  )
         5        Se     tau(   5) = (   0.3549563   0.0865436   0.0063331  )
         6        Sn     tau(   6) = (   0.6165395   0.0865436   0.1465748  )
         7        Se     tau(   7) = (   0.1450437   0.2596307   0.1953580  )
         8        Sn     tau(   8) = (   0.8834605   0.2596307   0.3355997  )

     --------------------------------------------
     DFT-D3 Dispersion Correction (3-body terms):
     --------------------------------------------
       Reference C6 values for interpolation: 

         atom   Coordination number   C6
         Se         0.000           427.35
         Se         0.990           427.57
         Se         1.981           421.05
         Sn         0.000          1255.14
         Sn         0.951          1084.09
         Sn         1.950          1010.83
         Sn         2.926           818.29
         Sn         3.912           672.20

       Values used:

         atom   Coordination number  R0_AB[au]  C6      C8
         Se         3.220            3.332    421.05  29958.36
         Sn         3.770            3.957    680.27  85380.97
         Se         3.220            3.332    421.05  29958.36
         Sn         3.770            3.957    680.27  85380.97
         Se         3.220            3.332    421.05  29958.36
         Sn         3.770            3.957    680.27  85380.97
         Se         3.220            3.332    421.05  29958.36
         Sn         3.770            3.957    680.27  85380.97

         Molecular C6 ( Ry / a.u.^6 ) =     34724.70


   Crystallographic axes

     site n.     atom                  positions (cryst. coord.)
         1        Se     tau(   1) = (  0.8549563  0.2500000  0.4832481  )
         2        Sn     tau(   2) = (  0.1165395  0.2500000  0.1122870  )
         3        Se     tau(   3) = (  0.6450437  0.7500000  0.9832481  )
         4        Sn     tau(   4) = (  0.3834605  0.7500000  0.6122870  )
         5        Se     tau(   5) = (  0.3549563  0.2500000  0.0167519  )
         6        Sn     tau(   6) = (  0.6165395  0.2500000  0.3877130  )
         7        Se     tau(   7) = (  0.1450437  0.7500000  0.5167519  )
         8        Sn     tau(   8) = (  0.8834605  0.7500000  0.8877130  )

     number of k points=    32
                       cart. coord. in units 2pi/alat
        k(    1) = (   0.1666667   0.1805449   0.1653221), wk =   0.0833333
        k(    2) = (   0.1666667   0.1805449   0.4959664), wk =   0.0833333
        k(    3) = (   0.1666667   0.1805449   0.8266107), wk =   0.0833333
        k(    4) = (   0.1666667   0.1805449   1.1572550), wk =   0.0833333
        k(    5) = (   0.1666667   0.5416347   0.1653221), wk =   0.0833333
        k(    6) = (   0.1666667   0.5416347   0.4959664), wk =   0.0833333
        k(    7) = (   0.1666667   0.5416347   0.8266107), wk =   0.0833333
        k(    8) = (   0.1666667   0.5416347   1.1572550), wk =   0.0833333
        k(    9) = (   0.1666667   0.9027245   0.1653221), wk =   0.0833333
        k(   10) = (   0.1666667   0.9027245   0.4959664), wk =   0.0833333
        k(   11) = (   0.1666667   0.9027245   0.8266107), wk =   0.0833333
        k(   12) = (   0.1666667   0.9027245   1.1572550), wk =   0.0833333
        k(   13) = (   0.1666667   1.2638143   0.1653221), wk =   0.0833333
        k(   14) = (   0.1666667   1.2638143   0.4959664), wk =   0.0833333
        k(   15) = (   0.1666667   1.2638143   0.8266107), wk =   0.0833333
        k(   16) = (   0.1666667   1.2638143   1.1572550), wk =   0.0833333
        k(   17) = (  -0.5000000   0.1805449   0.1653221), wk =   0.0416667
        k(   18) = (  -0.5000000   0.1805449   0.4959664), wk =   0.0416667
        k(   19) = (  -0.5000000   0.1805449   0.8266107), wk =   0.0416667
        k(   20) = (  -0.5000000   0.1805449   1.1572550), wk =   0.0416667
        k(   21) = (  -0.5000000   0.5416347   0.1653221), wk =   0.0416667
        k(   22) = (  -0.5000000   0.5416347   0.4959664), wk =   0.0416667
        k(   23) = (  -0.5000000   0.5416347   0.8266107), wk =   0.0416667
        k(   24) = (  -0.5000000   0.5416347   1.1572550), wk =   0.0416667
        k(   25) = (  -0.5000000   0.9027245   0.1653221), wk =   0.0416667
        k(   26) = (  -0.5000000   0.9027245   0.4959664), wk =   0.0416667
        k(   27) = (  -0.5000000   0.9027245   0.8266107), wk =   0.0416667
        k(   28) = (  -0.5000000   0.9027245   1.1572550), wk =   0.0416667
        k(   29) = (  -0.5000000   1.2638143   0.1653221), wk =   0.0416667
        k(   30) = (  -0.5000000   1.2638143   0.4959664), wk =   0.0416667
        k(   31) = (  -0.5000000   1.2638143   0.8266107), wk =   0.0416667
        k(   32) = (  -0.5000000   1.2638143   1.1572550), wk =   0.0416667

                       cryst. coord.
        k(    1) = (   0.1666667   0.0625000   0.0625000), wk =   0.0833333
        k(    2) = (   0.1666667   0.0625000   0.1875000), wk =   0.0833333
        k(    3) = (   0.1666667   0.0625000   0.3125000), wk =   0.0833333
        k(    4) = (   0.1666667   0.0625000   0.4375000), wk =   0.0833333
        k(    5) = (   0.1666667   0.1875000   0.0625000), wk =   0.0833333
        k(    6) = (   0.1666667   0.1875000   0.1875000), wk =   0.0833333
        k(    7) = (   0.1666667   0.1875000   0.3125000), wk =   0.0833333
        k(    8) = (   0.1666667   0.1875000   0.4375000), wk =   0.0833333
        k(    9) = (   0.1666667   0.3125000   0.0625000), wk =   0.0833333
        k(   10) = (   0.1666667   0.3125000   0.1875000), wk =   0.0833333
        k(   11) = (   0.1666667   0.3125000   0.3125000), wk =   0.0833333
        k(   12) = (   0.1666667   0.3125000   0.4375000), wk =   0.0833333
        k(   13) = (   0.1666667   0.4375000   0.0625000), wk =   0.0833333
        k(   14) = (   0.1666667   0.4375000   0.1875000), wk =   0.0833333
        k(   15) = (   0.1666667   0.4375000   0.3125000), wk =   0.0833333
        k(   16) = (   0.1666667   0.4375000   0.4375000), wk =   0.0833333
        k(   17) = (  -0.5000000   0.0625000   0.0625000), wk =   0.0416667
        k(   18) = (  -0.5000000   0.0625000   0.1875000), wk =   0.0416667
        k(   19) = (  -0.5000000   0.0625000   0.3125000), wk =   0.0416667
        k(   20) = (  -0.5000000   0.0625000   0.4375000), wk =   0.0416667
        k(   21) = (  -0.5000000   0.1875000   0.0625000), wk =   0.0416667
        k(   22) = (  -0.5000000   0.1875000   0.1875000), wk =   0.0416667
        k(   23) = (  -0.5000000   0.1875000   0.3125000), wk =   0.0416667
        k(   24) = (  -0.5000000   0.1875000   0.4375000), wk =   0.0416667
        k(   25) = (  -0.5000000   0.3125000   0.0625000), wk =   0.0416667
        k(   26) = (  -0.5000000   0.3125000   0.1875000), wk =   0.0416667
        k(   27) = (  -0.5000000   0.3125000   0.3125000), wk =   0.0416667
        k(   28) = (  -0.5000000   0.3125000   0.4375000), wk =   0.0416667
        k(   29) = (  -0.5000000   0.4375000   0.0625000), wk =   0.0416667
        k(   30) = (  -0.5000000   0.4375000   0.1875000), wk =   0.0416667
        k(   31) = (  -0.5000000   0.4375000   0.3125000), wk =   0.0416667
        k(   32) = (  -0.5000000   0.4375000   0.4375000), wk =   0.0416667

     Dense  grid:   208705 G-vectors     FFT dimensions: ( 150,  54,  60)

     Smooth grid:    52839 G-vectors     FFT dimensions: (  96,  32,  36)

     Dynamical RAM for                 wfc:       2.01 MB

     Dynamical RAM for     wfc (w. buffer):      24.17 MB

     Dynamical RAM for           str. fact:       3.18 MB

     Dynamical RAM for           local pot:       0.00 MB

     Dynamical RAM for          nlocal pot:       7.25 MB

     Dynamical RAM for                qrad:       3.21 MB

     Dynamical RAM for          rho,v,vnew:      10.34 MB

     Dynamical RAM for               rhoin:       3.45 MB

     Dynamical RAM for            rho*nmix:      25.48 MB

     Dynamical RAM for           G-vectors:       6.17 MB

     Dynamical RAM for          h,s,v(r/c):       0.29 MB

     Dynamical RAM for          <psi|beta>:       0.09 MB

     Dynamical RAM for                 psi:       4.03 MB

     Dynamical RAM for                hpsi:       4.03 MB

     Dynamical RAM for                spsi:       4.03 MB

     Dynamical RAM for      wfcinit/wfcrot:       5.30 MB

     Dynamical RAM for           addusdens:     101.91 MB

     Dynamical RAM for          addusforce:     104.84 MB

     Estimated static dynamical RAM per process >      71.82 MB

     Estimated max dynamical RAM per process >     202.14 MB

     Estimated total dynamical RAM >       1.08 GB

     Initial potential from superposition of free atoms

     starting charge      75.9995, renormalised to      80.0000
     Starting wfcs are   52 randomized atomic wfcs

     total cpu time spent up to now is        2.2 secs

     Self-consistent Calculation

     iteration #  1     ecut=    40.00 Ry     beta= 0.70
     Davidson diagonalization with overlap

---- Real-time Memory Report at c_bands before calling an iterative solver
           267 MiB given to the printing process from OS
             0 MiB allocation reported by mallinfo(arena+hblkhd)
         11527 MiB available memory on the node where the printing process lives
------------------
     ethr =  1.00E-02,  avg # of iterations =  2.0

     total cpu time spent up to now is        5.5 secs

     total energy              =    -826.59900095 Ry
     estimated scf accuracy    <       2.73167349 Ry

     iteration #  2     ecut=    40.00 Ry     beta= 0.70
     Davidson diagonalization with overlap

---- Real-time Memory Report at c_bands before calling an iterative solver
           341 MiB given to the printing process from OS
             0 MiB allocation reported by mallinfo(arena+hblkhd)
         11300 MiB available memory on the node where the printing process lives
------------------
     ethr =  3.41E-03,  avg # of iterations =  3.0

     total cpu time spent up to now is        9.1 secs

     total energy              =    -827.50155835 Ry
     estimated scf accuracy    <       1.09388578 Ry

     iteration #  3     ecut=    40.00 Ry     beta= 0.70
     Davidson diagonalization with overlap

---- Real-time Memory Report at c_bands before calling an iterative solver
           356 MiB given to the printing process from OS
             0 MiB allocation reported by mallinfo(arena+hblkhd)
         11167 MiB available memory on the node where the printing process lives
------------------
     ethr =  1.37E-03,  avg # of iterations =  2.8

     total cpu time spent up to now is       12.5 secs

     total energy              =    -827.72795133 Ry
     estimated scf accuracy    <       0.01381092 Ry

     iteration #  4     ecut=    40.00 Ry     beta= 0.70
     Davidson diagonalization with overlap

---- Real-time Memory Report at c_bands before calling an iterative solver
           360 MiB given to the printing process from OS
             0 MiB allocation reported by mallinfo(arena+hblkhd)
         11161 MiB available memory on the node where the printing process lives
------------------
     ethr =  1.73E-05,  avg # of iterations =  4.9

     total cpu time spent up to now is       16.7 secs

     total energy              =    -827.73584745 Ry
     estimated scf accuracy    <       0.00580662 Ry

     iteration #  5     ecut=    40.00 Ry     beta= 0.70
     Davidson diagonalization with overlap

---- Real-time Memory Report at c_bands before calling an iterative solver
           361 MiB given to the printing process from OS
             0 MiB allocation reported by mallinfo(arena+hblkhd)
         11156 MiB available memory on the node where the printing process lives
------------------
     ethr =  7.26E-06,  avg # of iterations =  2.2

     total cpu time spent up to now is       19.8 secs

     total energy              =    -827.73689173 Ry
     estimated scf accuracy    <       0.00064975 Ry

     iteration #  6     ecut=    40.00 Ry     beta= 0.70
     Davidson diagonalization with overlap

---- Real-time Memory Report at c_bands before calling an iterative solver
           363 MiB given to the printing process from OS
             0 MiB allocation reported by mallinfo(arena+hblkhd)
         11151 MiB available memory on the node where the printing process lives
------------------
     ethr =  8.12E-07,  avg # of iterations =  4.3

     total cpu time spent up to now is       23.4 secs

     total energy              =    -827.73698172 Ry
     estimated scf accuracy    <       0.00102252 Ry

     iteration #  7     ecut=    40.00 Ry     beta= 0.70
     Davidson diagonalization with overlap

---- Real-time Memory Report at c_bands before calling an iterative solver
           365 MiB given to the printing process from OS
             0 MiB allocation reported by mallinfo(arena+hblkhd)
         11147 MiB available memory on the node where the printing process lives
------------------
     ethr =  8.12E-07,  avg # of iterations =  2.8

     total cpu time spent up to now is       26.6 secs

     total energy              =    -827.73712089 Ry
     estimated scf accuracy    <       0.00002593 Ry

     iteration #  8     ecut=    40.00 Ry     beta= 0.70
     Davidson diagonalization with overlap

---- Real-time Memory Report at c_bands before calling an iterative solver
           367 MiB given to the printing process from OS
             0 MiB allocation reported by mallinfo(arena+hblkhd)
         11145 MiB available memory on the node where the printing process lives
------------------
     ethr =  3.24E-08,  avg # of iterations =  5.0

     total cpu time spent up to now is       30.5 secs

     total energy              =    -827.73714120 Ry
     estimated scf accuracy    <       0.00002418 Ry

     iteration #  9     ecut=    40.00 Ry     beta= 0.70
     Davidson diagonalization with overlap

---- Real-time Memory Report at c_bands before calling an iterative solver
           369 MiB given to the printing process from OS
             0 MiB allocation reported by mallinfo(arena+hblkhd)
         11144 MiB available memory on the node where the printing process lives
------------------
     ethr =  3.02E-08,  avg # of iterations =  2.0

     total cpu time spent up to now is       33.4 secs

     total energy              =    -827.73714326 Ry
     estimated scf accuracy    <       0.00000190 Ry

     iteration # 10     ecut=    40.00 Ry     beta= 0.70
     Davidson diagonalization with overlap

---- Real-time Memory Report at c_bands before calling an iterative solver
           369 MiB given to the printing process from OS
             0 MiB allocation reported by mallinfo(arena+hblkhd)
         11143 MiB available memory on the node where the printing process lives
------------------
     ethr =  2.38E-09,  avg # of iterations =  4.9

     total cpu time spent up to now is       37.4 secs

     total energy              =    -827.73714442 Ry
     estimated scf accuracy    <       0.00000015 Ry

     iteration # 11     ecut=    40.00 Ry     beta= 0.70
     Davidson diagonalization with overlap

---- Real-time Memory Report at c_bands before calling an iterative solver
           370 MiB given to the printing process from OS
             0 MiB allocation reported by mallinfo(arena+hblkhd)
         11141 MiB available memory on the node where the printing process lives
------------------
     ethr =  1.93E-10,  avg # of iterations =  4.4

     total cpu time spent up to now is       41.6 secs

     total energy              =    -827.73714445 Ry
     estimated scf accuracy    <       0.00000008 Ry

     iteration # 12     ecut=    40.00 Ry     beta= 0.70
     Davidson diagonalization with overlap

---- Real-time Memory Report at c_bands before calling an iterative solver
           370 MiB given to the printing process from OS
             0 MiB allocation reported by mallinfo(arena+hblkhd)
         11141 MiB available memory on the node where the printing process lives
------------------
     ethr =  1.02E-10,  avg # of iterations =  2.9

     total cpu time spent up to now is       44.7 secs

     End of self-consistent calculation

          k = 0.1667 0.1805 0.1653 (  6583 PWs)   bands (ev):

   -14.3081 -14.3004 -14.2964 -14.2924 -14.2891 -14.2881 -14.2874 -14.2870
   -14.2785 -14.2714 -14.2702 -14.2696 -14.2669 -14.2629 -14.2501 -14.2460
   -14.2425 -14.2393 -14.2356 -14.2321  -6.2663  -6.0338  -5.4553  -5.1499
     0.1043   0.8321   1.4916   1.9206   2.7197   3.8719   4.0441   4.2677
     4.4800   4.5389   5.0157   5.2770   5.4829   5.7521   6.3635   6.6472

     occupation numbers 
     1.0000   1.0000   1.0000   1.0000   1.0000   1.0000   1.0000   1.0000
     1.0000   1.0000   1.0000   1.0000   1.0000   1.0000   1.0000   1.0000
     1.0000   1.0000   1.0000   1.0000   1.0000   1.0000   1.0000   1.0000
     1.0000   1.0000   1.0000   1.0000   1.0000   1.0000   1.0000   1.0000
     1.0000   1.0000   1.0000   1.0000   1.0000   1.0000   1.0000   1.0000

          k = 0.1667 0.1805 0.4960 (  6582 PWs)   bands (ev):

   -14.3071 -14.3003 -14.2965 -14.2927 -14.2892 -14.2890 -14.2879 -14.2873
   -14.2768 -14.2707 -14.2704 -14.2698 -14.2653 -14.2615 -14.2503 -14.2467
   -14.2422 -14.2395 -14.2354 -14.2325  -6.1585  -5.9355  -5.4407  -5.1640
    -0.2222   0.5286   1.0326   1.5540   2.7973   3.9403   4.1489   4.5542
     4.8072   5.0368   5.0638   5.3795   5.8434   6.1495   6.2925   6.6029

     occupation numbers 
     1.0000   1.0000   1.0000   1.0000   1.0000   1.0000   1.0000   1.0000
     1.0000   1.0000   1.0000   1.0000   1.0000   1.0000   1.0000   1.0000
     1.0000   1.0000   1.0000   1.0000   1.0000   1.0000   1.0000   1.0000
     1.0000   1.0000   1.0000   1.0000   1.0000   1.0000   1.0000   1.0000
     1.0000   1.0000   1.0000   1.0000   1.0000   1.0000   1.0000   1.0000

          k = 0.1667 0.1805 0.8266 (  6581 PWs)   bands (ev):

   -14.3054 -14.3004 -14.2965 -14.2936 -14.2902 -14.2896 -14.2885 -14.2876
   -14.2741 -14.2710 -14.2708 -14.2694 -14.2623 -14.2596 -14.2504 -14.2479
   -14.2416 -14.2398 -14.2351 -14.2332  -5.9676  -5.7624  -5.4494  -5.2182
    -0.5622   0.0147   0.6069   1.0541   3.0910   4.1726   4.3833   4.8990
     4.9579   5.1920   5.3842   5.6056   5.9963   6.4382   6.4946   6.8452

     occupation numbers 
     1.0000   1.0000   1.0000   1.0000   1.0000   1.0000   1.0000   1.0000
     1.0000   1.0000   1.0000   1.0000   1.0000   1.0000   1.0000   1.0000
     1.0000   1.0000   1.0000   1.0000   1.0000   1.0000   1.0000   1.0000
     1.0000   1.0000   1.0000   1.0000   1.0000   1.0000   1.0000   1.0000
     1.0000   1.0000   1.0000   1.0000   1.0000   1.0000   1.0000   1.0000

          k = 0.1667 0.1805 1.1573 (  6581 PWs)   bands (ev):

   -14.3033 -14.3014 -14.2960 -14.2949 -14.2907 -14.2905 -14.2884 -14.2881
   -14.2724 -14.2717 -14.2703 -14.2694 -14.2596 -14.2586 -14.2501 -14.2492
   -14.2408 -14.2402 -14.2346 -14.2339  -5.7473  -5.6053  -5.4872  -5.3393
    -0.6697  -0.4561   0.4722   0.6428   3.5634   4.0804   4.7317   4.9394
     5.1279   5.2129   5.3808   5.7114   6.2828   6.6386   6.7733   6.8587

     occupation numbers 
     1.0000   1.0000   1.0000   1.0000   1.0000   1.0000   1.0000   1.0000
     1.0000   1.0000   1.0000   1.0000   1.0000   1.0000   1.0000   1.0000
     1.0000   1.0000   1.0000   1.0000   1.0000   1.0000   1.0000   1.0000
     1.0000   1.0000   1.0000   1.0000   1.0000   1.0000   1.0000   1.0000
     1.0000   1.0000   1.0000   1.0000   1.0000   1.0000   1.0000   1.0000

          k = 0.1667 0.5416 0.1653 (  6607 PWs)   bands (ev):

   -14.3029 -14.2974 -14.2932 -14.2917 -14.2903 -14.2897 -14.2881 -14.2875
   -14.2789 -14.2745 -14.2743 -14.2713 -14.2640 -14.2599 -14.2473 -14.2448
   -14.2432 -14.2423 -14.2351 -14.2325  -6.1134  -5.9000  -5.3802  -5.1210
    -0.0667   0.5529   1.1770   1.3241   2.8320   3.7804   4.0456   4.2854
     4.6176   4.8665   5.0158   5.2984   5.6263   6.1577   6.4026   6.5243

     occupation numbers 
     1.0000   1.0000   1.0000   1.0000   1.0000   1.0000   1.0000   1.0000
     1.0000   1.0000   1.0000   1.0000   1.0000   1.0000   1.0000   1.0000
     1.0000   1.0000   1.0000   1.0000   1.0000   1.0000   1.0000   1.0000
     1.0000   1.0000   1.0000   1.0000   1.0000   1.0000   1.0000   1.0000
     1.0000   1.0000   1.0000   1.0000   1.0000   1.0000   1.0000   1.0000

          k = 0.1667 0.5416 0.4960 (  6608 PWs)   bands (ev):

   -14.3024 -14.2973 -14.2938 -14.2931 -14.2907 -14.2901 -14.2881 -14.2877
   -14.2780 -14.2747 -14.2736 -14.2707 -14.2624 -14.2588 -14.2475 -14.2446
   -14.2436 -14.2422 -14.2350 -14.2328  -6.0112  -5.8075  -5.3645  -5.1287
    -0.2322   0.4544   0.8762   1.2211   2.9620   3.3847   3.6257   4.2753
     4.4846   5.0060   5.3949   5.4752   6.1065   6.2128   6.4321   6.5987

     occupation numbers 
     1.0000   1.0000   1.0000   1.0000   1.0000   1.0000   1.0000   1.0000
     1.0000   1.0000   1.0000   1.0000   1.0000   1.0000   1.0000   1.0000
     1.0000   1.0000   1.0000   1.0000   1.0000   1.0000   1.0000   1.0000
     1.0000   1.0000   1.0000   1.0000   1.0000   1.0000   1.0000   1.0000
     1.0000   1.0000   1.0000   1.0000   1.0000   1.0000   1.0000   1.0000

          k = 0.1667 0.5416 0.8266 (  6595 PWs)   bands (ev):

   -14.3015 -14.2971 -14.2957 -14.2944 -14.2911 -14.2907 -14.2883 -14.2880
   -14.2770 -14.2753 -14.2722 -14.2699 -14.2597 -14.2572 -14.2476 -14.2455
   -14.2433 -14.2422 -14.2347 -14.2333  -5.8322  -5.6467  -5.3679  -5.1689
    -0.4320   0.1146   0.6356   0.9803   3.2180   3.3353   3.5734   4.2372
     4.3164   5.0911   5.2067   5.7618   5.9611   6.1730   6.3503   6.5641

     occupation numbers 
     1.0000   1.0000   1.0000   1.0000   1.0000   1.0000   1.0000   1.0000
     1.0000   1.0000   1.0000   1.0000   1.0000   1.0000   1.0000   1.0000
     1.0000   1.0000   1.0000   1.0000   1.0000   1.0000   1.0000   1.0000
     1.0000   1.0000   1.0000   1.0000   1.0000   1.0000   1.0000   1.0000
     1.0000   1.0000   1.0000   1.0000   1.0000   1.0000   1.0000   1.0000

          k = 0.1667 0.5416 1.1573 (  6581 PWs)   bands (ev):

   -14.3001 -14.2981 -14.2965 -14.2956 -14.2914 -14.2913 -14.2885 -14.2883
   -14.2763 -14.2758 -14.2707 -14.2698 -14.2573 -14.2564 -14.2473 -14.2466
   -14.2426 -14.2422 -14.2343 -14.2338  -5.6297  -5.5027  -5.3984  -5.2692
    -0.4821  -0.2817   0.5859   0.7196   3.5255   3.5778   3.8059   4.0484
     4.2880   4.6490   5.2486   5.5362   5.8312   6.0554   6.2705   6.4391

     occupation numbers 
     1.0000   1.0000   1.0000   1.0000   1.0000   1.0000   1.0000   1.0000
     1.0000   1.0000   1.0000   1.0000   1.0000   1.0000   1.0000   1.0000
     1.0000   1.0000   1.0000   1.0000   1.0000   1.0000   1.0000   1.0000
     1.0000   1.0000   1.0000   1.0000   1.0000   1.0000   1.0000   1.0000
     1.0000   1.0000   1.0000   1.0000   1.0000   1.0000   1.0000   1.0000

          k = 0.1667 0.9027 0.1653 (  6622 PWs)   bands (ev):

   -14.2975 -14.2956 -14.2934 -14.2931 -14.2922 -14.2879 -14.2857 -14.2851
   -14.2802 -14.2784 -14.2777 -14.2729 -14.2605 -14.2569 -14.2478 -14.2477
   -14.2425 -14.2398 -14.2338 -14.2327  -5.8393  -5.6706  -5.2890  -5.1252
    -0.3098   0.1716   0.5139   0.6935   3.1625   3.9040   4.2458   4.4931
     4.9191   4.9941   5.1852   5.3644   5.7911   6.2074   6.2849   6.5761

     occupation numbers 
     1.0000   1.0000   1.0000   1.0000   1.0000   1.0000   1.0000   1.0000
     1.0000   1.0000   1.0000   1.0000   1.0000   1.0000   1.0000   1.0000
     1.0000   1.0000   1.0000   1.0000   1.0000   1.0000   1.0000   1.0000
     1.0000   1.0000   1.0000   1.0000   1.0000   1.0000   1.0000   1.0000
     1.0000   1.0000   1.0000   1.0000   1.0000   1.0000   1.0000   1.0000

          k = 0.1667 0.9027 0.4960 (  6616 PWs)   bands (ev):

   -14.2994 -14.2963 -14.2945 -14.2936 -14.2928 -14.2883 -14.2856 -14.2849
   -14.2800 -14.2785 -14.2761 -14.2723 -14.2592 -14.2560 -14.2473 -14.2472
   -14.2426 -14.2403 -14.2338 -14.2328  -5.7504  -5.5913  -5.2681  -5.1171
    -0.2747   0.2608   0.5246   0.6797   3.1602   3.2834   3.5695   4.0502
     4.4581   5.0577   5.2371   5.5837   5.7202   5.9011   6.1986   6.3895

     occupation numbers 
     1.0000   1.0000   1.0000   1.0000   1.0000   1.0000   1.0000   1.0000
     1.0000   1.0000   1.0000   1.0000   1.0000   1.0000   1.0000   1.0000
     1.0000   1.0000   1.0000   1.0000   1.0000   1.0000   1.0000   1.0000
     1.0000   1.0000   1.0000   1.0000   1.0000   1.0000   1.0000   1.0000
     1.0000   1.0000   1.0000   1.0000   1.0000   1.0000   1.0000   1.0000

          k = 0.1667 0.9027 0.8266 (  6593 PWs)   bands (ev):

   -14.3013 -14.2988 -14.2958 -14.2952 -14.2922 -14.2890 -14.2856 -14.2850
   -14.2792 -14.2785 -14.2743 -14.2718 -14.2568 -14.2547 -14.2465 -14.2464
   -14.2426 -14.2411 -14.2337 -14.2330  -5.5991  -5.4577  -5.2564  -5.1249
    -0.2277   0.2277   0.5666   0.7247   2.7633   3.0614   3.5098   3.7012
     3.9089   4.6340   4.9282   5.2184   5.5031   5.6267   5.8136   6.2944

     occupation numbers 
     1.0000   1.0000   1.0000   1.0000   1.0000   1.0000   1.0000   1.0000
     1.0000   1.0000   1.0000   1.0000   1.0000   1.0000   1.0000   1.0000
     1.0000   1.0000   1.0000   1.0000   1.0000   1.0000   1.0000   1.0000
     1.0000   1.0000   1.0000   1.0000   1.0000   1.0000   1.0000   1.0000
     1.0000   1.0000   1.0000   1.0000   1.0000   1.0000   1.0000   1.0000

          k = 0.1667 0.9027 1.1573 (  6603 PWs)   bands (ev):

   -14.3020 -14.3011 -14.2966 -14.2964 -14.2913 -14.2901 -14.2856 -14.2854
   -14.2786 -14.2784 -14.2727 -14.2719 -14.2548 -14.2541 -14.2459 -14.2458
   -14.2423 -14.2418 -14.2335 -14.2332  -5.4364  -5.3426  -5.2682  -5.1792
    -0.1501   0.0150   0.6877   0.7438   2.7700   3.0886   3.1230   3.4782
     3.9182   4.3307   4.5533   4.9598   5.1040   5.3264   5.8502   6.0117

     occupation numbers 
     1.0000   1.0000   1.0000   1.0000   1.0000   1.0000   1.0000   1.0000
     1.0000   1.0000   1.0000   1.0000   1.0000   1.0000   1.0000   1.0000
     1.0000   1.0000   1.0000   1.0000   1.0000   1.0000   1.0000   1.0000
     1.0000   1.0000   1.0000   1.0000   1.0000   1.0000   1.0000   1.0000
     1.0000   1.0000   1.0000   1.0000   1.0000   1.0000   1.0000   1.0000

          k = 0.1667 1.2638 0.1653 (  6619 PWs)   bands (ev):

   -14.2980 -14.2965 -14.2956 -14.2948 -14.2878 -14.2851 -14.2841 -14.2830
   -14.2811 -14.2798 -14.2781 -14.2755 -14.2570 -14.2543 -14.2528 -14.2512
   -14.2375 -14.2359 -14.2339 -14.2336  -5.5157  -5.4284  -5.2837  -5.2499
    -0.3898  -0.1120   0.0114   0.2170   3.6865   4.1443   4.4693   4.7242
     4.8962   4.9770   5.3263   5.5421   5.9250   6.0540   6.1432   6.2804

     occupation numbers 
     1.0000   1.0000   1.0000   1.0000   1.0000   1.0000   1.0000   1.0000
     1.0000   1.0000   1.0000   1.0000   1.0000   1.0000   1.0000   1.0000
     1.0000   1.0000   1.0000   1.0000   1.0000   1.0000   1.0000   1.0000
     1.0000   1.0000   1.0000   1.0000   1.0000   1.0000   1.0000   1.0000
     1.0000   1.0000   1.0000   1.0000   1.0000   1.0000   1.0000   1.0000

          k = 0.1667 1.2638 0.4960 (  6600 PWs)   bands (ev):

   -14.2999 -14.2983 -14.2974 -14.2965 -14.2878 -14.2853 -14.2840 -14.2832
   -14.2802 -14.2795 -14.2770 -14.2749 -14.2561 -14.2541 -14.2513 -14.2503
   -14.2376 -14.2363 -14.2338 -14.2336  -5.4501  -5.3702  -5.2484  -5.2147
    -0.2458   0.0258   0.1490   0.2932   3.4336   3.6410   3.8685   4.1633
     4.2311   4.7335   5.0760   5.2475   5.3649   5.6529   5.9514   6.2616

     occupation numbers 
     1.0000   1.0000   1.0000   1.0000   1.0000   1.0000   1.0000   1.0000
     1.0000   1.0000   1.0000   1.0000   1.0000   1.0000   1.0000   1.0000
     1.0000   1.0000   1.0000   1.0000   1.0000   1.0000   1.0000   1.0000
     1.0000   1.0000   1.0000   1.0000   1.0000   1.0000   1.0000   1.0000
     1.0000   1.0000   1.0000   1.0000   1.0000   1.0000   1.0000   1.0000

          k = 0.1667 1.2638 0.8266 (  6605 PWs)   bands (ev):

   -14.3024 -14.3011 -14.2996 -14.2989 -14.2877 -14.2859 -14.2839 -14.2833
   -14.2792 -14.2789 -14.2757 -14.2743 -14.2545 -14.2534 -14.2494 -14.2489
   -14.2377 -14.2369 -14.2337 -14.2336  -5.3456  -5.2793  -5.2042  -5.1697
    -0.0036   0.2349   0.3731   0.4233   2.7841   3.2006   3.2926   3.7058
     3.7539   4.1919   4.3819   4.8503   4.9275   5.2232   5.8072   5.9668

     occupation numbers 
     1.0000   1.0000   1.0000   1.0000   1.0000   1.0000   1.0000   1.0000
     1.0000   1.0000   1.0000   1.0000   1.0000   1.0000   1.0000   1.0000
     1.0000   1.0000   1.0000   1.0000   1.0000   1.0000   1.0000   1.0000
     1.0000   1.0000   1.0000   1.0000   1.0000   1.0000   1.0000   1.0000
     1.0000   1.0000   1.0000   1.0000   1.0000   1.0000   1.0000   1.0000

          k = 0.1667 1.2638 1.1573 (  6617 PWs)   bands (ev):

   -14.3039 -14.3034 -14.3010 -14.3007 -14.2873 -14.2867 -14.2837 -14.2835
   -14.2786 -14.2786 -14.2747 -14.2743 -14.2531 -14.2528 -14.2480 -14.2479
   -14.2376 -14.2373 -14.2336 -14.2336  -5.2479  -5.2083  -5.1808  -5.1526
     0.2260   0.3226   0.5692   0.5906   2.5193   2.7158   3.0453   3.2644
     3.4928   3.6404   4.0667   4.3630   4.9250   5.1256   5.7331   5.7689

     occupation numbers 
     1.0000   1.0000   1.0000   1.0000   1.0000   1.0000   1.0000   1.0000
     1.0000   1.0000   1.0000   1.0000   1.0000   1.0000   1.0000   1.0000
     1.0000   1.0000   1.0000   1.0000   1.0000   1.0000   1.0000   1.0000
     1.0000   1.0000   1.0000   1.0000   1.0000   1.0000   1.0000   1.0000
     1.0000   1.0000   1.0000   1.0000   1.0000   1.0000   1.0000   1.0000

          k =-0.5000 0.1805 0.1653 (  6594 PWs)   bands (ev):

   -14.3051 -14.3051 -14.2938 -14.2938 -14.2882 -14.2882 -14.2875 -14.2875
   -14.2752 -14.2752 -14.2700 -14.2700 -14.2644 -14.2644 -14.2483 -14.2483
   -14.2406 -14.2406 -14.2338 -14.2338  -6.1701  -6.1701  -5.2826  -5.2826
     0.3601   0.3601   1.8121   1.8121   3.2725   3.2725   4.1854   4.1854
     4.5592   4.5592   5.0891   5.0891   5.4225   5.4225   6.5439   6.5439

     occupation numbers 
     1.0000   1.0000   1.0000   1.0000   1.0000   1.0000   1.0000   1.0000
     1.0000   1.0000   1.0000   1.0000   1.0000   1.0000   1.0000   1.0000
     1.0000   1.0000   1.0000   1.0000   1.0000   1.0000   1.0000   1.0000
     1.0000   1.0000   1.0000   1.0000   1.0000   1.0000   1.0000   1.0000
     1.0000   1.0000   1.0000   1.0000   1.0000   1.0000   1.0000   1.0000

          k =-0.5000 0.1805 0.4960 (  6590 PWs)   bands (ev):

   -14.3044 -14.3044 -14.2941 -14.2941 -14.2887 -14.2887 -14.2880 -14.2880
   -14.2738 -14.2738 -14.2703 -14.2703 -14.2630 -14.2630 -14.2487 -14.2487
   -14.2406 -14.2406 -14.2339 -14.2339  -6.0670  -6.0670  -5.2824  -5.2824
     0.0480   0.0480   1.3709   1.3709   3.4442   3.4442   4.2337   4.2337
     4.9038   4.9038   5.2500   5.2500   5.9152   5.9152   6.4183   6.4183

     occupation numbers 
     1.0000   1.0000   1.0000   1.0000   1.0000   1.0000   1.0000   1.0000
     1.0000   1.0000   1.0000   1.0000   1.0000   1.0000   1.0000   1.0000
     1.0000   1.0000   1.0000   1.0000   1.0000   1.0000   1.0000   1.0000
     1.0000   1.0000   1.0000   1.0000   1.0000   1.0000   1.0000   1.0000
     1.0000   1.0000   1.0000   1.0000   1.0000   1.0000   1.0000   1.0000

          k =-0.5000 0.1805 0.8266 (  6586 PWs)   bands (ev):

   -14.3033 -14.3033 -14.2947 -14.2947 -14.2896 -14.2896 -14.2884 -14.2884
   -14.2719 -14.2719 -14.2709 -14.2709 -14.2608 -14.2608 -14.2492 -14.2492
   -14.2406 -14.2406 -14.2341 -14.2341  -5.8864  -5.8864  -5.3125  -5.3125
    -0.3229  -0.3229   0.8428   0.8428   3.7503   3.7503   4.5071   4.5071
     5.0421   5.0421   5.5043   5.5043   6.1332   6.1332   6.6419   6.6419

     occupation numbers 
     1.0000   1.0000   1.0000   1.0000   1.0000   1.0000   1.0000   1.0000
     1.0000   1.0000   1.0000   1.0000   1.0000   1.0000   1.0000   1.0000
     1.0000   1.0000   1.0000   1.0000   1.0000   1.0000   1.0000   1.0000
     1.0000   1.0000   1.0000   1.0000   1.0000   1.0000   1.0000   1.0000
     1.0000   1.0000   1.0000   1.0000   1.0000   1.0000   1.0000   1.0000

          k =-0.5000 0.1805 1.1573 (  6588 PWs)   bands (ev):

   -14.3023 -14.3023 -14.2955 -14.2955 -14.2902 -14.2902 -14.2886 -14.2886
   -14.2714 -14.2714 -14.2704 -14.2704 -14.2592 -14.2592 -14.2495 -14.2495
   -14.2406 -14.2406 -14.2342 -14.2342  -5.6943  -5.6943  -5.3956  -5.3956
    -0.5436  -0.5436   0.5000   0.5000   4.1606   4.1606   4.8068   4.8068
     4.8759   4.8759   5.3416   5.3416   6.5438   6.5438   6.8118   6.8118

     occupation numbers 
     1.0000   1.0000   1.0000   1.0000   1.0000   1.0000   1.0000   1.0000
     1.0000   1.0000   1.0000   1.0000   1.0000   1.0000   1.0000   1.0000
     1.0000   1.0000   1.0000   1.0000   1.0000   1.0000   1.0000   1.0000
     1.0000   1.0000   1.0000   1.0000   1.0000   1.0000   1.0000   1.0000
     1.0000   1.0000   1.0000   1.0000   1.0000   1.0000   1.0000   1.0000

          k =-0.5000 0.5416 0.1653 (  6594 PWs)   bands (ev):

   -14.3005 -14.3005 -14.2922 -14.2922 -14.2900 -14.2900 -14.2881 -14.2881
   -14.2754 -14.2754 -14.2743 -14.2743 -14.2615 -14.2615 -14.2460 -14.2460
   -14.2428 -14.2428 -14.2337 -14.2337  -6.0246  -6.0246  -5.2325  -5.2325
     0.1673   0.1673   1.3084   1.3084   3.4008   3.4008   4.0463   4.0463
     4.8636   4.8636   5.0314   5.0314   5.7068   5.7068   6.5526   6.5526

     occupation numbers 
     1.0000   1.0000   1.0000   1.0000   1.0000   1.0000   1.0000   1.0000
     1.0000   1.0000   1.0000   1.0000   1.0000   1.0000   1.0000   1.0000
     1.0000   1.0000   1.0000   1.0000   1.0000   1.0000   1.0000   1.0000
     1.0000   1.0000   1.0000   1.0000   1.0000   1.0000   1.0000   1.0000
     1.0000   1.0000   1.0000   1.0000   1.0000   1.0000   1.0000   1.0000

          k =-0.5000 0.5416 0.4960 (  6614 PWs)   bands (ev):

   -14.3002 -14.3002 -14.2932 -14.2932 -14.2903 -14.2903 -14.2881 -14.2881
   -14.2748 -14.2748 -14.2738 -14.2738 -14.2603 -14.2603 -14.2462 -14.2462
   -14.2429 -14.2429 -14.2338 -14.2338  -5.9271  -5.9271  -5.2286  -5.2286
     0.0224   0.0224   1.1122   1.1122   3.3749   3.3749   3.8455   3.8455
     4.4936   4.4936   5.5463   5.5463   6.1144   6.1144   6.5154   6.5154

     occupation numbers 
     1.0000   1.0000   1.0000   1.0000   1.0000   1.0000   1.0000   1.0000
     1.0000   1.0000   1.0000   1.0000   1.0000   1.0000   1.0000   1.0000
     1.0000   1.0000   1.0000   1.0000   1.0000   1.0000   1.0000   1.0000
     1.0000   1.0000   1.0000   1.0000   1.0000   1.0000   1.0000   1.0000
     1.0000   1.0000   1.0000   1.0000   1.0000   1.0000   1.0000   1.0000

          k =-0.5000 0.5416 0.8266 (  6594 PWs)   bands (ev):

   -14.2996 -14.2996 -14.2951 -14.2951 -14.2908 -14.2908 -14.2881 -14.2881
   -14.2749 -14.2749 -14.2724 -14.2724 -14.2582 -14.2582 -14.2465 -14.2465
   -14.2429 -14.2429 -14.2338 -14.2338  -5.7584  -5.7584  -5.2495  -5.2495
    -0.2035  -0.2035   0.8239   0.8239   3.3743   3.3743   4.0138   4.0138
     4.3724   4.3724   5.5634   5.5634   5.9824   5.9824   6.4807   6.4807

     occupation numbers 
     1.0000   1.0000   1.0000   1.0000   1.0000   1.0000   1.0000   1.0000
     1.0000   1.0000   1.0000   1.0000   1.0000   1.0000   1.0000   1.0000
     1.0000   1.0000   1.0000   1.0000   1.0000   1.0000   1.0000   1.0000
     1.0000   1.0000   1.0000   1.0000   1.0000   1.0000   1.0000   1.0000
     1.0000   1.0000   1.0000   1.0000   1.0000   1.0000   1.0000   1.0000

          k =-0.5000 0.5416 1.1573 (  6594 PWs)   bands (ev):

   -14.2986 -14.2986 -14.2970 -14.2970 -14.2912 -14.2912 -14.2881 -14.2881
   -14.2751 -14.2751 -14.2713 -14.2713 -14.2567 -14.2567 -14.2467 -14.2467
   -14.2429 -14.2429 -14.2338 -14.2338  -5.5822  -5.5822  -5.3181  -5.3181
    -0.3653  -0.3653   0.6066   0.6066   3.6091   3.6091   3.9721   3.9721
     4.6356   4.6356   5.1334   5.1334   5.8112   5.8112   6.2882   6.2882

     occupation numbers 
     1.0000   1.0000   1.0000   1.0000   1.0000   1.0000   1.0000   1.0000
     1.0000   1.0000   1.0000   1.0000   1.0000   1.0000   1.0000   1.0000
     1.0000   1.0000   1.0000   1.0000   1.0000   1.0000   1.0000   1.0000
     1.0000   1.0000   1.0000   1.0000   1.0000   1.0000   1.0000   1.0000
     1.0000   1.0000   1.0000   1.0000   1.0000   1.0000   1.0000   1.0000

          k =-0.5000 0.9027 0.1653 (  6618 PWs)   bands (ev):

   -14.2969 -14.2969 -14.2929 -14.2929 -14.2902 -14.2902 -14.2858 -14.2858
   -14.2784 -14.2784 -14.2759 -14.2759 -14.2584 -14.2584 -14.2478 -14.2478
   -14.2411 -14.2411 -14.2332 -14.2332  -5.7681  -5.7681  -5.1936  -5.1936
    -0.1083  -0.1083   0.6178   0.6178   3.6918   3.6918   4.2210   4.2210
     5.0308   5.0308   5.2369   5.2369   5.7686   5.7686   6.4513   6.4513

     occupation numbers 
     1.0000   1.0000   1.0000   1.0000   1.0000   1.0000   1.0000   1.0000
     1.0000   1.0000   1.0000   1.0000   1.0000   1.0000   1.0000   1.0000
     1.0000   1.0000   1.0000   1.0000   1.0000   1.0000   1.0000   1.0000
     1.0000   1.0000   1.0000   1.0000   1.0000   1.0000   1.0000   1.0000
     1.0000   1.0000   1.0000   1.0000   1.0000   1.0000   1.0000   1.0000

          k =-0.5000 0.9027 0.4960 (  6612 PWs)   bands (ev):

   -14.2982 -14.2982 -14.2940 -14.2940 -14.2905 -14.2905 -14.2854 -14.2854
   -14.2780 -14.2780 -14.2753 -14.2753 -14.2573 -14.2573 -14.2474 -14.2474
   -14.2414 -14.2414 -14.2332 -14.2332  -5.6838  -5.6838  -5.1794  -5.1794
    -0.0582  -0.0582   0.6308   0.6308   3.2803   3.2803   3.9744   3.9744
     4.4383   4.4383   5.4877   5.4877   5.6745   5.6745   6.3498   6.3498

     occupation numbers 
     1.0000   1.0000   1.0000   1.0000   1.0000   1.0000   1.0000   1.0000
     1.0000   1.0000   1.0000   1.0000   1.0000   1.0000   1.0000   1.0000
     1.0000   1.0000   1.0000   1.0000   1.0000   1.0000   1.0000   1.0000
     1.0000   1.0000   1.0000   1.0000   1.0000   1.0000   1.0000   1.0000
     1.0000   1.0000   1.0000   1.0000   1.0000   1.0000   1.0000   1.0000

          k =-0.5000 0.9027 0.8266 (  6600 PWs)   bands (ev):

   -14.3000 -14.3000 -14.2957 -14.2957 -14.2909 -14.2909 -14.2851 -14.2851
   -14.2777 -14.2777 -14.2742 -14.2742 -14.2554 -14.2554 -14.2468 -14.2468
   -14.2418 -14.2418 -14.2333 -14.2333  -5.5420  -5.5420  -5.1770  -5.1770
    -0.0313  -0.0313   0.6582   0.6582   2.9179   2.9179   3.6473   3.6473
     4.3174   4.3174   4.9554   4.9554   5.4295   5.4295   6.1289   6.1289

     occupation numbers 
     1.0000   1.0000   1.0000   1.0000   1.0000   1.0000   1.0000   1.0000
     1.0000   1.0000   1.0000   1.0000   1.0000   1.0000   1.0000   1.0000
     1.0000   1.0000   1.0000   1.0000   1.0000   1.0000   1.0000   1.0000
     1.0000   1.0000   1.0000   1.0000   1.0000   1.0000   1.0000   1.0000
     1.0000   1.0000   1.0000   1.0000   1.0000   1.0000   1.0000   1.0000

          k =-0.5000 0.9027 1.1573 (  6606 PWs)   bands (ev):

   -14.3012 -14.3012 -14.2969 -14.2969 -14.2912 -14.2912 -14.2850 -14.2850
   -14.2777 -14.2777 -14.2734 -14.2734 -14.2539 -14.2539 -14.2463 -14.2463
   -14.2420 -14.2420 -14.2333 -14.2333  -5.4009  -5.4009  -5.2124  -5.2124
    -0.0568  -0.0568   0.6909   0.6909   2.9248   2.9248   3.2560   3.2560
     4.3007   4.3007   4.6336   4.6336   5.3038   5.3038   5.7658   5.7658

     occupation numbers 
     1.0000   1.0000   1.0000   1.0000   1.0000   1.0000   1.0000   1.0000
     1.0000   1.0000   1.0000   1.0000   1.0000   1.0000   1.0000   1.0000
     1.0000   1.0000   1.0000   1.0000   1.0000   1.0000   1.0000   1.0000
     1.0000   1.0000   1.0000   1.0000   1.0000   1.0000   1.0000   1.0000
     1.0000   1.0000   1.0000   1.0000   1.0000   1.0000   1.0000   1.0000

          k =-0.5000 1.2638 0.1653 (  6618 PWs)   bands (ev):

   -14.2970 -14.2970 -14.2957 -14.2957 -14.2859 -14.2859 -14.2846 -14.2846
   -14.2792 -14.2792 -14.2775 -14.2775 -14.2555 -14.2555 -14.2521 -14.2521
   -14.2367 -14.2367 -14.2338 -14.2338  -5.4772  -5.4772  -5.2618  -5.2618
    -0.2087  -0.2087   0.0469   0.0469   4.1636   4.1636   4.5043   4.5043
     4.9821   4.9821   5.1904   5.1904   5.8806   5.8806   6.1819   6.1819

     occupation numbers 
     1.0000   1.0000   1.0000   1.0000   1.0000   1.0000   1.0000   1.0000
     1.0000   1.0000   1.0000   1.0000   1.0000   1.0000   1.0000   1.0000
     1.0000   1.0000   1.0000   1.0000   1.0000   1.0000   1.0000   1.0000
     1.0000   1.0000   1.0000   1.0000   1.0000   1.0000   1.0000   1.0000
     1.0000   1.0000   1.0000   1.0000   1.0000   1.0000   1.0000   1.0000

          k =-0.5000 1.2638 0.4960 (  6612 PWs)   bands (ev):

   -14.2988 -14.2988 -14.2973 -14.2973 -14.2863 -14.2863 -14.2844 -14.2844
   -14.2784 -14.2784 -14.2770 -14.2770 -14.2544 -14.2544 -14.2513 -14.2513
   -14.2368 -14.2368 -14.2338 -14.2338  -5.4152  -5.4152  -5.2267  -5.2267
    -0.0728  -0.0728   0.1635   0.1635   3.5726   3.5726   4.0604   4.0604
     4.5734   4.5734   5.0115   5.0115   5.4983   5.4983   5.9242   5.9242

     occupation numbers 
     1.0000   1.0000   1.0000   1.0000   1.0000   1.0000   1.0000   1.0000
     1.0000   1.0000   1.0000   1.0000   1.0000   1.0000   1.0000   1.0000
     1.0000   1.0000   1.0000   1.0000   1.0000   1.0000   1.0000   1.0000
     1.0000   1.0000   1.0000   1.0000   1.0000   1.0000   1.0000   1.0000
     1.0000   1.0000   1.0000   1.0000   1.0000   1.0000   1.0000   1.0000

          k =-0.5000 1.2638 0.8266 (  6614 PWs)   bands (ev):

   -14.3013 -14.3013 -14.2996 -14.2996 -14.2868 -14.2868 -14.2845 -14.2845
   -14.2775 -14.2775 -14.2760 -14.2760 -14.2528 -14.2528 -14.2502 -14.2502
   -14.2369 -14.2369 -14.2339 -14.2339  -5.3175  -5.3175  -5.1819  -5.1819
     0.1350   0.1350   0.3659   0.3659   2.9857   2.9857   3.4791   3.4791
     4.0241   4.0241   4.4708   4.4708   5.3379   5.3379   5.7032   5.7032

     occupation numbers 
     1.0000   1.0000   1.0000   1.0000   1.0000   1.0000   1.0000   1.0000
     1.0000   1.0000   1.0000   1.0000   1.0000   1.0000   1.0000   1.0000
     1.0000   1.0000   1.0000   1.0000   1.0000   1.0000   1.0000   1.0000
     1.0000   1.0000   1.0000   1.0000   1.0000   1.0000   1.0000   1.0000
     1.0000   1.0000   1.0000   1.0000   1.0000   1.0000   1.0000   1.0000

          k =-0.5000 1.2638 1.1573 (  6622 PWs)   bands (ev):

   -14.3030 -14.3030 -14.3013 -14.3013 -14.2872 -14.2872 -14.2846 -14.2846
   -14.2769 -14.2769 -14.2754 -14.2754 -14.2516 -14.2516 -14.2493 -14.2493
   -14.2370 -14.2370 -14.2339 -14.2339  -5.2323  -5.2323  -5.1625  -5.1625
     0.2818   0.2818   0.5641   0.5641   2.7576   2.7576   3.0074   3.0074
     3.6300   3.6300   3.9567   3.9567   5.4354   5.4354   5.6140   5.6140

     occupation numbers 
     1.0000   1.0000   1.0000   1.0000   1.0000   1.0000   1.0000   1.0000
     1.0000   1.0000   1.0000   1.0000   1.0000   1.0000   1.0000   1.0000
     1.0000   1.0000   1.0000   1.0000   1.0000   1.0000   1.0000   1.0000
     1.0000   1.0000   1.0000   1.0000   1.0000   1.0000   1.0000   1.0000
     1.0000   1.0000   1.0000   1.0000   1.0000   1.0000   1.0000   1.0000

     highest occupied level (ev):     6.8587

!    total energy              =    -827.73714446 Ry
     estimated scf accuracy    <          1.7E-09 Ry

     The total energy is the sum of the following terms:
     one-electron contribution =    -275.77439519 Ry
     hartree contribution      =     185.53535849 Ry
     xc contribution           =    -308.82294515 Ry
     ewald contribution        =    -428.55832825 Ry
     DFT-D3 Dispersion         =      -0.11683436 Ry

     convergence has been achieved in  12 iterations

     Forces acting on atoms (cartesian axes, Ry/au):

     atom    1 type  2   force =    -0.00947549    0.00000000   -0.00020320
     atom    2 type  1   force =     0.01071606    0.00000000    0.00204179
     atom    3 type  2   force =     0.00947549    0.00000000   -0.00020320
     atom    4 type  1   force =    -0.01071606    0.00000000    0.00204179
     atom    5 type  2   force =    -0.00947549    0.00000000    0.00020320
     atom    6 type  1   force =     0.01071606    0.00000000   -0.00204179
     atom    7 type  2   force =     0.00947549    0.00000000    0.00020320
     atom    8 type  1   force =    -0.01071606   -0.00000000   -0.00204179
     The non-local contrib.  to forces
     atom    1 type  2   force =    -0.09224180    0.00000000    0.11692159
     atom    2 type  1   force =     0.33383914    0.00000000    0.30237227
     atom    3 type  2   force =     0.09224180    0.00000000    0.11692159
     atom    4 type  1   force =    -0.33383914    0.00000000    0.30237227
     atom    5 type  2   force =    -0.09224180    0.00000000   -0.11692159
     atom    6 type  1   force =     0.33383914    0.00000000   -0.30237227
     atom    7 type  2   force =     0.09224180    0.00000000   -0.11692159
     atom    8 type  1   force =    -0.33383914    0.00000000   -0.30237227
     The ionic contribution  to forces
     atom    1 type  2   force =     0.85830110   -0.00000000   -1.45195863
     atom    2 type  1   force =    -0.56759190   -0.00000000   -0.92563768
     atom    3 type  2   force =    -0.85830110    0.00000000   -1.45195863
     atom    4 type  1   force =     0.56759190    0.00000000   -0.92563768
     atom    5 type  2   force =     0.85830110    0.00000000    1.45195863
     atom    6 type  1   force =    -0.56759190   -0.00000000    0.92563768
     atom    7 type  2   force =    -0.85830110   -0.00000000    1.45195863
     atom    8 type  1   force =     0.56759190    0.00000000    0.92563768
     The local contribution  to forces
     atom    1 type  2   force =    -0.78592888    0.00000000    1.34559105
     atom    2 type  1   force =     0.25205485    0.00000000    0.62847249
     atom    3 type  2   force =     0.78592888    0.00000000    1.34559105
     atom    4 type  1   force =    -0.25205485    0.00000000    0.62847249
     atom    5 type  2   force =    -0.78592888    0.00000000   -1.34559105
     atom    6 type  1   force =     0.25205485    0.00000000   -0.62847249
     atom    7 type  2   force =     0.78592888    0.00000000   -1.34559105
     atom    8 type  1   force =    -0.25205485    0.00000000   -0.62847249
     The core correction contribution to forces
     atom    1 type  2   force =     0.01068000    0.00000000   -0.01289787
     atom    2 type  1   force =    -0.00761534    0.00000000   -0.00460861
     atom    3 type  2   force =    -0.01068000   -0.00000000   -0.01289787
     atom    4 type  1   force =     0.00761534    0.00000000   -0.00460861
     atom    5 type  2   force =     0.01068000    0.00000000    0.01289787
     atom    6 type  1   force =    -0.00761534    0.00000000    0.00460861
     atom    7 type  2   force =    -0.01068000   -0.00000000    0.01289787
     atom    8 type  1   force =     0.00761534   -0.00000000    0.00460861
     The Hubbard contrib.    to forces
     atom    1 type  2   force =     0.00000000    0.00000000    0.00000000
     atom    2 type  1   force =     0.00000000    0.00000000    0.00000000
     atom    3 type  2   force =     0.00000000    0.00000000    0.00000000
     atom    4 type  1   force =     0.00000000    0.00000000    0.00000000
     atom    5 type  2   force =     0.00000000    0.00000000    0.00000000
     atom    6 type  1   force =     0.00000000    0.00000000    0.00000000
     atom    7 type  2   force =     0.00000000    0.00000000    0.00000000
     atom    8 type  1   force =     0.00000000    0.00000000    0.00000000
     The SCF correction term to forces
     atom    1 type  2   force =    -0.00000252   -0.00000000   -0.00000215
     atom    2 type  1   force =     0.00003647    0.00000000    0.00001819
     atom    3 type  2   force =     0.00000252   -0.00000000   -0.00000215
     atom    4 type  1   force =    -0.00003647   -0.00000000    0.00001819
     atom    5 type  2   force =    -0.00000252    0.00000000    0.00000215
     atom    6 type  1   force =     0.00003647    0.00000000   -0.00001819
     atom    7 type  2   force =     0.00000252    0.00000000    0.00000215
     atom    8 type  1   force =    -0.00003647   -0.00000000   -0.00001819

     DFT-D3 dispersion contribution to forces:
     atom    1 type  2   force =    -0.00028338   -0.00000000    0.00214281
     atom    2 type  1   force =    -0.00000716    0.00000000    0.00142513
     atom    3 type  2   force =     0.00028338   -0.00000000    0.00214281
     atom    4 type  1   force =     0.00000716   -0.00000000    0.00142513
     atom    5 type  2   force =    -0.00028338   -0.00000000   -0.00214281
     atom    6 type  1   force =    -0.00000716    0.00000000   -0.00142513
     atom    7 type  2   force =     0.00028338    0.00000000   -0.00214281
     atom    8 type  1   force =     0.00000716    0.00000000   -0.00142513

     Total force =     0.028902     Total SCF correction =     0.000082

     DFT-D3 dispersion Force =     0.005178

     Writing all to output data dir ./tmp/SnSe_pnma.save/ :
     XML data file, charge density, pseudopotentials, collected wavefunctions
 
     init_run     :      1.77s CPU      2.02s WALL (       1 calls)
     electrons    :     39.68s CPU     42.48s WALL (       1 calls)
     forces       :      0.73s CPU      0.86s WALL (       1 calls)
     force_dftd3  :      0.05s CPU      0.05s WALL (       1 calls)

     Called by init_run:
     wfcinit      :      1.11s CPU      1.14s WALL (       1 calls)
     wfcinit:atom :      0.02s CPU      0.02s WALL (      11 calls)
     wfcinit:wfcr :      0.95s CPU      0.96s WALL (      11 calls)
     potinit      :      0.16s CPU      0.18s WALL (       1 calls)
     hinit0       :      0.23s CPU      0.24s WALL (       1 calls)

     Called by electrons:
     c_bands      :     28.99s CPU     29.36s WALL (      12 calls)
     sum_band     :      6.94s CPU      8.23s WALL (      12 calls)
     v_of_rho     :      1.40s CPU      1.44s WALL (      13 calls)
     v_h          :      0.10s CPU      0.10s WALL (      13 calls)
     v_xc         :      1.39s CPU      1.44s WALL (      14 calls)
     newd         :      2.37s CPU      3.60s WALL (      13 calls)
     mix_rho      :      0.14s CPU      0.15s WALL (      12 calls)
     energy_dftd3 :      0.03s CPU      0.04s WALL (       1 calls)

     Called by c_bands:
     init_us_2    :      0.95s CPU      0.96s WALL (     286 calls)
     cegterg      :     25.87s CPU     26.14s WALL (     132 calls)

     Called by sum_band:
     sum_band:wei :      0.00s CPU      0.00s WALL (      12 calls)
     sum_band:loo :      4.41s CPU      4.45s WALL (      12 calls)
     sum_band:buf :      0.06s CPU      0.06s WALL (     132 calls)
     sum_band:ini :      0.42s CPU      0.42s WALL (     132 calls)
     sum_band:cal :      0.58s CPU      0.59s WALL (     132 calls)
     sum_band:bec :      0.01s CPU      0.01s WALL (     132 calls)
     addusdens    :      2.24s CPU      3.45s WALL (      12 calls)
                                        0.00s GPU  (      12 calls)
     addusd:skk   :      0.01s CPU      0.01s WALL (      24 calls)
                                        0.00s GPU  (      24 calls)

     Called by *egterg:
     cdiaghg      :      0.94s CPU      0.95s WALL (     609 calls)
     cegterg:over :      1.42s CPU      1.42s WALL (     477 calls)
     cegterg:upda :      0.79s CPU      0.82s WALL (     477 calls)
     cegterg:last :      2.05s CPU      2.06s WALL (     334 calls)
     h_psi        :     18.62s CPU     18.83s WALL (     620 calls)
     s_psi        :      2.06s CPU      2.08s WALL (     620 calls)
     g_psi        :      0.08s CPU      0.08s WALL (     477 calls)

     Called by h_psi:
     h_psi:calbec :      1.92s CPU      1.95s WALL (     620 calls)
     vloc_psi     :     14.42s CPU     14.57s WALL (     620 calls)
     add_vuspsi   :      2.11s CPU      2.11s WALL (     620 calls)

     General routines
     calbec       :      2.70s CPU      2.74s WALL (     796 calls)
     fft          :      0.67s CPU      0.69s WALL (     178 calls)
     ffts         :      0.02s CPU      0.02s WALL (      25 calls)
     fftw         :      9.60s CPU      9.70s WALL (   37568 calls)
     interpolate  :      0.07s CPU      0.07s WALL (      13 calls)
 
     Parallel routines
 
     PWSCF        :     42.44s CPU     46.39s WALL

 
   This run was terminated on:  21:37:46  19May2026            

=------------------------------------------------------------------------------=
   JOB DONE.
=------------------------------------------------------------------------------=
