
     Program PWSCF v.7.3.1 starts on 20May2026 at 18:42:22 

     This program is part of the open-source Quantum ESPRESSO suite
     for quantum simulation of materials; please cite
         "P. Giannozzi et al., J. Phys.:Condens. Matter 21 395502 (2009);
         "P. Giannozzi et al., J. Phys.:Condens. Matter 29 465901 (2017);
         "P. Giannozzi et al., J. Chem. Phys. 152 154105 (2020);
          URL http://www.quantum-espresso.org", 
     in publications or presentations arising from this work. More details at
     http://www.quantum-espresso.org/quote

     Parallel version (MPI & OpenMP), running on       6 processor cores
     Number of MPI processes:                 6
     Threads/MPI process:                     1

     MPI processes distributed on     1 nodes
     5340 MiB available memory on the printing compute node when the environment starts
 
     Waiting for input...
     Reading input from standard input

     Current dimensions of program PWSCF are:
     Max number of different atomic species (ntypx) = 10
     Max number of k-points (npk) =  40000
     Max angular momentum in pseudopotentials (lmaxx) =  4
 
     K-points division:     npool     =       3
     R & G space division:  proc/nbgrp/npool/nimage =       2
     Subspace diagonalization in iterative solution of the eigenvalue problem:
     a serial algorithm will be used

 
     Parallelization info
     --------------------
     sticks:   dense  smooth     PW     G-vecs:    dense   smooth      PW
     Min        4215    1694    479               188916    47813    7200
     Max        4216    1695    480               188917    47814    7201
     Sum        8431    3389    959               377833    95627   14401
 
     Using Slab Decomposition
 


     bravais-lattice index     =            8
     lattice parameter (alat)  =      22.4310  a.u.
     unit-cell volume          =    1522.1772 (a.u.)^3
     number of atoms/cell      =            8
     number of atomic types    =            2
     number of electrons       =        80.00
     number of Kohn-Sham states=           40
     kinetic-energy cutoff     =      60.0000  Ry
     charge density cutoff     =     600.0000  Ry
     scf convergence threshold =      1.0E-08
     mixing beta               =       0.7000
     number of iterations used =            8  plain     mixing
     Exchange-correlation= SLA  PW   PBE  PBE
                           (   1   4   3   4   0   0   0)

     celldm(1)=  22.431049  celldm(2)=   0.351424  celldm(3)=   0.383783
     celldm(4)=   0.000000  celldm(5)=   0.000000  celldm(6)=   0.000000

     crystal axes: (cart. coord. in units of alat)
               a(1) = (   1.000000   0.000000   0.000000 )  
               a(2) = (   0.000000   0.351424   0.000000 )  
               a(3) = (   0.000000   0.000000   0.383783 )  

     reciprocal axes: (cart. coord. in units 2 pi/alat)
               b(1) = (  1.000000  0.000000  0.000000 )  
               b(2) = (  0.000000  2.845567  0.000000 )  
               b(3) = (  0.000000  0.000000  2.605642 )  


     PseudoPot. # 1 for Sn read from file:
     ../pseudo/Sn_pbe_v1.uspp.F.UPF
     MD5 check sum: 4cf58ce39ec5d5d420df3dd08604eb00
     Pseudo is Ultrasoft + core correction, Zval = 14.0
     Generated by new atomic code, or converted to UPF format
     Using radial grid of  891 points,  6 beta functions with: 
                l(1) =   0
                l(2) =   0
                l(3) =   1
                l(4) =   1
                l(5) =   2
                l(6) =   2
     Q(r) pseudized with  6 coefficients,  rinner =    1.200   1.200   1.200
                                                       1.200   1.200

     PseudoPot. # 2 for Se read from file:
     ../pseudo/Se_pbe_v1.uspp.F.UPF
     MD5 check sum: 1b3568f3a8ae88f9a2a0ad0698632c85
     Pseudo is Ultrasoft + core correction, Zval =  6.0
     Generated by new atomic code, or converted to UPF format
     Using radial grid of  877 points,  6 beta functions with: 
                l(1) =   0
                l(2) =   0
                l(3) =   1
                l(4) =   1
                l(5) =   2
                l(6) =   2
     Q(r) pseudized with  8 coefficients,  rinner =    1.300   1.300   1.300
                                                       1.300   1.300

     atomic species   valence    mass     pseudopotential
     Sn               14.00   118.71000     Sn( 1.00)
     Se                6.00    78.97100     Se( 1.00)

      8 Sym. Ops., with inversion, found ( 6 have fractional translation)


                                    s                        frac. trans.

      isym =  1     identity                                     

 cryst.   s( 1) = (     1          0          0      )
                  (     0          1          0      )
                  (     0          0          1      )

 cart.    s( 1) = (  1.0000000  0.0000000  0.0000000 )
                  (  0.0000000  1.0000000  0.0000000 )
                  (  0.0000000  0.0000000  1.0000000 )


      isym =  2     180 deg rotation - cart. axis [0,0,1]        

 cryst.   s( 2) = (    -1          0          0      )    f =(  0.5000000 )
                  (     0         -1          0      )       (  0.0000000 )
                  (     0          0          1      )       ( -0.5000000 )

 cart.    s( 2) = ( -1.0000000  0.0000000  0.0000000 )    f =(  0.5000000 )
                  (  0.0000000 -1.0000000  0.0000000 )       (  0.0000000 )
                  (  0.0000000  0.0000000  1.0000000 )       ( -0.1918913 )


      isym =  3     180 deg rotation - cart. axis [0,1,0]        

 cryst.   s( 3) = (    -1          0          0      )    f =(  0.0000000 )
                  (     0          1          0      )       ( -0.5000000 )
                  (     0          0         -1      )       (  0.0000000 )

 cart.    s( 3) = ( -1.0000000  0.0000000  0.0000000 )    f =(  0.0000000 )
                  (  0.0000000  1.0000000  0.0000000 )       ( -0.1757119 )
                  (  0.0000000  0.0000000 -1.0000000 )       (  0.0000000 )


      isym =  4     180 deg rotation - cart. axis [1,0,0]        

 cryst.   s( 4) = (     1          0          0      )    f =(  0.5000000 )
                  (     0         -1          0      )       (  0.5000000 )
                  (     0          0         -1      )       (  0.5000000 )

 cart.    s( 4) = (  1.0000000  0.0000000  0.0000000 )    f =(  0.5000000 )
                  (  0.0000000 -1.0000000  0.0000000 )       (  0.1757119 )
                  (  0.0000000  0.0000000 -1.0000000 )       (  0.1918913 )


      isym =  5     inversion                                    

 cryst.   s( 5) = (    -1          0          0      )
                  (     0         -1          0      )
                  (     0          0         -1      )

 cart.    s( 5) = ( -1.0000000  0.0000000  0.0000000 )
                  (  0.0000000 -1.0000000  0.0000000 )
                  (  0.0000000  0.0000000 -1.0000000 )


      isym =  6     inv. 180 deg rotation - cart. axis [0,0,1]   

 cryst.   s( 6) = (     1          0          0      )    f =(  0.5000000 )
                  (     0          1          0      )       (  0.0000000 )
                  (     0          0         -1      )       (  0.5000000 )

 cart.    s( 6) = (  1.0000000  0.0000000  0.0000000 )    f =(  0.5000000 )
                  (  0.0000000  1.0000000  0.0000000 )       (  0.0000000 )
                  (  0.0000000  0.0000000 -1.0000000 )       (  0.1918913 )


      isym =  7     inv. 180 deg rotation - cart. axis [0,1,0]   

 cryst.   s( 7) = (     1          0          0      )    f =(  0.0000000 )
                  (     0         -1          0      )       (  0.5000000 )
                  (     0          0          1      )       (  0.0000000 )

 cart.    s( 7) = (  1.0000000  0.0000000  0.0000000 )    f =(  0.0000000 )
                  (  0.0000000 -1.0000000  0.0000000 )       (  0.1757119 )
                  (  0.0000000  0.0000000  1.0000000 )       (  0.0000000 )


      isym =  8     inv. 180 deg rotation - cart. axis [1,0,0]   

 cryst.   s( 8) = (    -1          0          0      )    f =(  0.5000000 )
                  (     0          1          0      )       ( -0.5000000 )
                  (     0          0          1      )       ( -0.5000000 )

 cart.    s( 8) = ( -1.0000000  0.0000000  0.0000000 )    f =(  0.5000000 )
                  (  0.0000000  1.0000000  0.0000000 )       ( -0.1757119 )
                  (  0.0000000  0.0000000  1.0000000 )       ( -0.1918913 )


     point group D_2h (mmm) 
     there are  8 classes
     the character table:

       E     C2    C2'   C2''  i     s_v   s_v'  s_v''
A_g    1.00  1.00  1.00  1.00  1.00  1.00  1.00  1.00
B_1g   1.00  1.00 -1.00 -1.00  1.00  1.00 -1.00 -1.00
B_2g   1.00 -1.00  1.00 -1.00  1.00 -1.00  1.00 -1.00
B_3g   1.00 -1.00 -1.00  1.00  1.00 -1.00 -1.00  1.00
A_u    1.00  1.00  1.00  1.00 -1.00 -1.00 -1.00 -1.00
B_1u   1.00  1.00 -1.00 -1.00 -1.00 -1.00  1.00  1.00
B_2u   1.00 -1.00  1.00 -1.00 -1.00  1.00 -1.00  1.00
B_3u   1.00 -1.00 -1.00  1.00 -1.00  1.00  1.00 -1.00

     the symmetry operations in each class and the name of the first element:

     E        1
          identity                                               
     C2       2
          180 deg rotation - cart. axis [0,0,1]                  
     C2'      4
          180 deg rotation - cart. axis [1,0,0]                  
     C2''     3
          180 deg rotation - cart. axis [0,1,0]                  
     i        5
          inversion                                              
     s_v      6
          inv. 180 deg rotation - cart. axis [0,0,1]             
     s_v'     8
          inv. 180 deg rotation - cart. axis [1,0,0]             
     s_v''    7
          inv. 180 deg rotation - cart. axis [0,1,0]             

   Cartesian axes

     site n.     atom                  positions (alat units)
         1        Se     tau(   1) = (   0.8549563   0.0878559   0.1854622  )
         2        Sn     tau(   2) = (   0.1165395   0.0878559   0.0430938  )
         3        Se     tau(   3) = (   0.6450437   0.2635678   0.3773535  )
         4        Sn     tau(   4) = (   0.3834605   0.2635678   0.2349851  )
         5        Se     tau(   5) = (   0.3549563   0.0878559   0.0064291  )
         6        Sn     tau(   6) = (   0.6165395   0.0878559   0.1487975  )
         7        Se     tau(   7) = (   0.1450437   0.2635678   0.1983204  )
         8        Sn     tau(   8) = (   0.8834605   0.2635678   0.3406888  )

     --------------------------------------------
     DFT-D3 Dispersion Correction (3-body terms):
     --------------------------------------------
       Reference C6 values for interpolation: 

         atom   Coordination number   C6
         Se         0.000           427.35
         Se         0.990           427.57
         Se         1.981           421.05
         Sn         0.000          1255.14
         Sn         0.951          1084.09
         Sn         1.950          1010.83
         Sn         2.926           818.29
         Sn         3.912           672.20

       Values used:

         atom   Coordination number  R0_AB[au]  C6      C8
         Se         3.290            3.332    421.05  29958.36
         Sn         3.889            3.957    675.48  84780.43
         Se         3.290            3.332    421.05  29958.36
         Sn         3.889            3.957    675.48  84780.43
         Se         3.290            3.332    421.05  29958.36
         Sn         3.889            3.957    675.48  84780.43
         Se         3.290            3.332    421.05  29958.36
         Sn         3.889            3.957    675.48  84780.43

         Molecular C6 ( Ry / a.u.^6 ) =     34589.21


   Crystallographic axes

     site n.     atom                  positions (cryst. coord.)
         1        Se     tau(   1) = (  0.8549563  0.2500000  0.4832481  )
         2        Sn     tau(   2) = (  0.1165395  0.2500000  0.1122870  )
         3        Se     tau(   3) = (  0.6450437  0.7500000  0.9832481  )
         4        Sn     tau(   4) = (  0.3834605  0.7500000  0.6122870  )
         5        Se     tau(   5) = (  0.3549563  0.2500000  0.0167519  )
         6        Sn     tau(   6) = (  0.6165395  0.2500000  0.3877130  )
         7        Se     tau(   7) = (  0.1450437  0.7500000  0.5167519  )
         8        Sn     tau(   8) = (  0.8834605  0.7500000  0.8877130  )

     number of k points=    32
                       cart. coord. in units 2pi/alat
        k(    1) = (   0.1666667   0.1778480   0.1628526), wk =   0.0833333
        k(    2) = (   0.1666667   0.1778480   0.4885578), wk =   0.0833333
        k(    3) = (   0.1666667   0.1778480   0.8142630), wk =   0.0833333
        k(    4) = (   0.1666667   0.1778480   1.1399682), wk =   0.0833333
        k(    5) = (   0.1666667   0.5335439   0.1628526), wk =   0.0833333
        k(    6) = (   0.1666667   0.5335439   0.4885578), wk =   0.0833333
        k(    7) = (   0.1666667   0.5335439   0.8142630), wk =   0.0833333
        k(    8) = (   0.1666667   0.5335439   1.1399682), wk =   0.0833333
        k(    9) = (   0.1666667   0.8892398   0.1628526), wk =   0.0833333
        k(   10) = (   0.1666667   0.8892398   0.4885578), wk =   0.0833333
        k(   11) = (   0.1666667   0.8892398   0.8142630), wk =   0.0833333
        k(   12) = (   0.1666667   0.8892398   1.1399682), wk =   0.0833333
        k(   13) = (   0.1666667   1.2449358   0.1628526), wk =   0.0833333
        k(   14) = (   0.1666667   1.2449358   0.4885578), wk =   0.0833333
        k(   15) = (   0.1666667   1.2449358   0.8142630), wk =   0.0833333
        k(   16) = (   0.1666667   1.2449358   1.1399682), wk =   0.0833333
        k(   17) = (  -0.5000000   0.1778480   0.1628526), wk =   0.0416667
        k(   18) = (  -0.5000000   0.1778480   0.4885578), wk =   0.0416667
        k(   19) = (  -0.5000000   0.1778480   0.8142630), wk =   0.0416667
        k(   20) = (  -0.5000000   0.1778480   1.1399682), wk =   0.0416667
        k(   21) = (  -0.5000000   0.5335439   0.1628526), wk =   0.0416667
        k(   22) = (  -0.5000000   0.5335439   0.4885578), wk =   0.0416667
        k(   23) = (  -0.5000000   0.5335439   0.8142630), wk =   0.0416667
        k(   24) = (  -0.5000000   0.5335439   1.1399682), wk =   0.0416667
        k(   25) = (  -0.5000000   0.8892398   0.1628526), wk =   0.0416667
        k(   26) = (  -0.5000000   0.8892398   0.4885578), wk =   0.0416667
        k(   27) = (  -0.5000000   0.8892398   0.8142630), wk =   0.0416667
        k(   28) = (  -0.5000000   0.8892398   1.1399682), wk =   0.0416667
        k(   29) = (  -0.5000000   1.2449358   0.1628526), wk =   0.0416667
        k(   30) = (  -0.5000000   1.2449358   0.4885578), wk =   0.0416667
        k(   31) = (  -0.5000000   1.2449358   0.8142630), wk =   0.0416667
        k(   32) = (  -0.5000000   1.2449358   1.1399682), wk =   0.0416667

                       cryst. coord.
        k(    1) = (   0.1666667   0.0625000   0.0625000), wk =   0.0833333
        k(    2) = (   0.1666667   0.0625000   0.1875000), wk =   0.0833333
        k(    3) = (   0.1666667   0.0625000   0.3125000), wk =   0.0833333
        k(    4) = (   0.1666667   0.0625000   0.4375000), wk =   0.0833333
        k(    5) = (   0.1666667   0.1875000   0.0625000), wk =   0.0833333
        k(    6) = (   0.1666667   0.1875000   0.1875000), wk =   0.0833333
        k(    7) = (   0.1666667   0.1875000   0.3125000), wk =   0.0833333
        k(    8) = (   0.1666667   0.1875000   0.4375000), wk =   0.0833333
        k(    9) = (   0.1666667   0.3125000   0.0625000), wk =   0.0833333
        k(   10) = (   0.1666667   0.3125000   0.1875000), wk =   0.0833333
        k(   11) = (   0.1666667   0.3125000   0.3125000), wk =   0.0833333
        k(   12) = (   0.1666667   0.3125000   0.4375000), wk =   0.0833333
        k(   13) = (   0.1666667   0.4375000   0.0625000), wk =   0.0833333
        k(   14) = (   0.1666667   0.4375000   0.1875000), wk =   0.0833333
        k(   15) = (   0.1666667   0.4375000   0.3125000), wk =   0.0833333
        k(   16) = (   0.1666667   0.4375000   0.4375000), wk =   0.0833333
        k(   17) = (  -0.5000000   0.0625000   0.0625000), wk =   0.0416667
        k(   18) = (  -0.5000000   0.0625000   0.1875000), wk =   0.0416667
        k(   19) = (  -0.5000000   0.0625000   0.3125000), wk =   0.0416667
        k(   20) = (  -0.5000000   0.0625000   0.4375000), wk =   0.0416667
        k(   21) = (  -0.5000000   0.1875000   0.0625000), wk =   0.0416667
        k(   22) = (  -0.5000000   0.1875000   0.1875000), wk =   0.0416667
        k(   23) = (  -0.5000000   0.1875000   0.3125000), wk =   0.0416667
        k(   24) = (  -0.5000000   0.1875000   0.4375000), wk =   0.0416667
        k(   25) = (  -0.5000000   0.3125000   0.0625000), wk =   0.0416667
        k(   26) = (  -0.5000000   0.3125000   0.1875000), wk =   0.0416667
        k(   27) = (  -0.5000000   0.3125000   0.3125000), wk =   0.0416667
        k(   28) = (  -0.5000000   0.3125000   0.4375000), wk =   0.0416667
        k(   29) = (  -0.5000000   0.4375000   0.0625000), wk =   0.0416667
        k(   30) = (  -0.5000000   0.4375000   0.1875000), wk =   0.0416667
        k(   31) = (  -0.5000000   0.4375000   0.3125000), wk =   0.0416667
        k(   32) = (  -0.5000000   0.4375000   0.4375000), wk =   0.0416667

     Dense  grid:   377833 G-vectors     FFT dimensions: ( 180,  64,  72)

     Smooth grid:    95627 G-vectors     FFT dimensions: ( 120,  40,  48)

     Dynamical RAM for                 wfc:       3.65 MB

     Dynamical RAM for     wfc (w. buffer):      43.75 MB

     Dynamical RAM for           str. fact:       5.77 MB

     Dynamical RAM for           local pot:       0.00 MB

     Dynamical RAM for          nlocal pot:      13.12 MB

     Dynamical RAM for                qrad:       3.93 MB

     Dynamical RAM for          rho,v,vnew:      18.14 MB

     Dynamical RAM for               rhoin:       6.05 MB

     Dynamical RAM for            rho*nmix:      46.12 MB

     Dynamical RAM for           G-vectors:      11.17 MB

     Dynamical RAM for          h,s,v(r/c):       0.29 MB

     Dynamical RAM for          <psi|beta>:       0.09 MB

     Dynamical RAM for                 psi:       7.29 MB

     Dynamical RAM for                hpsi:       7.29 MB

     Dynamical RAM for                spsi:       7.29 MB

     Dynamical RAM for      wfcinit/wfcrot:       9.54 MB

     Dynamical RAM for           addusdens:     184.49 MB

     Dynamical RAM for          addusforce:     189.79 MB

     Estimated static dynamical RAM per process >     126.40 MB

     Estimated max dynamical RAM per process >     362.31 MB

     Estimated total dynamical RAM >       1.94 GB

     Initial potential from superposition of free atoms

     starting charge      75.9995, renormalised to      80.0000
     Starting wfcs are   52 randomized atomic wfcs

     total cpu time spent up to now is        4.1 secs

     Self-consistent Calculation

     iteration #  1     ecut=    60.00 Ry     beta= 0.70
     Davidson diagonalization with overlap

---- Real-time Memory Report at c_bands before calling an iterative solver
           401 MiB given to the printing process from OS
             0 MiB allocation reported by mallinfo(arena+hblkhd)
          4196 MiB available memory on the node where the printing process lives
------------------
     ethr =  1.00E-02,  avg # of iterations =  2.0

     total cpu time spent up to now is       12.0 secs

     total energy              =    -826.61768873 Ry
     estimated scf accuracy    <       2.71456518 Ry

     iteration #  2     ecut=    60.00 Ry     beta= 0.70
     Davidson diagonalization with overlap

---- Real-time Memory Report at c_bands before calling an iterative solver
           501 MiB given to the printing process from OS
             0 MiB allocation reported by mallinfo(arena+hblkhd)
          3918 MiB available memory on the node where the printing process lives
------------------
     ethr =  3.39E-03,  avg # of iterations =  3.0

     total cpu time spent up to now is       21.0 secs

     total energy              =    -827.52136504 Ry
     estimated scf accuracy    <       1.05780963 Ry

     iteration #  3     ecut=    60.00 Ry     beta= 0.70
     Davidson diagonalization with overlap

---- Real-time Memory Report at c_bands before calling an iterative solver
           543 MiB given to the printing process from OS
             0 MiB allocation reported by mallinfo(arena+hblkhd)
          3739 MiB available memory on the node where the printing process lives
------------------
     ethr =  1.32E-03,  avg # of iterations =  2.7

     total cpu time spent up to now is       28.9 secs

     total energy              =    -827.73815817 Ry
     estimated scf accuracy    <       0.01221960 Ry

     iteration #  4     ecut=    60.00 Ry     beta= 0.70
     Davidson diagonalization with overlap

---- Real-time Memory Report at c_bands before calling an iterative solver
           547 MiB given to the printing process from OS
             0 MiB allocation reported by mallinfo(arena+hblkhd)
          3739 MiB available memory on the node where the printing process lives
------------------
     ethr =  1.53E-05,  avg # of iterations =  4.9

     total cpu time spent up to now is       39.3 secs

     total energy              =    -827.74571770 Ry
     estimated scf accuracy    <       0.00584504 Ry

     iteration #  5     ecut=    60.00 Ry     beta= 0.70
     Davidson diagonalization with overlap

---- Real-time Memory Report at c_bands before calling an iterative solver
           552 MiB given to the printing process from OS
             0 MiB allocation reported by mallinfo(arena+hblkhd)
          3720 MiB available memory on the node where the printing process lives
------------------
     ethr =  7.31E-06,  avg # of iterations =  2.7

     total cpu time spent up to now is       46.8 secs

     total energy              =    -827.74704373 Ry
     estimated scf accuracy    <       0.00050496 Ry

     iteration #  6     ecut=    60.00 Ry     beta= 0.70
     Davidson diagonalization with overlap

---- Real-time Memory Report at c_bands before calling an iterative solver
           555 MiB given to the printing process from OS
             0 MiB allocation reported by mallinfo(arena+hblkhd)
          3716 MiB available memory on the node where the printing process lives
------------------
     ethr =  6.31E-07,  avg # of iterations =  4.4

     total cpu time spent up to now is       55.9 secs

     total energy              =    -827.74701831 Ry
     estimated scf accuracy    <       0.00098316 Ry

     iteration #  7     ecut=    60.00 Ry     beta= 0.70
     Davidson diagonalization with overlap

---- Real-time Memory Report at c_bands before calling an iterative solver
           558 MiB given to the printing process from OS
             0 MiB allocation reported by mallinfo(arena+hblkhd)
          3711 MiB available memory on the node where the printing process lives
------------------
     ethr =  6.31E-07,  avg # of iterations =  3.0

     total cpu time spent up to now is       64.0 secs

     total energy              =    -827.74715790 Ry
     estimated scf accuracy    <       0.00002066 Ry

     iteration #  8     ecut=    60.00 Ry     beta= 0.70
     Davidson diagonalization with overlap

---- Real-time Memory Report at c_bands before calling an iterative solver
           560 MiB given to the printing process from OS
             0 MiB allocation reported by mallinfo(arena+hblkhd)
          3804 MiB available memory on the node where the printing process lives
------------------
     ethr =  2.58E-08,  avg # of iterations =  5.0

     total cpu time spent up to now is       73.7 secs

     total energy              =    -827.74717346 Ry
     estimated scf accuracy    <       0.00001525 Ry

     iteration #  9     ecut=    60.00 Ry     beta= 0.70
     Davidson diagonalization with overlap

---- Real-time Memory Report at c_bands before calling an iterative solver
           563 MiB given to the printing process from OS
             0 MiB allocation reported by mallinfo(arena+hblkhd)
          3698 MiB available memory on the node where the printing process lives
------------------
     ethr =  1.91E-08,  avg # of iterations =  2.0

     total cpu time spent up to now is       81.4 secs

     total energy              =    -827.74717540 Ry
     estimated scf accuracy    <       0.00000081 Ry

     iteration # 10     ecut=    60.00 Ry     beta= 0.70
     Davidson diagonalization with overlap

---- Real-time Memory Report at c_bands before calling an iterative solver
           566 MiB given to the printing process from OS
             0 MiB allocation reported by mallinfo(arena+hblkhd)
          3696 MiB available memory on the node where the printing process lives
------------------
     ethr =  1.01E-09,  avg # of iterations =  5.8

     total cpu time spent up to now is       94.4 secs

     total energy              =    -827.74717621 Ry
     estimated scf accuracy    <       0.00000009 Ry

     iteration # 11     ecut=    60.00 Ry     beta= 0.70
     Davidson diagonalization with overlap

---- Real-time Memory Report at c_bands before calling an iterative solver
           567 MiB given to the printing process from OS
             0 MiB allocation reported by mallinfo(arena+hblkhd)
          3692 MiB available memory on the node where the printing process lives
------------------
     ethr =  1.19E-10,  avg # of iterations =  2.9

     total cpu time spent up to now is      103.0 secs

     total energy              =    -827.74717621 Ry
     estimated scf accuracy    <       0.00000004 Ry

     iteration # 12     ecut=    60.00 Ry     beta= 0.70
     Davidson diagonalization with overlap

---- Real-time Memory Report at c_bands before calling an iterative solver
           567 MiB given to the printing process from OS
             0 MiB allocation reported by mallinfo(arena+hblkhd)
          3687 MiB available memory on the node where the printing process lives
------------------
     ethr =  5.12E-11,  avg # of iterations =  3.1

     total cpu time spent up to now is      111.0 secs

     End of self-consistent calculation

          k = 0.1667 0.1778 0.1629 ( 11967 PWs)   bands (ev):

   -14.1166 -14.1085 -14.1047 -14.1011 -14.0983 -14.0969 -14.0962 -14.0952
   -14.0853 -14.0822 -14.0808 -14.0789 -14.0744 -14.0718 -14.0565 -14.0523
   -14.0500 -14.0466 -14.0414 -14.0373  -6.1654  -5.9171  -5.3022  -4.9724
     0.2006   0.9644   1.6805   2.0950   2.8182   3.9976   4.1580   4.4018
     4.6289   4.6676   5.1864   5.4627   5.6791   5.9812   6.5336   6.8186

     occupation numbers 
     1.0000   1.0000   1.0000   1.0000   1.0000   1.0000   1.0000   1.0000
     1.0000   1.0000   1.0000   1.0000   1.0000   1.0000   1.0000   1.0000
     1.0000   1.0000   1.0000   1.0000   1.0000   1.0000   1.0000   1.0000
     1.0000   1.0000   1.0000   1.0000   1.0000   1.0000   1.0000   1.0000
     1.0000   1.0000   1.0000   1.0000   1.0000   1.0000   1.0000   1.0000

          k = 0.1667 0.1778 0.4886 ( 11962 PWs)   bands (ev):

   -14.1155 -14.1083 -14.1048 -14.1014 -14.0992 -14.0979 -14.0962 -14.0953
   -14.0840 -14.0819 -14.0812 -14.0771 -14.0739 -14.0704 -14.0567 -14.0527
   -14.0500 -14.0469 -14.0412 -14.0377  -6.0552  -5.8164  -5.2912  -4.9926
    -0.1232   0.6739   1.2010   1.7391   2.9012   4.0584   4.2672   4.7166
     4.9536   5.1934   5.2033   5.5680   6.0070   6.3115   6.5005   6.7897

     occupation numbers 
     1.0000   1.0000   1.0000   1.0000   1.0000   1.0000   1.0000   1.0000
     1.0000   1.0000   1.0000   1.0000   1.0000   1.0000   1.0000   1.0000
     1.0000   1.0000   1.0000   1.0000   1.0000   1.0000   1.0000   1.0000
     1.0000   1.0000   1.0000   1.0000   1.0000   1.0000   1.0000   1.0000
     1.0000   1.0000   1.0000   1.0000   1.0000   1.0000   1.0000   1.0000

          k = 0.1667 0.1778 0.8143 ( 11944 PWs)   bands (ev):

   -14.1136 -14.1082 -14.1048 -14.1023 -14.0999 -14.0994 -14.0962 -14.0957
   -14.0834 -14.0820 -14.0799 -14.0755 -14.0720 -14.0688 -14.0567 -14.0537
   -14.0494 -14.0474 -14.0407 -14.0384  -5.8591  -5.6386  -5.3074  -5.0579
    -0.4547   0.1623   0.7713   1.2440   3.1978   4.2903   4.4974   5.0339
     5.1415   5.3468   5.5570   5.7414   6.1658   6.6187   6.6574   7.0366

     occupation numbers 
     1.0000   1.0000   1.0000   1.0000   1.0000   1.0000   1.0000   1.0000
     1.0000   1.0000   1.0000   1.0000   1.0000   1.0000   1.0000   1.0000
     1.0000   1.0000   1.0000   1.0000   1.0000   1.0000   1.0000   1.0000
     1.0000   1.0000   1.0000   1.0000   1.0000   1.0000   1.0000   1.0000
     1.0000   1.0000   1.0000   1.0000   1.0000   1.0000   1.0000   1.0000

          k = 0.1667 0.1778 1.1400 ( 11939 PWs)   bands (ev):

   -14.1113 -14.1093 -14.1044 -14.1034 -14.1005 -14.1004 -14.0962 -14.0960
   -14.0832 -14.0827 -14.0772 -14.0756 -14.0694 -14.0682 -14.0561 -14.0550
   -14.0487 -14.0480 -14.0400 -14.0392  -5.6304  -5.4788  -5.3507  -5.1924
    -0.5489  -0.3204   0.6482   0.8290   3.6703   4.1864   4.8528   5.0782
     5.2747   5.3732   5.5644   5.8843   6.4517   6.7950   6.9387   7.0256

     occupation numbers 
     1.0000   1.0000   1.0000   1.0000   1.0000   1.0000   1.0000   1.0000
     1.0000   1.0000   1.0000   1.0000   1.0000   1.0000   1.0000   1.0000
     1.0000   1.0000   1.0000   1.0000   1.0000   1.0000   1.0000   1.0000
     1.0000   1.0000   1.0000   1.0000   1.0000   1.0000   1.0000   1.0000
     1.0000   1.0000   1.0000   1.0000   1.0000   1.0000   1.0000   1.0000

          k = 0.1667 0.5335 0.1629 ( 11973 PWs)   bands (ev):

   -14.1112 -14.1060 -14.1013 -14.1010 -14.0982 -14.0979 -14.0975 -14.0971
   -14.0863 -14.0849 -14.0844 -14.0774 -14.0735 -14.0690 -14.0538 -14.0527
   -14.0498 -14.0492 -14.0409 -14.0379  -6.0102  -5.7819  -5.2297  -4.9509
     0.0362   0.6918   1.3678   1.4956   2.9319   3.8935   4.1702   4.4372
     4.7586   4.9809   5.1915   5.4924   5.7895   6.3561   6.5939   6.7082

     occupation numbers 
     1.0000   1.0000   1.0000   1.0000   1.0000   1.0000   1.0000   1.0000
     1.0000   1.0000   1.0000   1.0000   1.0000   1.0000   1.0000   1.0000
     1.0000   1.0000   1.0000   1.0000   1.0000   1.0000   1.0000   1.0000
     1.0000   1.0000   1.0000   1.0000   1.0000   1.0000   1.0000   1.0000
     1.0000   1.0000   1.0000   1.0000   1.0000   1.0000   1.0000   1.0000

          k = 0.1667 0.5335 0.4886 ( 11958 PWs)   bands (ev):

   -14.1108 -14.1059 -14.1028 -14.1015 -14.0986 -14.0985 -14.0972 -14.0969
   -14.0870 -14.0850 -14.0822 -14.0766 -14.0722 -14.0679 -14.0541 -14.0522
   -14.0502 -14.0497 -14.0408 -14.0382  -5.9057  -5.6873  -5.2171  -4.9635
    -0.1278   0.6028   1.0481   1.3981   3.0625   3.4959   3.7509   4.4500
     4.6571   5.1923   5.5280   5.6165   6.2558   6.3685   6.6139   6.7853

     occupation numbers 
     1.0000   1.0000   1.0000   1.0000   1.0000   1.0000   1.0000   1.0000
     1.0000   1.0000   1.0000   1.0000   1.0000   1.0000   1.0000   1.0000
     1.0000   1.0000   1.0000   1.0000   1.0000   1.0000   1.0000   1.0000
     1.0000   1.0000   1.0000   1.0000   1.0000   1.0000   1.0000   1.0000
     1.0000   1.0000   1.0000   1.0000   1.0000   1.0000   1.0000   1.0000

          k = 0.1667 0.5335 0.8143 ( 11938 PWs)   bands (ev):

   -14.1102 -14.1057 -14.1051 -14.1024 -14.0993 -14.0992 -14.0973 -14.0969
   -14.0869 -14.0855 -14.0796 -14.0759 -14.0696 -14.0665 -14.0541 -14.0516
   -14.0511 -14.0499 -14.0404 -14.0387  -5.7218  -5.5222  -5.2272  -5.0130
    -0.3213   0.2645   0.8008   1.1616   3.3200   3.4467   3.6992   4.3986
     4.4873   5.2637   5.3460   5.9091   6.1129   6.3373   6.5261   6.7604

     occupation numbers 
     1.0000   1.0000   1.0000   1.0000   1.0000   1.0000   1.0000   1.0000
     1.0000   1.0000   1.0000   1.0000   1.0000   1.0000   1.0000   1.0000
     1.0000   1.0000   1.0000   1.0000   1.0000   1.0000   1.0000   1.0000
     1.0000   1.0000   1.0000   1.0000   1.0000   1.0000   1.0000   1.0000
     1.0000   1.0000   1.0000   1.0000   1.0000   1.0000   1.0000   1.0000

          k = 0.1667 0.5335 1.1400 ( 11917 PWs)   bands (ev):

   -14.1092 -14.1076 -14.1048 -14.1037 -14.0998 -14.0997 -14.0975 -14.0972
   -14.0864 -14.0860 -14.0774 -14.0761 -14.0671 -14.0660 -14.0535 -14.0526
   -14.0506 -14.0501 -14.0399 -14.0393  -5.5114  -5.3757  -5.2626  -5.1245
    -0.3597  -0.1450   0.7600   0.9006   3.6335   3.6874   3.9302   4.1834
     4.4393   4.7877   5.4041   5.6906   6.0071   6.2380   6.4698   6.6445

     occupation numbers 
     1.0000   1.0000   1.0000   1.0000   1.0000   1.0000   1.0000   1.0000
     1.0000   1.0000   1.0000   1.0000   1.0000   1.0000   1.0000   1.0000
     1.0000   1.0000   1.0000   1.0000   1.0000   1.0000   1.0000   1.0000
     1.0000   1.0000   1.0000   1.0000   1.0000   1.0000   1.0000   1.0000
     1.0000   1.0000   1.0000   1.0000   1.0000   1.0000   1.0000   1.0000

          k = 0.1667 0.8892 0.1629 ( 11949 PWs)   bands (ev):

   -14.1071 -14.1049 -14.1028 -14.1023 -14.0999 -14.0949 -14.0944 -14.0942
   -14.0886 -14.0879 -14.0855 -14.0784 -14.0703 -14.0658 -14.0560 -14.0557
   -14.0491 -14.0459 -14.0400 -14.0387  -5.7307  -5.5494  -5.1443  -4.9700
    -0.1946   0.3263   0.6699   0.8911   3.2653   4.0153   4.3655   4.6445
     5.0537   5.1095   5.3545   5.5339   5.9422   6.3767   6.4649   6.7806

     occupation numbers 
     1.0000   1.0000   1.0000   1.0000   1.0000   1.0000   1.0000   1.0000
     1.0000   1.0000   1.0000   1.0000   1.0000   1.0000   1.0000   1.0000
     1.0000   1.0000   1.0000   1.0000   1.0000   1.0000   1.0000   1.0000
     1.0000   1.0000   1.0000   1.0000   1.0000   1.0000   1.0000   1.0000
     1.0000   1.0000   1.0000   1.0000   1.0000   1.0000   1.0000   1.0000

          k = 0.1667 0.8892 0.4886 ( 11956 PWs)   bands (ev):

   -14.1093 -14.1063 -14.1039 -14.1028 -14.1004 -14.0954 -14.0941 -14.0935
   -14.0886 -14.0879 -14.0835 -14.0781 -14.0688 -14.0650 -14.0555 -14.0551
   -14.0492 -14.0465 -14.0399 -14.0388  -5.6398  -5.4684  -5.1256  -4.9646
    -0.1587   0.4174   0.6871   0.8598   3.2671   3.3860   3.6939   4.2101
     4.6271   5.2128   5.3574   5.7405   5.8625   6.0927   6.3714   6.5739

     occupation numbers 
     1.0000   1.0000   1.0000   1.0000   1.0000   1.0000   1.0000   1.0000
     1.0000   1.0000   1.0000   1.0000   1.0000   1.0000   1.0000   1.0000
     1.0000   1.0000   1.0000   1.0000   1.0000   1.0000   1.0000   1.0000
     1.0000   1.0000   1.0000   1.0000   1.0000   1.0000   1.0000   1.0000
     1.0000   1.0000   1.0000   1.0000   1.0000   1.0000   1.0000   1.0000

          k = 0.1667 0.8892 0.8143 ( 11937 PWs)   bands (ev):

   -14.1115 -14.1091 -14.1054 -14.1045 -14.0999 -14.0963 -14.0938 -14.0933
   -14.0880 -14.0877 -14.0812 -14.0778 -14.0663 -14.0639 -14.0546 -14.0543
   -14.0492 -14.0474 -14.0397 -14.0389  -5.4841  -5.3315  -5.1185  -4.9778
    -0.1087   0.3817   0.7314   0.8926   2.8734   3.1850   3.6302   3.8378
     4.0778   4.7590   5.0576   5.3697   5.6591   5.8300   6.0160   6.5004

     occupation numbers 
     1.0000   1.0000   1.0000   1.0000   1.0000   1.0000   1.0000   1.0000
     1.0000   1.0000   1.0000   1.0000   1.0000   1.0000   1.0000   1.0000
     1.0000   1.0000   1.0000   1.0000   1.0000   1.0000   1.0000   1.0000
     1.0000   1.0000   1.0000   1.0000   1.0000   1.0000   1.0000   1.0000
     1.0000   1.0000   1.0000   1.0000   1.0000   1.0000   1.0000   1.0000

          k = 0.1667 0.8892 1.1400 ( 11942 PWs)   bands (ev):

   -14.1124 -14.1115 -14.1064 -14.1060 -14.0988 -14.0975 -14.0937 -14.0935
   -14.0874 -14.0874 -14.0793 -14.0781 -14.0642 -14.0633 -14.0538 -14.0537
   -14.0489 -14.0483 -14.0394 -14.0392  -5.3149  -5.2145  -5.1338  -5.0390
    -0.0234   0.1545   0.8556   0.9120   2.8832   3.2124   3.2554   3.6258
     4.0331   4.4495   4.7077   5.1114   5.2783   5.5123   6.0713   6.2261

     occupation numbers 
     1.0000   1.0000   1.0000   1.0000   1.0000   1.0000   1.0000   1.0000
     1.0000   1.0000   1.0000   1.0000   1.0000   1.0000   1.0000   1.0000
     1.0000   1.0000   1.0000   1.0000   1.0000   1.0000   1.0000   1.0000
     1.0000   1.0000   1.0000   1.0000   1.0000   1.0000   1.0000   1.0000
     1.0000   1.0000   1.0000   1.0000   1.0000   1.0000   1.0000   1.0000

          k = 0.1667 1.2449 0.1629 ( 11939 PWs)   bands (ev):

   -14.1081 -14.1065 -14.1057 -14.1045 -14.0958 -14.0936 -14.0915 -14.0907
   -14.0893 -14.0872 -14.0857 -14.0817 -14.0662 -14.0630 -14.0612 -14.0595
   -14.0442 -14.0422 -14.0404 -14.0400  -5.3966  -5.3013  -5.1477  -5.1140
    -0.2596   0.0324   0.1861   0.4076   3.7877   4.2437   4.5861   4.8618
     5.0352   5.1090   5.4765   5.7056   6.0739   6.2239   6.3062   6.4527

     occupation numbers 
     1.0000   1.0000   1.0000   1.0000   1.0000   1.0000   1.0000   1.0000
     1.0000   1.0000   1.0000   1.0000   1.0000   1.0000   1.0000   1.0000
     1.0000   1.0000   1.0000   1.0000   1.0000   1.0000   1.0000   1.0000
     1.0000   1.0000   1.0000   1.0000   1.0000   1.0000   1.0000   1.0000
     1.0000   1.0000   1.0000   1.0000   1.0000   1.0000   1.0000   1.0000

          k = 0.1667 1.2449 0.4886 ( 11951 PWs)   bands (ev):

   -14.1103 -14.1087 -14.1074 -14.1063 -14.0959 -14.0937 -14.0909 -14.0906
   -14.0885 -14.0872 -14.0842 -14.0812 -14.0651 -14.0629 -14.0595 -14.0586
   -14.0444 -14.0428 -14.0402 -14.0399  -5.3296  -5.2423  -5.1131  -5.0791
    -0.1151   0.1704   0.3204   0.4764   3.5401   3.7430   3.9836   4.2751
     4.3757   4.8591   5.2361   5.4134   5.5313   5.8194   6.1727   6.4680

     occupation numbers 
     1.0000   1.0000   1.0000   1.0000   1.0000   1.0000   1.0000   1.0000
     1.0000   1.0000   1.0000   1.0000   1.0000   1.0000   1.0000   1.0000
     1.0000   1.0000   1.0000   1.0000   1.0000   1.0000   1.0000   1.0000
     1.0000   1.0000   1.0000   1.0000   1.0000   1.0000   1.0000   1.0000
     1.0000   1.0000   1.0000   1.0000   1.0000   1.0000   1.0000   1.0000

          k = 0.1667 1.2449 0.8143 ( 11953 PWs)   bands (ev):

   -14.1131 -14.1119 -14.1096 -14.1089 -14.0958 -14.0942 -14.0906 -14.0905
   -14.0875 -14.0868 -14.0827 -14.0807 -14.0634 -14.0623 -14.0574 -14.0570
   -14.0445 -14.0435 -14.0401 -14.0399  -5.2224  -5.1499  -5.0705  -5.0347
     0.1283   0.3812   0.5369   0.5913   2.8919   3.3203   3.4129   3.8085
     3.9027   4.3196   4.5526   5.0198   5.1028   5.3874   6.0255   6.1804

     occupation numbers 
     1.0000   1.0000   1.0000   1.0000   1.0000   1.0000   1.0000   1.0000
     1.0000   1.0000   1.0000   1.0000   1.0000   1.0000   1.0000   1.0000
     1.0000   1.0000   1.0000   1.0000   1.0000   1.0000   1.0000   1.0000
     1.0000   1.0000   1.0000   1.0000   1.0000   1.0000   1.0000   1.0000
     1.0000   1.0000   1.0000   1.0000   1.0000   1.0000   1.0000   1.0000

          k = 0.1667 1.2449 1.1400 ( 11941 PWs)   bands (ev):

   -14.1148 -14.1144 -14.1111 -14.1108 -14.0955 -14.0949 -14.0906 -14.0905
   -14.0867 -14.0864 -14.0815 -14.0808 -14.0620 -14.0617 -14.0560 -14.0559
   -14.0445 -14.0441 -14.0400 -14.0399  -5.1212  -5.0784  -5.0485  -5.0188
     0.3614   0.4661   0.7229   0.7478   2.6298   2.8288   3.1773   3.3746
     3.6657   3.7835   4.2325   4.5377   5.0890   5.2859   5.9344   5.9734

     occupation numbers 
     1.0000   1.0000   1.0000   1.0000   1.0000   1.0000   1.0000   1.0000
     1.0000   1.0000   1.0000   1.0000   1.0000   1.0000   1.0000   1.0000
     1.0000   1.0000   1.0000   1.0000   1.0000   1.0000   1.0000   1.0000
     1.0000   1.0000   1.0000   1.0000   1.0000   1.0000   1.0000   1.0000
     1.0000   1.0000   1.0000   1.0000   1.0000   1.0000   1.0000   1.0000

          k =-0.5000 0.1778 0.1629 ( 11966 PWs)   bands (ev):

   -14.1133 -14.1133 -14.1025 -14.1025 -14.0977 -14.0977 -14.0955 -14.0955
   -14.0823 -14.0823 -14.0815 -14.0815 -14.0729 -14.0729 -14.0547 -14.0547
   -14.0479 -14.0479 -14.0393 -14.0393  -6.0629  -6.0629  -5.1157  -5.1157
     0.4694   0.4694   1.9935   1.9935   3.4021   3.4021   4.3114   4.3114
     4.7049   4.7049   5.2622   5.2622   5.5988   5.5988   6.7182   6.7182

     occupation numbers 
     1.0000   1.0000   1.0000   1.0000   1.0000   1.0000   1.0000   1.0000
     1.0000   1.0000   1.0000   1.0000   1.0000   1.0000   1.0000   1.0000
     1.0000   1.0000   1.0000   1.0000   1.0000   1.0000   1.0000   1.0000
     1.0000   1.0000   1.0000   1.0000   1.0000   1.0000   1.0000   1.0000
     1.0000   1.0000   1.0000   1.0000   1.0000   1.0000   1.0000   1.0000

          k =-0.5000 0.1778 0.4886 ( 11946 PWs)   bands (ev):

   -14.1125 -14.1125 -14.1026 -14.1026 -14.0986 -14.0986 -14.0957 -14.0957
   -14.0820 -14.0820 -14.0804 -14.0804 -14.0718 -14.0718 -14.0549 -14.0549
   -14.0482 -14.0482 -14.0394 -14.0394  -5.9575  -5.9575  -5.1202  -5.1202
     0.1634   0.1634   1.5463   1.5463   3.5878   3.5878   4.3621   4.3621
     5.0392   5.0392   5.4172   5.4172   6.0791   6.0791   6.6004   6.6004

     occupation numbers 
     1.0000   1.0000   1.0000   1.0000   1.0000   1.0000   1.0000   1.0000
     1.0000   1.0000   1.0000   1.0000   1.0000   1.0000   1.0000   1.0000
     1.0000   1.0000   1.0000   1.0000   1.0000   1.0000   1.0000   1.0000
     1.0000   1.0000   1.0000   1.0000   1.0000   1.0000   1.0000   1.0000
     1.0000   1.0000   1.0000   1.0000   1.0000   1.0000   1.0000   1.0000

          k =-0.5000 0.1778 0.8143 ( 11938 PWs)   bands (ev):

   -14.1113 -14.1113 -14.1032 -14.1032 -14.0996 -14.0996 -14.0961 -14.0961
   -14.0824 -14.0824 -14.0782 -14.0782 -14.0701 -14.0701 -14.0552 -14.0552
   -14.0484 -14.0484 -14.0395 -14.0395  -5.7721  -5.7721  -5.1595  -5.1595
    -0.1981  -0.1981   1.0139   1.0139   3.8977   3.8977   4.6376   4.6376
     5.1782   5.1782   5.6627   5.6627   6.2942   6.2942   6.8136   6.8136

     occupation numbers 
     1.0000   1.0000   1.0000   1.0000   1.0000   1.0000   1.0000   1.0000
     1.0000   1.0000   1.0000   1.0000   1.0000   1.0000   1.0000   1.0000
     1.0000   1.0000   1.0000   1.0000   1.0000   1.0000   1.0000   1.0000
     1.0000   1.0000   1.0000   1.0000   1.0000   1.0000   1.0000   1.0000
     1.0000   1.0000   1.0000   1.0000   1.0000   1.0000   1.0000   1.0000

          k =-0.5000 0.1778 1.1400 ( 11942 PWs)   bands (ev):

   -14.1102 -14.1102 -14.1040 -14.1040 -14.1001 -14.1001 -14.0965 -14.0965
   -14.0827 -14.0827 -14.0765 -14.0765 -14.0689 -14.0689 -14.0554 -14.0554
   -14.0485 -14.0485 -14.0396 -14.0396  -5.5736  -5.5736  -5.2529  -5.2529
    -0.4107  -0.4107   0.6677   0.6677   4.3080   4.3080   4.9371   4.9371
     5.0110   5.0110   5.5049   5.5049   6.6991   6.6991   6.9693   6.9693

     occupation numbers 
     1.0000   1.0000   1.0000   1.0000   1.0000   1.0000   1.0000   1.0000
     1.0000   1.0000   1.0000   1.0000   1.0000   1.0000   1.0000   1.0000
     1.0000   1.0000   1.0000   1.0000   1.0000   1.0000   1.0000   1.0000
     1.0000   1.0000   1.0000   1.0000   1.0000   1.0000   1.0000   1.0000
     1.0000   1.0000   1.0000   1.0000   1.0000   1.0000   1.0000   1.0000

          k =-0.5000 0.5335 0.1629 ( 11974 PWs)   bands (ev):

   -14.1087 -14.1087 -14.1010 -14.1010 -14.0983 -14.0983 -14.0972 -14.0972
   -14.0852 -14.0852 -14.0817 -14.0817 -14.0706 -14.0706 -14.0530 -14.0530
   -14.0498 -14.0498 -14.0394 -14.0394  -5.9155  -5.9155  -5.0706  -5.0706
     0.2836   0.2836   1.4877   1.4877   3.5308   3.5308   4.1772   4.1772
     5.0171   5.0171   5.1856   5.1856   5.8617   5.8617   6.7463   6.7463

     occupation numbers 
     1.0000   1.0000   1.0000   1.0000   1.0000   1.0000   1.0000   1.0000
     1.0000   1.0000   1.0000   1.0000   1.0000   1.0000   1.0000   1.0000
     1.0000   1.0000   1.0000   1.0000   1.0000   1.0000   1.0000   1.0000
     1.0000   1.0000   1.0000   1.0000   1.0000   1.0000   1.0000   1.0000
     1.0000   1.0000   1.0000   1.0000   1.0000   1.0000   1.0000   1.0000

          k =-0.5000 0.5335 0.4886 ( 11938 PWs)   bands (ev):

   -14.1086 -14.1086 -14.1022 -14.1022 -14.0985 -14.0985 -14.0971 -14.0971
   -14.0854 -14.0854 -14.0804 -14.0804 -14.0695 -14.0695 -14.0529 -14.0529
   -14.0502 -14.0502 -14.0394 -14.0394  -5.8158  -5.8158  -5.0708  -5.0708
     0.1432   0.1432   1.2853   1.2853   3.4962   3.4962   3.9975   3.9975
     4.6582   4.6582   5.6838   5.6838   6.2613   6.2613   6.6989   6.6989

     occupation numbers 
     1.0000   1.0000   1.0000   1.0000   1.0000   1.0000   1.0000   1.0000
     1.0000   1.0000   1.0000   1.0000   1.0000   1.0000   1.0000   1.0000
     1.0000   1.0000   1.0000   1.0000   1.0000   1.0000   1.0000   1.0000
     1.0000   1.0000   1.0000   1.0000   1.0000   1.0000   1.0000   1.0000
     1.0000   1.0000   1.0000   1.0000   1.0000   1.0000   1.0000   1.0000

          k =-0.5000 0.5335 0.8143 ( 11940 PWs)   bands (ev):

   -14.1082 -14.1082 -14.1041 -14.1041 -14.0990 -14.0990 -14.0969 -14.0969
   -14.0855 -14.0855 -14.0786 -14.0786 -14.0677 -14.0677 -14.0528 -14.0528
   -14.0507 -14.0507 -14.0394 -14.0394  -5.6426  -5.6426  -5.0995  -5.0995
    -0.0756  -0.0756   0.9928   0.9928   3.4940   3.4940   4.1681   4.1681
     4.5271   4.5271   5.7155   5.7155   6.1252   6.1252   6.6629   6.6629

     occupation numbers 
     1.0000   1.0000   1.0000   1.0000   1.0000   1.0000   1.0000   1.0000
     1.0000   1.0000   1.0000   1.0000   1.0000   1.0000   1.0000   1.0000
     1.0000   1.0000   1.0000   1.0000   1.0000   1.0000   1.0000   1.0000
     1.0000   1.0000   1.0000   1.0000   1.0000   1.0000   1.0000   1.0000
     1.0000   1.0000   1.0000   1.0000   1.0000   1.0000   1.0000   1.0000

          k =-0.5000 0.5335 1.1400 ( 11922 PWs)   bands (ev):

   -14.1077 -14.1077 -14.1057 -14.1057 -14.0994 -14.0994 -14.0969 -14.0969
   -14.0857 -14.0857 -14.0774 -14.0774 -14.0663 -14.0663 -14.0528 -14.0528
   -14.0509 -14.0509 -14.0393 -14.0393  -5.4604  -5.4604  -5.1770  -5.1770
    -0.2317  -0.2317   0.7733   0.7733   3.7304   3.7304   4.1071   4.1071
     4.7839   4.7839   5.2929   5.2929   5.9724   5.9724   6.4773   6.4773

     occupation numbers 
     1.0000   1.0000   1.0000   1.0000   1.0000   1.0000   1.0000   1.0000
     1.0000   1.0000   1.0000   1.0000   1.0000   1.0000   1.0000   1.0000
     1.0000   1.0000   1.0000   1.0000   1.0000   1.0000   1.0000   1.0000
     1.0000   1.0000   1.0000   1.0000   1.0000   1.0000   1.0000   1.0000
     1.0000   1.0000   1.0000   1.0000   1.0000   1.0000   1.0000   1.0000

          k =-0.5000 0.8892 0.1629 ( 11934 PWs)   bands (ev):

   -14.1065 -14.1065 -14.1019 -14.1019 -14.0978 -14.0978 -14.0946 -14.0946
   -14.0879 -14.0879 -14.0821 -14.0821 -14.0676 -14.0676 -14.0559 -14.0559
   -14.0474 -14.0474 -14.0393 -14.0393  -5.6543  -5.6543  -5.0424  -5.0424
     0.0225   0.0225   0.7923   0.7923   3.8209   3.8209   4.3525   4.3525
     5.1850   5.1850   5.3724   5.3724   5.9092   5.9092   6.6402   6.6402

     occupation numbers 
     1.0000   1.0000   1.0000   1.0000   1.0000   1.0000   1.0000   1.0000
     1.0000   1.0000   1.0000   1.0000   1.0000   1.0000   1.0000   1.0000
     1.0000   1.0000   1.0000   1.0000   1.0000   1.0000   1.0000   1.0000
     1.0000   1.0000   1.0000   1.0000   1.0000   1.0000   1.0000   1.0000
     1.0000   1.0000   1.0000   1.0000   1.0000   1.0000   1.0000   1.0000

          k =-0.5000 0.8892 0.4886 ( 11938 PWs)   bands (ev):

   -14.1080 -14.1080 -14.1033 -14.1033 -14.0980 -14.0980 -14.0940 -14.0940
   -14.0875 -14.0875 -14.0814 -14.0814 -14.0664 -14.0664 -14.0555 -14.0555
   -14.0477 -14.0477 -14.0393 -14.0393  -5.5682  -5.5682  -5.0308  -5.0308
     0.0745   0.0745   0.8001   0.8001   3.3973   3.3973   4.1227   4.1227
     4.5928   4.5928   5.6259   5.6259   5.8209   5.8209   6.5355   6.5355

     occupation numbers 
     1.0000   1.0000   1.0000   1.0000   1.0000   1.0000   1.0000   1.0000
     1.0000   1.0000   1.0000   1.0000   1.0000   1.0000   1.0000   1.0000
     1.0000   1.0000   1.0000   1.0000   1.0000   1.0000   1.0000   1.0000
     1.0000   1.0000   1.0000   1.0000   1.0000   1.0000   1.0000   1.0000
     1.0000   1.0000   1.0000   1.0000   1.0000   1.0000   1.0000   1.0000

          k =-0.5000 0.8892 0.8143 ( 11946 PWs)   bands (ev):

   -14.1101 -14.1101 -14.1054 -14.1054 -14.0983 -14.0983 -14.0934 -14.0934
   -14.0870 -14.0870 -14.0804 -14.0804 -14.0645 -14.0645 -14.0549 -14.0549
   -14.0481 -14.0481 -14.0393 -14.0393  -5.4226  -5.4226  -5.0333  -5.0333
     0.1039   0.1039   0.8214   0.8214   3.0401   3.0401   3.7962   3.7962
     4.4470   4.4470   5.0959   5.0959   5.6021   5.6021   6.3352   6.3352

     occupation numbers 
     1.0000   1.0000   1.0000   1.0000   1.0000   1.0000   1.0000   1.0000
     1.0000   1.0000   1.0000   1.0000   1.0000   1.0000   1.0000   1.0000
     1.0000   1.0000   1.0000   1.0000   1.0000   1.0000   1.0000   1.0000
     1.0000   1.0000   1.0000   1.0000   1.0000   1.0000   1.0000   1.0000
     1.0000   1.0000   1.0000   1.0000   1.0000   1.0000   1.0000   1.0000

          k =-0.5000 0.8892 1.1400 ( 11930 PWs)   bands (ev):

   -14.1116 -14.1116 -14.1068 -14.1068 -14.0984 -14.0984 -14.0932 -14.0932
   -14.0867 -14.0867 -14.0797 -14.0797 -14.0631 -14.0631 -14.0544 -14.0544
   -14.0484 -14.0484 -14.0392 -14.0392  -5.2768  -5.2768  -5.0745  -5.0745
     0.0790   0.0790   0.8530   0.8530   3.0495   3.0495   3.3896   3.3896
     4.4355   4.4355   4.7577   4.7577   5.5025   5.5025   5.9801   5.9801

     occupation numbers 
     1.0000   1.0000   1.0000   1.0000   1.0000   1.0000   1.0000   1.0000
     1.0000   1.0000   1.0000   1.0000   1.0000   1.0000   1.0000   1.0000
     1.0000   1.0000   1.0000   1.0000   1.0000   1.0000   1.0000   1.0000
     1.0000   1.0000   1.0000   1.0000   1.0000   1.0000   1.0000   1.0000
     1.0000   1.0000   1.0000   1.0000   1.0000   1.0000   1.0000   1.0000

          k =-0.5000 1.2449 0.1629 ( 11944 PWs)   bands (ev):

   -14.1071 -14.1071 -14.1055 -14.1055 -14.0937 -14.0937 -14.0929 -14.0929
   -14.0871 -14.0871 -14.0841 -14.0841 -14.0643 -14.0643 -14.0605 -14.0605
   -14.0432 -14.0432 -14.0402 -14.0402  -5.3546  -5.3546  -5.1255  -5.1255
    -0.0597  -0.0597   0.2116   0.2116   4.2906   4.2906   4.6333   4.6333
     5.1156   5.1156   5.3343   5.3343   6.0250   6.0250   6.3438   6.3438

     occupation numbers 
     1.0000   1.0000   1.0000   1.0000   1.0000   1.0000   1.0000   1.0000
     1.0000   1.0000   1.0000   1.0000   1.0000   1.0000   1.0000   1.0000
     1.0000   1.0000   1.0000   1.0000   1.0000   1.0000   1.0000   1.0000
     1.0000   1.0000   1.0000   1.0000   1.0000   1.0000   1.0000   1.0000
     1.0000   1.0000   1.0000   1.0000   1.0000   1.0000   1.0000   1.0000

          k =-0.5000 1.2449 0.4886 ( 11952 PWs)   bands (ev):

   -14.1091 -14.1091 -14.1074 -14.1074 -14.0940 -14.0940 -14.0925 -14.0925
   -14.0862 -14.0862 -14.0836 -14.0836 -14.0632 -14.0632 -14.0597 -14.0597
   -14.0433 -14.0433 -14.0403 -14.0403  -5.2914  -5.2914  -5.0908  -5.0908
     0.0755   0.0755   0.3251   0.3251   3.6879   3.6879   4.1883   4.1883
     4.7037   4.7037   5.1437   5.1437   5.6902   5.6902   6.1187   6.1187

     occupation numbers 
     1.0000   1.0000   1.0000   1.0000   1.0000   1.0000   1.0000   1.0000
     1.0000   1.0000   1.0000   1.0000   1.0000   1.0000   1.0000   1.0000
     1.0000   1.0000   1.0000   1.0000   1.0000   1.0000   1.0000   1.0000
     1.0000   1.0000   1.0000   1.0000   1.0000   1.0000   1.0000   1.0000
     1.0000   1.0000   1.0000   1.0000   1.0000   1.0000   1.0000   1.0000

          k =-0.5000 1.2449 0.8143 ( 11950 PWs)   bands (ev):

   -14.1117 -14.1117 -14.1100 -14.1100 -14.0945 -14.0945 -14.0924 -14.0924
   -14.0851 -14.0851 -14.0828 -14.0828 -14.0615 -14.0615 -14.0584 -14.0584
   -14.0435 -14.0435 -14.0403 -14.0403  -5.1917  -5.1917  -5.0471  -5.0471
     0.2809   0.2809   0.5217   0.5217   3.1068   3.1068   3.6077   3.6077
     4.1528   4.1528   4.6028   4.6028   5.5444   5.5444   5.9108   5.9108

     occupation numbers 
     1.0000   1.0000   1.0000   1.0000   1.0000   1.0000   1.0000   1.0000
     1.0000   1.0000   1.0000   1.0000   1.0000   1.0000   1.0000   1.0000
     1.0000   1.0000   1.0000   1.0000   1.0000   1.0000   1.0000   1.0000
     1.0000   1.0000   1.0000   1.0000   1.0000   1.0000   1.0000   1.0000
     1.0000   1.0000   1.0000   1.0000   1.0000   1.0000   1.0000   1.0000

          k =-0.5000 1.2449 1.1400 ( 11964 PWs)   bands (ev):

   -14.1136 -14.1136 -14.1118 -14.1118 -14.0948 -14.0948 -14.0924 -14.0924
   -14.0845 -14.0845 -14.0821 -14.0821 -14.0602 -14.0602 -14.0575 -14.0575
   -14.0437 -14.0437 -14.0404 -14.0404  -5.1042  -5.1042  -5.0293  -5.0293
     0.4230   0.4230   0.7155   0.7155   2.8875   2.8875   3.1370   3.1370
     3.7702   3.7702   4.0884   4.0884   5.6392   5.6392   5.8200   5.8200

     occupation numbers 
     1.0000   1.0000   1.0000   1.0000   1.0000   1.0000   1.0000   1.0000
     1.0000   1.0000   1.0000   1.0000   1.0000   1.0000   1.0000   1.0000
     1.0000   1.0000   1.0000   1.0000   1.0000   1.0000   1.0000   1.0000
     1.0000   1.0000   1.0000   1.0000   1.0000   1.0000   1.0000   1.0000
     1.0000   1.0000   1.0000   1.0000   1.0000   1.0000   1.0000   1.0000

     highest occupied level (ev):     7.0366

!    total energy              =    -827.74717622 Ry
     estimated scf accuracy    <          2.6E-10 Ry

     The total energy is the sum of the following terms:
     one-electron contribution =    -272.43553925 Ry
     hartree contribution      =     184.40030327 Ry
     xc contribution           =    -308.87566276 Ry
     ewald contribution        =    -430.71857504 Ry
     DFT-D3 Dispersion         =      -0.11770244 Ry

     convergence has been achieved in  12 iterations

     Forces acting on atoms (cartesian axes, Ry/au):

     atom    1 type  2   force =    -0.00686494    0.00000000   -0.00055971
     atom    2 type  1   force =     0.00738113   -0.00000000    0.00104288
     atom    3 type  2   force =     0.00686494   -0.00000000   -0.00055971
     atom    4 type  1   force =    -0.00738113    0.00000000    0.00104288
     atom    5 type  2   force =    -0.00686494    0.00000000    0.00055971
     atom    6 type  1   force =     0.00738113   -0.00000000   -0.00104288
     atom    7 type  2   force =     0.00686494    0.00000000    0.00055971
     atom    8 type  1   force =    -0.00738113   -0.00000000   -0.00104288
     The non-local contrib.  to forces
     atom    1 type  2   force =    -0.09674843    0.00000000    0.11544996
     atom    2 type  1   force =     0.33827001    0.00000000    0.30261379
     atom    3 type  2   force =     0.09674843    0.00000000    0.11544996
     atom    4 type  1   force =    -0.33827001    0.00000000    0.30261379
     atom    5 type  2   force =    -0.09674843    0.00000000   -0.11544996
     atom    6 type  1   force =     0.33827001    0.00000000   -0.30261379
     atom    7 type  2   force =     0.09674843    0.00000000   -0.11544996
     atom    8 type  1   force =    -0.33827001    0.00000000   -0.30261379
     The ionic contribution  to forces
     atom    1 type  2   force =     0.95771321   -0.00000000   -1.40472614
     atom    2 type  1   force =    -0.57823647   -0.00000000   -0.86388243
     atom    3 type  2   force =    -0.95771321    0.00000000   -1.40472614
     atom    4 type  1   force =     0.57823647   -0.00000000   -0.86388243
     atom    5 type  2   force =     0.95771321    0.00000000    1.40472614
     atom    6 type  1   force =    -0.57823647   -0.00000000    0.86388243
     atom    7 type  2   force =    -0.95771321   -0.00000000    1.40472614
     atom    8 type  1   force =     0.57823647   -0.00000000    0.86388243
     The local contribution  to forces
     atom    1 type  2   force =    -0.87842891    0.00000000    1.29955878
     atom    2 type  1   force =     0.25486292    0.00000000    0.56589828
     atom    3 type  2   force =     0.87842891   -0.00000000    1.29955878
     atom    4 type  1   force =    -0.25486292    0.00000000    0.56589828
     atom    5 type  2   force =    -0.87842891   -0.00000000   -1.29955878
     atom    6 type  1   force =     0.25486292   -0.00000000   -0.56589828
     atom    7 type  2   force =     0.87842891    0.00000000   -1.29955878
     atom    8 type  1   force =    -0.25486292    0.00000000   -0.56589828
     The core correction contribution to forces
     atom    1 type  2   force =     0.01108892    0.00000000   -0.01274342
     atom    2 type  1   force =    -0.00718494    0.00000000   -0.00470784
     atom    3 type  2   force =    -0.01108892   -0.00000000   -0.01274342
     atom    4 type  1   force =     0.00718494    0.00000000   -0.00470784
     atom    5 type  2   force =     0.01108892   -0.00000000    0.01274342
     atom    6 type  1   force =    -0.00718494    0.00000000    0.00470784
     atom    7 type  2   force =    -0.01108892   -0.00000000    0.01274342
     atom    8 type  1   force =     0.00718494    0.00000000    0.00470784
     The Hubbard contrib.    to forces
     atom    1 type  2   force =     0.00000000    0.00000000    0.00000000
     atom    2 type  1   force =     0.00000000    0.00000000    0.00000000
     atom    3 type  2   force =     0.00000000    0.00000000    0.00000000
     atom    4 type  1   force =     0.00000000    0.00000000    0.00000000
     atom    5 type  2   force =     0.00000000    0.00000000    0.00000000
     atom    6 type  1   force =     0.00000000    0.00000000    0.00000000
     atom    7 type  2   force =     0.00000000    0.00000000    0.00000000
     atom    8 type  1   force =     0.00000000    0.00000000    0.00000000
     The SCF correction term to forces
     atom    1 type  2   force =     0.00000269   -0.00000000   -0.00000104
     atom    2 type  1   force =    -0.00000655    0.00000000    0.00000008
     atom    3 type  2   force =    -0.00000269    0.00000000   -0.00000104
     atom    4 type  1   force =     0.00000655    0.00000000    0.00000008
     atom    5 type  2   force =     0.00000269    0.00000000    0.00000104
     atom    6 type  1   force =    -0.00000655   -0.00000000   -0.00000008
     atom    7 type  2   force =    -0.00000269    0.00000000    0.00000104
     atom    8 type  1   force =     0.00000655    0.00000000   -0.00000008

     DFT-D3 dispersion contribution to forces:
     atom    1 type  2   force =    -0.00049242    0.00000000    0.00190214
     atom    2 type  1   force =    -0.00032385   -0.00000000    0.00112100
     atom    3 type  2   force =     0.00049242    0.00000000    0.00190214
     atom    4 type  1   force =     0.00032385    0.00000000    0.00112100
     atom    5 type  2   force =    -0.00049242   -0.00000000   -0.00190214
     atom    6 type  1   force =    -0.00032385    0.00000000   -0.00112100
     atom    7 type  2   force =     0.00049242    0.00000000   -0.00190214
     atom    8 type  1   force =     0.00032385    0.00000000   -0.00112100

     Total force =     0.020299     Total SCF correction =     0.000014

     DFT-D3 dispersion Force =     0.004570

     Writing all to output data dir ./tmp/SnSe_pnma.save/ :
     XML data file, charge density, pseudopotentials, collected wavefunctions
 
     init_run     :      3.51s CPU      3.86s WALL (       1 calls)
     electrons    :    101.47s CPU    106.96s WALL (       1 calls)
     forces       :      1.35s CPU      1.60s WALL (       1 calls)
     force_dftd3  :      0.05s CPU      0.05s WALL (       1 calls)

     Called by init_run:
     wfcinit      :      2.27s CPU      2.34s WALL (       1 calls)
     wfcinit:atom :      0.03s CPU      0.03s WALL (      11 calls)
     wfcinit:wfcr :      2.04s CPU      2.07s WALL (      11 calls)
     potinit      :      0.28s CPU      0.33s WALL (       1 calls)
     hinit0       :      0.26s CPU      0.29s WALL (       1 calls)

     Called by electrons:
     c_bands      :     74.93s CPU     75.50s WALL (      12 calls)
     sum_band     :     19.18s CPU     21.61s WALL (      12 calls)
     v_of_rho     :      2.78s CPU      3.00s WALL (      13 calls)
     v_h          :      0.23s CPU      0.24s WALL (      13 calls)
     v_xc         :      2.74s CPU      2.97s WALL (      14 calls)
     newd         :      4.65s CPU      7.02s WALL (      13 calls)
     mix_rho      :      0.34s CPU      0.36s WALL (      12 calls)
     energy_dftd3 :      0.03s CPU      0.04s WALL (       1 calls)

     Called by c_bands:
     init_us_2    :      1.98s CPU      1.99s WALL (     286 calls)
     cegterg      :     67.81s CPU     68.13s WALL (     132 calls)

     Called by sum_band:
     sum_band:wei :      0.00s CPU      0.00s WALL (      12 calls)
     sum_band:loo :     13.70s CPU     13.81s WALL (      12 calls)
     sum_band:buf :      0.13s CPU      0.13s WALL (     132 calls)
     sum_band:ini :      0.89s CPU      0.89s WALL (     132 calls)
     sum_band:cal :      1.11s CPU      1.11s WALL (     132 calls)
     sum_band:bec :      0.01s CPU      0.01s WALL (     132 calls)
     addusdens    :      4.48s CPU      6.68s WALL (      12 calls)
                                        0.00s GPU  (      12 calls)
     addusd:skk   :      0.03s CPU      0.04s WALL (      24 calls)
                                        0.00s GPU  (      24 calls)

     Called by *egterg:
     cdiaghg      :      0.97s CPU      0.97s WALL (     600 calls)
     cegterg:over :      2.73s CPU      2.74s WALL (     468 calls)
     cegterg:upda :      1.61s CPU      1.62s WALL (     468 calls)
     cegterg:last :      4.24s CPU      4.24s WALL (     337 calls)
     h_psi        :     54.42s CPU     54.74s WALL (     611 calls)
     s_psi        :      4.13s CPU      4.13s WALL (     611 calls)
     g_psi        :      0.18s CPU      0.18s WALL (     468 calls)

     Called by h_psi:
     h_psi:calbec :      3.66s CPU      3.67s WALL (     611 calls)
     vloc_psi     :     46.29s CPU     46.58s WALL (     611 calls)
     add_vuspsi   :      4.12s CPU      4.12s WALL (     611 calls)

     General routines
     calbec       :      5.13s CPU      5.14s WALL (     787 calls)
     fft          :      1.63s CPU      1.67s WALL (     178 calls)
     ffts         :      0.05s CPU      0.05s WALL (      25 calls)
     fftw         :     30.22s CPU     30.39s WALL (   38018 calls)
     interpolate  :      0.17s CPU      0.17s WALL (      13 calls)
 
     Parallel routines
 
     PWSCF        :   1m46.66s CPU   1m53.52s WALL

 
   This run was terminated on:  18:44:16  20May2026            

=------------------------------------------------------------------------------=
   JOB DONE.
=------------------------------------------------------------------------------=
