
     Program PWSCF v.7.3.1 starts on 20May2026 at 20:20:25 

     This program is part of the open-source Quantum ESPRESSO suite
     for quantum simulation of materials; please cite
         "P. Giannozzi et al., J. Phys.:Condens. Matter 21 395502 (2009);
         "P. Giannozzi et al., J. Phys.:Condens. Matter 29 465901 (2017);
         "P. Giannozzi et al., J. Chem. Phys. 152 154105 (2020);
          URL http://www.quantum-espresso.org", 
     in publications or presentations arising from this work. More details at
     http://www.quantum-espresso.org/quote

     Parallel version (MPI & OpenMP), running on       6 processor cores
     Number of MPI processes:                 6
     Threads/MPI process:                     1

     MPI processes distributed on     1 nodes
     5352 MiB available memory on the printing compute node when the environment starts
 
     Waiting for input...
     Reading input from standard input

     Current dimensions of program PWSCF are:
     Max number of different atomic species (ntypx) = 10
     Max number of k-points (npk) =  40000
     Max angular momentum in pseudopotentials (lmaxx) =  4
 
     K-points division:     npool     =       3
     R & G space division:  proc/nbgrp/npool/nimage =       2
     Subspace diagonalization in iterative solution of the eigenvalue problem:
     a serial algorithm will be used

 
     Parallelization info
     --------------------
     sticks:   dense  smooth     PW     G-vecs:    dense   smooth      PW
     Min        3960    1588    453               177331    44871    6768
     Max        3961    1589    454               177332    44872    6769
     Sum        7921    3177    907               354663    89743   13537
 
     Using Slab Decomposition
 


     bravais-lattice index     =            8
     lattice parameter (alat)  =      21.0515  a.u.
     unit-cell volume          =    1428.5639 (a.u.)^3
     number of atoms/cell      =            8
     number of atomic types    =            2
     number of electrons       =        80.00
     number of Kohn-Sham states=           40
     kinetic-energy cutoff     =      60.0000  Ry
     charge density cutoff     =     600.0000  Ry
     scf convergence threshold =      1.0E-08
     mixing beta               =       0.7000
     number of iterations used =            8  plain     mixing
     Exchange-correlation= SLA  PW   PBE  PBE
                           (   1   4   3   4   0   0   0)

     celldm(1)=  21.051549  celldm(2)=   0.374452  celldm(3)=   0.408932
     celldm(4)=   0.000000  celldm(5)=   0.000000  celldm(6)=   0.000000

     crystal axes: (cart. coord. in units of alat)
               a(1) = (   1.000000   0.000000   0.000000 )  
               a(2) = (   0.000000   0.374452   0.000000 )  
               a(3) = (   0.000000   0.000000   0.408932 )  

     reciprocal axes: (cart. coord. in units 2 pi/alat)
               b(1) = (  1.000000  0.000000  0.000000 )  
               b(2) = (  0.000000  2.670566  0.000000 )  
               b(3) = (  0.000000  0.000000  2.445396 )  


     PseudoPot. # 1 for Sn read from file:
     ../pseudo/Sn_pbe_v1.uspp.F.UPF
     MD5 check sum: 4cf58ce39ec5d5d420df3dd08604eb00
     Pseudo is Ultrasoft + core correction, Zval = 14.0
     Generated by new atomic code, or converted to UPF format
     Using radial grid of  891 points,  6 beta functions with: 
                l(1) =   0
                l(2) =   0
                l(3) =   1
                l(4) =   1
                l(5) =   2
                l(6) =   2
     Q(r) pseudized with  6 coefficients,  rinner =    1.200   1.200   1.200
                                                       1.200   1.200

     PseudoPot. # 2 for Se read from file:
     ../pseudo/Se_pbe_v1.uspp.F.UPF
     MD5 check sum: 1b3568f3a8ae88f9a2a0ad0698632c85
     Pseudo is Ultrasoft + core correction, Zval =  6.0
     Generated by new atomic code, or converted to UPF format
     Using radial grid of  877 points,  6 beta functions with: 
                l(1) =   0
                l(2) =   0
                l(3) =   1
                l(4) =   1
                l(5) =   2
                l(6) =   2
     Q(r) pseudized with  8 coefficients,  rinner =    1.300   1.300   1.300
                                                       1.300   1.300

     atomic species   valence    mass     pseudopotential
     Sn               14.00   118.71000     Sn( 1.00)
     Se                6.00    78.97100     Se( 1.00)

      8 Sym. Ops., with inversion, found ( 6 have fractional translation)


                                    s                        frac. trans.

      isym =  1     identity                                     

 cryst.   s( 1) = (     1          0          0      )
                  (     0          1          0      )
                  (     0          0          1      )

 cart.    s( 1) = (  1.0000000  0.0000000  0.0000000 )
                  (  0.0000000  1.0000000  0.0000000 )
                  (  0.0000000  0.0000000  1.0000000 )


      isym =  2     180 deg rotation - cart. axis [0,0,1]        

 cryst.   s( 2) = (    -1          0          0      )    f =(  0.5000000 )
                  (     0         -1          0      )       ( -0.0000000 )
                  (     0          0          1      )       ( -0.5000000 )

 cart.    s( 2) = ( -1.0000000  0.0000000  0.0000000 )    f =(  0.5000000 )
                  (  0.0000000 -1.0000000  0.0000000 )       ( -0.0000000 )
                  (  0.0000000  0.0000000  1.0000000 )       ( -0.2044659 )


      isym =  3     180 deg rotation - cart. axis [0,1,0]        

 cryst.   s( 3) = (    -1          0          0      )    f =(  0.0000000 )
                  (     0          1          0      )       ( -0.5000000 )
                  (     0          0         -1      )       (  0.0000000 )

 cart.    s( 3) = ( -1.0000000  0.0000000  0.0000000 )    f =(  0.0000000 )
                  (  0.0000000  1.0000000  0.0000000 )       ( -0.1872262 )
                  (  0.0000000  0.0000000 -1.0000000 )       (  0.0000000 )


      isym =  4     180 deg rotation - cart. axis [1,0,0]        

 cryst.   s( 4) = (     1          0          0      )    f =(  0.5000000 )
                  (     0         -1          0      )       (  0.5000000 )
                  (     0          0         -1      )       (  0.5000000 )

 cart.    s( 4) = (  1.0000000  0.0000000  0.0000000 )    f =(  0.5000000 )
                  (  0.0000000 -1.0000000  0.0000000 )       (  0.1872262 )
                  (  0.0000000  0.0000000 -1.0000000 )       (  0.2044659 )


      isym =  5     inversion                                    

 cryst.   s( 5) = (    -1          0          0      )
                  (     0         -1          0      )
                  (     0          0         -1      )

 cart.    s( 5) = ( -1.0000000  0.0000000  0.0000000 )
                  (  0.0000000 -1.0000000  0.0000000 )
                  (  0.0000000  0.0000000 -1.0000000 )


      isym =  6     inv. 180 deg rotation - cart. axis [0,0,1]   

 cryst.   s( 6) = (     1          0          0      )    f =(  0.5000000 )
                  (     0          1          0      )       (  0.0000000 )
                  (     0          0         -1      )       (  0.5000000 )

 cart.    s( 6) = (  1.0000000  0.0000000  0.0000000 )    f =(  0.5000000 )
                  (  0.0000000  1.0000000  0.0000000 )       (  0.0000000 )
                  (  0.0000000  0.0000000 -1.0000000 )       (  0.2044659 )


      isym =  7     inv. 180 deg rotation - cart. axis [0,1,0]   

 cryst.   s( 7) = (     1          0          0      )    f =(  0.0000000 )
                  (     0         -1          0      )       (  0.5000000 )
                  (     0          0          1      )       (  0.0000000 )

 cart.    s( 7) = (  1.0000000  0.0000000  0.0000000 )    f =(  0.0000000 )
                  (  0.0000000 -1.0000000  0.0000000 )       (  0.1872262 )
                  (  0.0000000  0.0000000  1.0000000 )       (  0.0000000 )


      isym =  8     inv. 180 deg rotation - cart. axis [1,0,0]   

 cryst.   s( 8) = (    -1          0          0      )    f =(  0.5000000 )
                  (     0          1          0      )       ( -0.5000000 )
                  (     0          0          1      )       ( -0.5000000 )

 cart.    s( 8) = ( -1.0000000  0.0000000  0.0000000 )    f =(  0.5000000 )
                  (  0.0000000  1.0000000  0.0000000 )       ( -0.1872262 )
                  (  0.0000000  0.0000000  1.0000000 )       ( -0.2044659 )


     point group D_2h (mmm) 
     there are  8 classes
     the character table:

       E     C2    C2'   C2''  i     s_v   s_v'  s_v''
A_g    1.00  1.00  1.00  1.00  1.00  1.00  1.00  1.00
B_1g   1.00  1.00 -1.00 -1.00  1.00  1.00 -1.00 -1.00
B_2g   1.00 -1.00  1.00 -1.00  1.00 -1.00  1.00 -1.00
B_3g   1.00 -1.00 -1.00  1.00  1.00 -1.00 -1.00  1.00
A_u    1.00  1.00  1.00  1.00 -1.00 -1.00 -1.00 -1.00
B_1u   1.00  1.00 -1.00 -1.00 -1.00 -1.00  1.00  1.00
B_2u   1.00 -1.00  1.00 -1.00 -1.00  1.00 -1.00  1.00
B_3u   1.00 -1.00 -1.00  1.00 -1.00  1.00  1.00 -1.00

     the symmetry operations in each class and the name of the first element:

     E        1
          identity                                               
     C2       2
          180 deg rotation - cart. axis [0,0,1]                  
     C2'      4
          180 deg rotation - cart. axis [1,0,0]                  
     C2''     3
          180 deg rotation - cart. axis [0,1,0]                  
     i        5
          inversion                                              
     s_v      6
          inv. 180 deg rotation - cart. axis [0,0,1]             
     s_v'     8
          inv. 180 deg rotation - cart. axis [1,0,0]             
     s_v''    7
          inv. 180 deg rotation - cart. axis [0,1,0]             

   Cartesian axes

     site n.     atom                  positions (alat units)
         1        Se     tau(   1) = (   0.8549563   0.0936131   0.1976155  )
         2        Sn     tau(   2) = (   0.1165395   0.0936131   0.0459177  )
         3        Se     tau(   3) = (   0.6450437   0.2808393   0.4020814  )
         4        Sn     tau(   4) = (   0.3834605   0.2808393   0.2503836  )
         5        Se     tau(   5) = (   0.3549563   0.0936131   0.0068504  )
         6        Sn     tau(   6) = (   0.6165395   0.0936131   0.1585482  )
         7        Se     tau(   7) = (   0.1450437   0.2808393   0.2113163  )
         8        Sn     tau(   8) = (   0.8834605   0.2808393   0.3630140  )

     --------------------------------------------
     DFT-D3 Dispersion Correction (3-body terms):
     --------------------------------------------
       Reference C6 values for interpolation: 

         atom   Coordination number   C6
         Se         0.000           427.35
         Se         0.990           427.57
         Se         1.981           421.05
         Sn         0.000          1255.14
         Sn         0.951          1084.09
         Sn         1.950          1010.83
         Sn         2.926           818.29
         Sn         3.912           672.20

       Values used:

         atom   Coordination number  R0_AB[au]  C6      C8
         Se         3.566            3.332    421.05  29958.36
         Sn         4.399            3.957    672.26  84376.53
         Se         3.566            3.332    421.05  29958.36
         Sn         4.399            3.957    672.26  84376.53
         Se         3.566            3.332    421.05  29958.36
         Sn         4.399            3.957    672.26  84376.53
         Se         3.566            3.332    421.05  29958.36
         Sn         4.399            3.957    672.26  84376.53

         Molecular C6 ( Ry / a.u.^6 ) =     34497.91


   Crystallographic axes

     site n.     atom                  positions (cryst. coord.)
         1        Se     tau(   1) = (  0.8549563  0.2500000  0.4832481  )
         2        Sn     tau(   2) = (  0.1165395  0.2500000  0.1122870  )
         3        Se     tau(   3) = (  0.6450437  0.7500000  0.9832481  )
         4        Sn     tau(   4) = (  0.3834605  0.7500000  0.6122870  )
         5        Se     tau(   5) = (  0.3549563  0.2500000  0.0167519  )
         6        Sn     tau(   6) = (  0.6165395  0.2500000  0.3877130  )
         7        Se     tau(   7) = (  0.1450437  0.7500000  0.5167519  )
         8        Sn     tau(   8) = (  0.8834605  0.7500000  0.8877130  )

     number of k points=    32
                       cart. coord. in units 2pi/alat
        k(    1) = (   0.1666667   0.1669104   0.1528372), wk =   0.0833333
        k(    2) = (   0.1666667   0.1669104   0.4585117), wk =   0.0833333
        k(    3) = (   0.1666667   0.1669104   0.7641861), wk =   0.0833333
        k(    4) = (   0.1666667   0.1669104   1.0698606), wk =   0.0833333
        k(    5) = (   0.1666667   0.5007312   0.1528372), wk =   0.0833333
        k(    6) = (   0.1666667   0.5007312   0.4585117), wk =   0.0833333
        k(    7) = (   0.1666667   0.5007312   0.7641861), wk =   0.0833333
        k(    8) = (   0.1666667   0.5007312   1.0698606), wk =   0.0833333
        k(    9) = (   0.1666667   0.8345519   0.1528372), wk =   0.0833333
        k(   10) = (   0.1666667   0.8345519   0.4585117), wk =   0.0833333
        k(   11) = (   0.1666667   0.8345519   0.7641861), wk =   0.0833333
        k(   12) = (   0.1666667   0.8345519   1.0698606), wk =   0.0833333
        k(   13) = (   0.1666667   1.1683727   0.1528372), wk =   0.0833333
        k(   14) = (   0.1666667   1.1683727   0.4585117), wk =   0.0833333
        k(   15) = (   0.1666667   1.1683727   0.7641861), wk =   0.0833333
        k(   16) = (   0.1666667   1.1683727   1.0698606), wk =   0.0833333
        k(   17) = (  -0.5000000   0.1669104   0.1528372), wk =   0.0416667
        k(   18) = (  -0.5000000   0.1669104   0.4585117), wk =   0.0416667
        k(   19) = (  -0.5000000   0.1669104   0.7641861), wk =   0.0416667
        k(   20) = (  -0.5000000   0.1669104   1.0698606), wk =   0.0416667
        k(   21) = (  -0.5000000   0.5007312   0.1528372), wk =   0.0416667
        k(   22) = (  -0.5000000   0.5007312   0.4585117), wk =   0.0416667
        k(   23) = (  -0.5000000   0.5007312   0.7641861), wk =   0.0416667
        k(   24) = (  -0.5000000   0.5007312   1.0698606), wk =   0.0416667
        k(   25) = (  -0.5000000   0.8345519   0.1528372), wk =   0.0416667
        k(   26) = (  -0.5000000   0.8345519   0.4585117), wk =   0.0416667
        k(   27) = (  -0.5000000   0.8345519   0.7641861), wk =   0.0416667
        k(   28) = (  -0.5000000   0.8345519   1.0698606), wk =   0.0416667
        k(   29) = (  -0.5000000   1.1683727   0.1528372), wk =   0.0416667
        k(   30) = (  -0.5000000   1.1683727   0.4585117), wk =   0.0416667
        k(   31) = (  -0.5000000   1.1683727   0.7641861), wk =   0.0416667
        k(   32) = (  -0.5000000   1.1683727   1.0698606), wk =   0.0416667

                       cryst. coord.
        k(    1) = (   0.1666667   0.0625000   0.0625000), wk =   0.0833333
        k(    2) = (   0.1666667   0.0625000   0.1875000), wk =   0.0833333
        k(    3) = (   0.1666667   0.0625000   0.3125000), wk =   0.0833333
        k(    4) = (   0.1666667   0.0625000   0.4375000), wk =   0.0833333
        k(    5) = (   0.1666667   0.1875000   0.0625000), wk =   0.0833333
        k(    6) = (   0.1666667   0.1875000   0.1875000), wk =   0.0833333
        k(    7) = (   0.1666667   0.1875000   0.3125000), wk =   0.0833333
        k(    8) = (   0.1666667   0.1875000   0.4375000), wk =   0.0833333
        k(    9) = (   0.1666667   0.3125000   0.0625000), wk =   0.0833333
        k(   10) = (   0.1666667   0.3125000   0.1875000), wk =   0.0833333
        k(   11) = (   0.1666667   0.3125000   0.3125000), wk =   0.0833333
        k(   12) = (   0.1666667   0.3125000   0.4375000), wk =   0.0833333
        k(   13) = (   0.1666667   0.4375000   0.0625000), wk =   0.0833333
        k(   14) = (   0.1666667   0.4375000   0.1875000), wk =   0.0833333
        k(   15) = (   0.1666667   0.4375000   0.3125000), wk =   0.0833333
        k(   16) = (   0.1666667   0.4375000   0.4375000), wk =   0.0833333
        k(   17) = (  -0.5000000   0.0625000   0.0625000), wk =   0.0416667
        k(   18) = (  -0.5000000   0.0625000   0.1875000), wk =   0.0416667
        k(   19) = (  -0.5000000   0.0625000   0.3125000), wk =   0.0416667
        k(   20) = (  -0.5000000   0.0625000   0.4375000), wk =   0.0416667
        k(   21) = (  -0.5000000   0.1875000   0.0625000), wk =   0.0416667
        k(   22) = (  -0.5000000   0.1875000   0.1875000), wk =   0.0416667
        k(   23) = (  -0.5000000   0.1875000   0.3125000), wk =   0.0416667
        k(   24) = (  -0.5000000   0.1875000   0.4375000), wk =   0.0416667
        k(   25) = (  -0.5000000   0.3125000   0.0625000), wk =   0.0416667
        k(   26) = (  -0.5000000   0.3125000   0.1875000), wk =   0.0416667
        k(   27) = (  -0.5000000   0.3125000   0.3125000), wk =   0.0416667
        k(   28) = (  -0.5000000   0.3125000   0.4375000), wk =   0.0416667
        k(   29) = (  -0.5000000   0.4375000   0.0625000), wk =   0.0416667
        k(   30) = (  -0.5000000   0.4375000   0.1875000), wk =   0.0416667
        k(   31) = (  -0.5000000   0.4375000   0.3125000), wk =   0.0416667
        k(   32) = (  -0.5000000   0.4375000   0.4375000), wk =   0.0416667

     Dense  grid:   354663 G-vectors     FFT dimensions: ( 180,  64,  72)

     Smooth grid:    89743 G-vectors     FFT dimensions: ( 108,  40,  48)

     Dynamical RAM for                 wfc:       3.42 MB

     Dynamical RAM for     wfc (w. buffer):      41.06 MB

     Dynamical RAM for           str. fact:       5.41 MB

     Dynamical RAM for           local pot:       0.00 MB

     Dynamical RAM for          nlocal pot:      12.32 MB

     Dynamical RAM for                qrad:       3.93 MB

     Dynamical RAM for          rho,v,vnew:      17.61 MB

     Dynamical RAM for               rhoin:       5.87 MB

     Dynamical RAM for            rho*nmix:      43.29 MB

     Dynamical RAM for           G-vectors:      10.49 MB

     Dynamical RAM for          h,s,v(r/c):       0.29 MB

     Dynamical RAM for          <psi|beta>:       0.09 MB

     Dynamical RAM for                 psi:       6.84 MB

     Dynamical RAM for                hpsi:       6.84 MB

     Dynamical RAM for                spsi:       6.84 MB

     Dynamical RAM for      wfcinit/wfcrot:       8.96 MB

     Dynamical RAM for           addusdens:     173.17 MB

     Dynamical RAM for          addusforce:     178.15 MB

     Estimated static dynamical RAM per process >     120.63 MB

     Estimated max dynamical RAM per process >     342.07 MB

     Estimated total dynamical RAM >       1.84 GB

     Initial potential from superposition of free atoms

     starting charge      75.9995, renormalised to      80.0000
     Starting wfcs are   52 randomized atomic wfcs

     total cpu time spent up to now is        4.0 secs

     Self-consistent Calculation

     iteration #  1     ecut=    60.00 Ry     beta= 0.70
     Davidson diagonalization with overlap

---- Real-time Memory Report at c_bands before calling an iterative solver
           388 MiB given to the printing process from OS
             0 MiB allocation reported by mallinfo(arena+hblkhd)
          4248 MiB available memory on the node where the printing process lives
------------------
     ethr =  1.00E-02,  avg # of iterations =  2.0

     total cpu time spent up to now is       10.8 secs

     total energy              =    -826.64108282 Ry
     estimated scf accuracy    <       2.65687342 Ry

     iteration #  2     ecut=    60.00 Ry     beta= 0.70
     Davidson diagonalization with overlap

---- Real-time Memory Report at c_bands before calling an iterative solver
           486 MiB given to the printing process from OS
             0 MiB allocation reported by mallinfo(arena+hblkhd)
          4069 MiB available memory on the node where the printing process lives
------------------
     ethr =  3.32E-03,  avg # of iterations =  3.0

     total cpu time spent up to now is       18.4 secs

     total energy              =    -827.55013723 Ry
     estimated scf accuracy    <       0.92414704 Ry

     iteration #  3     ecut=    60.00 Ry     beta= 0.70
     Davidson diagonalization with overlap

---- Real-time Memory Report at c_bands before calling an iterative solver
           525 MiB given to the printing process from OS
             0 MiB allocation reported by mallinfo(arena+hblkhd)
          3915 MiB available memory on the node where the printing process lives
------------------
     ethr =  1.16E-03,  avg # of iterations =  2.5

     total cpu time spent up to now is       25.2 secs

     total energy              =    -827.73429580 Ry
     estimated scf accuracy    <       0.00923118 Ry

     iteration #  4     ecut=    60.00 Ry     beta= 0.70
     Davidson diagonalization with overlap

---- Real-time Memory Report at c_bands before calling an iterative solver
           530 MiB given to the printing process from OS
             0 MiB allocation reported by mallinfo(arena+hblkhd)
          3909 MiB available memory on the node where the printing process lives
------------------
     ethr =  1.15E-05,  avg # of iterations =  5.0

     total cpu time spent up to now is       34.0 secs

     total energy              =    -827.74022598 Ry
     estimated scf accuracy    <       0.00436664 Ry

     iteration #  5     ecut=    60.00 Ry     beta= 0.70
     Davidson diagonalization with overlap

---- Real-time Memory Report at c_bands before calling an iterative solver
           533 MiB given to the printing process from OS
             0 MiB allocation reported by mallinfo(arena+hblkhd)
          3901 MiB available memory on the node where the printing process lives
------------------
     ethr =  5.46E-06,  avg # of iterations =  3.2

     total cpu time spent up to now is       41.0 secs

     total energy              =    -827.74162087 Ry
     estimated scf accuracy    <       0.00116173 Ry

     iteration #  6     ecut=    60.00 Ry     beta= 0.70
     Davidson diagonalization with overlap

---- Real-time Memory Report at c_bands before calling an iterative solver
           535 MiB given to the printing process from OS
             0 MiB allocation reported by mallinfo(arena+hblkhd)
          3898 MiB available memory on the node where the printing process lives
------------------
     ethr =  1.45E-06,  avg # of iterations =  2.2

     total cpu time spent up to now is       47.5 secs

     total energy              =    -827.74179576 Ry
     estimated scf accuracy    <       0.00002865 Ry

     iteration #  7     ecut=    60.00 Ry     beta= 0.70
     Davidson diagonalization with overlap

---- Real-time Memory Report at c_bands before calling an iterative solver
           537 MiB given to the printing process from OS
             0 MiB allocation reported by mallinfo(arena+hblkhd)
          3894 MiB available memory on the node where the printing process lives
------------------
     ethr =  3.58E-08,  avg # of iterations =  5.8

     total cpu time spent up to now is       56.9 secs

     total energy              =    -827.74182049 Ry
     estimated scf accuracy    <       0.00000600 Ry

     iteration #  8     ecut=    60.00 Ry     beta= 0.70
     Davidson diagonalization with overlap

---- Real-time Memory Report at c_bands before calling an iterative solver
           539 MiB given to the printing process from OS
             0 MiB allocation reported by mallinfo(arena+hblkhd)
          3889 MiB available memory on the node where the printing process lives
------------------
     ethr =  7.49E-09,  avg # of iterations =  3.7

     total cpu time spent up to now is       64.9 secs

     total energy              =    -827.74182306 Ry
     estimated scf accuracy    <       0.00000176 Ry

     iteration #  9     ecut=    60.00 Ry     beta= 0.70
     Davidson diagonalization with overlap

---- Real-time Memory Report at c_bands before calling an iterative solver
           541 MiB given to the printing process from OS
             0 MiB allocation reported by mallinfo(arena+hblkhd)
          3886 MiB available memory on the node where the printing process lives
------------------
     ethr =  2.20E-09,  avg # of iterations =  3.3

     total cpu time spent up to now is       71.7 secs

     total energy              =    -827.74182355 Ry
     estimated scf accuracy    <       0.00000001 Ry

     iteration # 10     ecut=    60.00 Ry     beta= 0.70
     Davidson diagonalization with overlap

---- Real-time Memory Report at c_bands before calling an iterative solver
           543 MiB given to the printing process from OS
             0 MiB allocation reported by mallinfo(arena+hblkhd)
          3879 MiB available memory on the node where the printing process lives
------------------
     ethr =  1.61E-11,  avg # of iterations = 10.8

     total cpu time spent up to now is       91.8 secs

     total energy              =    -827.74182362 Ry
     estimated scf accuracy    <       0.00000004 Ry

     iteration # 11     ecut=    60.00 Ry     beta= 0.70
     Davidson diagonalization with overlap

---- Real-time Memory Report at c_bands before calling an iterative solver
           543 MiB given to the printing process from OS
             0 MiB allocation reported by mallinfo(arena+hblkhd)
          3878 MiB available memory on the node where the printing process lives
------------------
     ethr =  1.61E-11,  avg # of iterations =  3.8

     total cpu time spent up to now is       99.3 secs

     End of self-consistent calculation

          k = 0.1667 0.1669 0.1528 ( 11236 PWs)   bands (ev):

   -13.2874 -13.2758 -13.2715 -13.2698 -13.2677 -13.2667 -13.2631 -13.2597
   -13.2539 -13.2507 -13.2477 -13.2471 -13.2360 -13.2284 -13.2096 -13.2087
   -13.2012 -13.2005 -13.1887 -13.1815  -5.7471  -5.4265  -4.6438  -4.2001
     0.5886   1.5169   2.5047   2.8237   3.2738   4.5202   4.6465   4.9281
     5.2046   5.3519   5.9251   6.2810   6.5464   7.0392   7.2846   7.5798

     occupation numbers 
     1.0000   1.0000   1.0000   1.0000   1.0000   1.0000   1.0000   1.0000
     1.0000   1.0000   1.0000   1.0000   1.0000   1.0000   1.0000   1.0000
     1.0000   1.0000   1.0000   1.0000   1.0000   1.0000   1.0000   1.0000
     1.0000   1.0000   1.0000   1.0000   1.0000   1.0000   1.0000   1.0000
     1.0000   1.0000   1.0000   1.0000   1.0000   1.0000   1.0000   1.0000

          k = 0.1667 0.1669 0.4585 ( 11219 PWs)   bands (ev):

   -13.2857 -13.2752 -13.2715 -13.2708 -13.2681 -13.2675 -13.2639 -13.2607
   -13.2530 -13.2481 -13.2472 -13.2452 -13.2357 -13.2292 -13.2100 -13.2076
   -13.2019 -13.2017 -13.1881 -13.1820  -5.6266  -5.3157  -4.6505  -4.2499
     0.2826   1.2919   1.9155   2.5278   3.3841   4.5522   4.7685   5.3518
     5.5264   5.8924   5.9355   6.3822   6.7328   7.0374   7.4311   7.6581

     occupation numbers 
     1.0000   1.0000   1.0000   1.0000   1.0000   1.0000   1.0000   1.0000
     1.0000   1.0000   1.0000   1.0000   1.0000   1.0000   1.0000   1.0000
     1.0000   1.0000   1.0000   1.0000   1.0000   1.0000   1.0000   1.0000
     1.0000   1.0000   1.0000   1.0000   1.0000   1.0000   1.0000   1.0000
     1.0000   1.0000   1.0000   1.0000   1.0000   1.0000   1.0000   1.0000

          k = 0.1667 0.1669 0.7642 ( 11210 PWs)   bands (ev):

   -13.2827 -13.2749 -13.2726 -13.2714 -13.2696 -13.2676 -13.2645 -13.2622
   -13.2515 -13.2477 -13.2439 -13.2414 -13.2357 -13.2309 -13.2096 -13.2064
   -13.2037 -13.2029 -13.1870 -13.1830  -5.4078  -5.1167  -4.7029  -4.3689
    -0.0056   0.7997   1.4682   2.0598   3.6901   4.7821   4.9783   5.6044
     5.9163   6.0161   6.3041   6.3949   6.9072   7.3630   7.4484   7.8940

     occupation numbers 
     1.0000   1.0000   1.0000   1.0000   1.0000   1.0000   1.0000   1.0000
     1.0000   1.0000   1.0000   1.0000   1.0000   1.0000   1.0000   1.0000
     1.0000   1.0000   1.0000   1.0000   1.0000   1.0000   1.0000   1.0000
     1.0000   1.0000   1.0000   1.0000   1.0000   1.0000   1.0000   1.0000
     1.0000   1.0000   1.0000   1.0000   1.0000   1.0000   1.0000   1.0000

          k = 0.1667 0.1669 1.0699 ( 11194 PWs)   bands (ev):

   -13.2794 -13.2765 -13.2731 -13.2725 -13.2693 -13.2683 -13.2645 -13.2637
   -13.2500 -13.2486 -13.2397 -13.2379 -13.2363 -13.2335 -13.2082 -13.2062
   -13.2051 -13.2040 -13.1857 -13.1842  -5.1420  -4.9464  -4.7712  -4.5656
    -0.0354   0.2621   1.4040   1.6313   4.1556   4.6529   5.3666   5.6731
     5.9056   6.0540   6.3751   6.6135   7.1998   7.4877   7.6888   7.7687

     occupation numbers 
     1.0000   1.0000   1.0000   1.0000   1.0000   1.0000   1.0000   1.0000
     1.0000   1.0000   1.0000   1.0000   1.0000   1.0000   1.0000   1.0000
     1.0000   1.0000   1.0000   1.0000   1.0000   1.0000   1.0000   1.0000
     1.0000   1.0000   1.0000   1.0000   1.0000   1.0000   1.0000   1.0000
     1.0000   1.0000   1.0000   1.0000   1.0000   1.0000   1.0000   1.0000

          k = 0.1667 0.5007 0.1528 ( 11230 PWs)   bands (ev):

   -13.2814 -13.2743 -13.2724 -13.2694 -13.2667 -13.2663 -13.2645 -13.2627
   -13.2545 -13.2491 -13.2469 -13.2451 -13.2336 -13.2296 -13.2116 -13.2076
   -13.2045 -13.1989 -13.1888 -13.1832  -5.5820  -5.2854  -4.5836  -4.2157
     0.4537   1.2853   2.1372   2.2841   3.3868   4.3719   4.7008   5.0569
     5.3513   5.5171   5.9693   6.3362   6.5061   7.1730   7.4677   7.6162

     occupation numbers 
     1.0000   1.0000   1.0000   1.0000   1.0000   1.0000   1.0000   1.0000
     1.0000   1.0000   1.0000   1.0000   1.0000   1.0000   1.0000   1.0000
     1.0000   1.0000   1.0000   1.0000   1.0000   1.0000   1.0000   1.0000
     1.0000   1.0000   1.0000   1.0000   1.0000   1.0000   1.0000   1.0000
     1.0000   1.0000   1.0000   1.0000   1.0000   1.0000   1.0000   1.0000

          k = 0.1667 0.5007 0.4585 ( 11220 PWs)   bands (ev):

   -13.2812 -13.2745 -13.2738 -13.2702 -13.2670 -13.2663 -13.2644 -13.2635
   -13.2537 -13.2493 -13.2445 -13.2427 -13.2339 -13.2297 -13.2112 -13.2076
   -13.2048 -13.1999 -13.1882 -13.1835  -5.4674  -5.1813  -4.5868  -4.2520
     0.3008   1.2384   1.7777   2.1559   3.5225   3.9705   4.2937   5.2156
     5.4019   5.9491   6.0555   6.3130   6.9023   7.0640   7.4540   7.6352

     occupation numbers 
     1.0000   1.0000   1.0000   1.0000   1.0000   1.0000   1.0000   1.0000
     1.0000   1.0000   1.0000   1.0000   1.0000   1.0000   1.0000   1.0000
     1.0000   1.0000   1.0000   1.0000   1.0000   1.0000   1.0000   1.0000
     1.0000   1.0000   1.0000   1.0000   1.0000   1.0000   1.0000   1.0000
     1.0000   1.0000   1.0000   1.0000   1.0000   1.0000   1.0000   1.0000

          k = 0.1667 0.5007 0.7642 ( 11211 PWs)   bands (ev):

   -13.2810 -13.2765 -13.2741 -13.2714 -13.2680 -13.2657 -13.2653 -13.2631
   -13.2526 -13.2498 -13.2408 -13.2392 -13.2343 -13.2305 -13.2104 -13.2077
   -13.2049 -13.2015 -13.1872 -13.1841  -5.2617  -4.9968  -4.6288  -4.3446
     0.1412   0.9109   1.5021   1.9335   3.7764   3.9256   4.2450   5.0917
     5.2287   5.9208   6.0340   6.5553   6.7953   7.0915   7.3122   7.6506

     occupation numbers 
     1.0000   1.0000   1.0000   1.0000   1.0000   1.0000   1.0000   1.0000
     1.0000   1.0000   1.0000   1.0000   1.0000   1.0000   1.0000   1.0000
     1.0000   1.0000   1.0000   1.0000   1.0000   1.0000   1.0000   1.0000
     1.0000   1.0000   1.0000   1.0000   1.0000   1.0000   1.0000   1.0000
     1.0000   1.0000   1.0000   1.0000   1.0000   1.0000   1.0000   1.0000

          k = 0.1667 0.5007 1.0699 ( 11196 PWs)   bands (ev):

   -13.2805 -13.2789 -13.2737 -13.2727 -13.2680 -13.2670 -13.2642 -13.2633
   -13.2515 -13.2506 -13.2373 -13.2354 -13.2352 -13.2324 -13.2093 -13.2083
   -13.2043 -13.2030 -13.1861 -13.1849  -5.0165  -4.8408  -4.6861  -4.5076
     0.1597   0.4410   1.5040   1.6735   4.0908   4.1627   4.4606   4.7615
     5.1033   5.4100   6.0927   6.3736   6.7999   7.0704   7.3601   7.5660

     occupation numbers 
     1.0000   1.0000   1.0000   1.0000   1.0000   1.0000   1.0000   1.0000
     1.0000   1.0000   1.0000   1.0000   1.0000   1.0000   1.0000   1.0000
     1.0000   1.0000   1.0000   1.0000   1.0000   1.0000   1.0000   1.0000
     1.0000   1.0000   1.0000   1.0000   1.0000   1.0000   1.0000   1.0000
     1.0000   1.0000   1.0000   1.0000   1.0000   1.0000   1.0000   1.0000

          k = 0.1667 0.8346 0.1528 ( 11216 PWs)   bands (ev):

   -13.2789 -13.2766 -13.2754 -13.2744 -13.2638 -13.2620 -13.2604 -13.2588
   -13.2533 -13.2507 -13.2437 -13.2409 -13.2330 -13.2301 -13.2164 -13.2145
   -13.2008 -13.1959 -13.1888 -13.1860  -5.2787  -5.0385  -4.5257  -4.3077
     0.2789   1.0036   1.3249   1.7638   3.7294   4.4849   4.8704   5.2677
     5.5741   5.6918   6.0858   6.2797   6.6060   7.1393   7.2628   7.6701

     occupation numbers 
     1.0000   1.0000   1.0000   1.0000   1.0000   1.0000   1.0000   1.0000
     1.0000   1.0000   1.0000   1.0000   1.0000   1.0000   1.0000   1.0000
     1.0000   1.0000   1.0000   1.0000   1.0000   1.0000   1.0000   1.0000
     1.0000   1.0000   1.0000   1.0000   1.0000   1.0000   1.0000   1.0000
     1.0000   1.0000   1.0000   1.0000   1.0000   1.0000   1.0000   1.0000

          k = 0.1667 0.8346 0.4585 ( 11203 PWs)   bands (ev):

   -13.2818 -13.2786 -13.2767 -13.2749 -13.2642 -13.2610 -13.2599 -13.2586
   -13.2523 -13.2507 -13.2420 -13.2393 -13.2335 -13.2295 -13.2159 -13.2143
   -13.2008 -13.1966 -13.1884 -13.1859  -5.1785  -4.9499  -4.5178  -4.3147
     0.3203   1.0968   1.3631   1.6546   3.7220   3.8395   4.2363   4.9043
     5.3382   5.8618   5.9147   6.4139   6.4855   6.9718   7.1335   7.4324

     occupation numbers 
     1.0000   1.0000   1.0000   1.0000   1.0000   1.0000   1.0000   1.0000
     1.0000   1.0000   1.0000   1.0000   1.0000   1.0000   1.0000   1.0000
     1.0000   1.0000   1.0000   1.0000   1.0000   1.0000   1.0000   1.0000
     1.0000   1.0000   1.0000   1.0000   1.0000   1.0000   1.0000   1.0000
     1.0000   1.0000   1.0000   1.0000   1.0000   1.0000   1.0000   1.0000

          k = 0.1667 0.8346 0.7642 ( 11199 PWs)   bands (ev):

   -13.2849 -13.2823 -13.2782 -13.2768 -13.2638 -13.2602 -13.2596 -13.2583
   -13.2512 -13.2506 -13.2392 -13.2368 -13.2333 -13.2297 -13.2150 -13.2139
   -13.2006 -13.1978 -13.1876 -13.1859  -5.0036  -4.7980  -4.5328  -4.3514
     0.3878   1.0407   1.4336   1.6071   3.3425   3.7037   4.1301   4.4458
     4.8237   5.3247   5.6522   6.0447   6.3636   6.7018   6.9835   7.4077

     occupation numbers 
     1.0000   1.0000   1.0000   1.0000   1.0000   1.0000   1.0000   1.0000
     1.0000   1.0000   1.0000   1.0000   1.0000   1.0000   1.0000   1.0000
     1.0000   1.0000   1.0000   1.0000   1.0000   1.0000   1.0000   1.0000
     1.0000   1.0000   1.0000   1.0000   1.0000   1.0000   1.0000   1.0000
     1.0000   1.0000   1.0000   1.0000   1.0000   1.0000   1.0000   1.0000

          k = 0.1667 0.8346 1.0699 ( 11209 PWs)   bands (ev):

   -13.2863 -13.2853 -13.2790 -13.2785 -13.2627 -13.2612 -13.2588 -13.2583
   -13.2505 -13.2505 -13.2368 -13.2356 -13.2322 -13.2307 -13.2142 -13.2138
   -13.1999 -13.1989 -13.1868 -13.1862  -4.8055  -4.6741  -4.5638  -4.4430
     0.5117   0.7487   1.5661   1.6210   3.3630   3.7092   3.8393   4.1989
     4.6184   4.9793   5.4229   5.8021   6.0640   6.3495   7.0774   7.1985

     occupation numbers 
     1.0000   1.0000   1.0000   1.0000   1.0000   1.0000   1.0000   1.0000
     1.0000   1.0000   1.0000   1.0000   1.0000   1.0000   1.0000   1.0000
     1.0000   1.0000   1.0000   1.0000   1.0000   1.0000   1.0000   1.0000
     1.0000   1.0000   1.0000   1.0000   1.0000   1.0000   1.0000   1.0000
     1.0000   1.0000   1.0000   1.0000   1.0000   1.0000   1.0000   1.0000

          k = 0.1667 1.1684 0.1528 ( 11202 PWs)   bands (ev):

   -13.2814 -13.2801 -13.2778 -13.2767 -13.2597 -13.2584 -13.2573 -13.2554
   -13.2486 -13.2478 -13.2449 -13.2402 -13.2321 -13.2266 -13.2235 -13.2216
   -13.1952 -13.1926 -13.1899 -13.1898  -4.8989  -4.7634  -4.5699  -4.5419
     0.2826   0.6377   0.9599   1.2522   4.2376   4.6682   5.0806   5.4450
     5.6425   5.6700   6.1048   6.4311   6.7236   6.9840   7.0296   7.2111

     occupation numbers 
     1.0000   1.0000   1.0000   1.0000   1.0000   1.0000   1.0000   1.0000
     1.0000   1.0000   1.0000   1.0000   1.0000   1.0000   1.0000   1.0000
     1.0000   1.0000   1.0000   1.0000   1.0000   1.0000   1.0000   1.0000
     1.0000   1.0000   1.0000   1.0000   1.0000   1.0000   1.0000   1.0000
     1.0000   1.0000   1.0000   1.0000   1.0000   1.0000   1.0000   1.0000

          k = 0.1667 1.1684 0.4585 ( 11219 PWs)   bands (ev):

   -13.2844 -13.2831 -13.2793 -13.2784 -13.2603 -13.2585 -13.2560 -13.2548
   -13.2481 -13.2470 -13.2435 -13.2396 -13.2315 -13.2275 -13.2216 -13.2206
   -13.1955 -13.1935 -13.1894 -13.1890  -4.8254  -4.7008  -4.5388  -4.5072
     0.4288   0.7750   1.0748   1.2814   3.9909   4.1751   4.4682   4.7472
     5.0119   5.4359   5.9587   6.1506   6.2780   6.5575   7.1408   7.3796

     occupation numbers 
     1.0000   1.0000   1.0000   1.0000   1.0000   1.0000   1.0000   1.0000
     1.0000   1.0000   1.0000   1.0000   1.0000   1.0000   1.0000   1.0000
     1.0000   1.0000   1.0000   1.0000   1.0000   1.0000   1.0000   1.0000
     1.0000   1.0000   1.0000   1.0000   1.0000   1.0000   1.0000   1.0000
     1.0000   1.0000   1.0000   1.0000   1.0000   1.0000   1.0000   1.0000

          k = 0.1667 1.1684 0.7642 ( 11220 PWs)   bands (ev):

   -13.2882 -13.2873 -13.2814 -13.2808 -13.2605 -13.2590 -13.2548 -13.2542
   -13.2472 -13.2462 -13.2416 -13.2389 -13.2302 -13.2280 -13.2196 -13.2192
   -13.1956 -13.1944 -13.1887 -13.1884  -4.7054  -4.6022  -4.5038  -4.4645
     0.6778   0.9888   1.2489   1.3168   3.3505   3.8081   3.9243   4.2066
     4.6003   4.9045   5.3190   5.7734   5.8938   6.1419   7.0276   7.1540

     occupation numbers 
     1.0000   1.0000   1.0000   1.0000   1.0000   1.0000   1.0000   1.0000
     1.0000   1.0000   1.0000   1.0000   1.0000   1.0000   1.0000   1.0000
     1.0000   1.0000   1.0000   1.0000   1.0000   1.0000   1.0000   1.0000
     1.0000   1.0000   1.0000   1.0000   1.0000   1.0000   1.0000   1.0000
     1.0000   1.0000   1.0000   1.0000   1.0000   1.0000   1.0000   1.0000

          k = 0.1667 1.1684 1.0699 ( 11225 PWs)   bands (ev):

   -13.2906 -13.2903 -13.2829 -13.2827 -13.2603 -13.2597 -13.2541 -13.2539
   -13.2464 -13.2459 -13.2399 -13.2389 -13.2289 -13.2282 -13.2184 -13.2183
   -13.1955 -13.1950 -13.1882 -13.1881  -4.5876  -4.5293  -4.4883  -4.4531
     0.9272   1.0673   1.3734   1.4126   3.1005   3.3074   3.7114   3.8261
     4.4297   4.4522   4.9735   5.3052   5.8568   6.0421   6.8658   6.9220

     occupation numbers 
     1.0000   1.0000   1.0000   1.0000   1.0000   1.0000   1.0000   1.0000
     1.0000   1.0000   1.0000   1.0000   1.0000   1.0000   1.0000   1.0000
     1.0000   1.0000   1.0000   1.0000   1.0000   1.0000   1.0000   1.0000
     1.0000   1.0000   1.0000   1.0000   1.0000   1.0000   1.0000   1.0000
     1.0000   1.0000   1.0000   1.0000   1.0000   1.0000   1.0000   1.0000

          k =-0.5000 0.1669 0.1528 ( 11246 PWs)   bands (ev):

   -13.2822 -13.2822 -13.2695 -13.2695 -13.2687 -13.2687 -13.2607 -13.2607
   -13.2508 -13.2508 -13.2494 -13.2494 -13.2317 -13.2317 -13.2088 -13.2088
   -13.2012 -13.2012 -13.1849 -13.1849  -5.6160  -5.6160  -4.3926  -4.3926
     0.9164   0.9164   2.7491   2.7491   3.9816   3.9816   4.8446   4.8446
     5.3919   5.3919   6.0098   6.0098   6.3715   6.3715   7.5003   7.5003

     occupation numbers 
     1.0000   1.0000   1.0000   1.0000   1.0000   1.0000   1.0000   1.0000
     1.0000   1.0000   1.0000   1.0000   1.0000   1.0000   1.0000   1.0000
     1.0000   1.0000   1.0000   1.0000   1.0000   1.0000   1.0000   1.0000
     1.0000   1.0000   1.0000   1.0000   1.0000   1.0000   1.0000   1.0000
     1.0000   1.0000   1.0000   1.0000   1.0000   1.0000   1.0000   1.0000

          k =-0.5000 0.1669 0.4585 ( 11226 PWs)   bands (ev):

   -13.2811 -13.2811 -13.2700 -13.2700 -13.2689 -13.2689 -13.2620 -13.2620
   -13.2502 -13.2502 -13.2469 -13.2469 -13.2321 -13.2321 -13.2085 -13.2085
   -13.2021 -13.2021 -13.1849 -13.1849  -5.5006  -5.5006  -4.4205  -4.4205
     0.6445   0.6445   2.2753   2.2753   4.2358   4.2358   4.9267   4.9267
     5.6188   5.6188   6.1658   6.1658   6.8031   6.8031   7.4181   7.4181

     occupation numbers 
     1.0000   1.0000   1.0000   1.0000   1.0000   1.0000   1.0000   1.0000
     1.0000   1.0000   1.0000   1.0000   1.0000   1.0000   1.0000   1.0000
     1.0000   1.0000   1.0000   1.0000   1.0000   1.0000   1.0000   1.0000
     1.0000   1.0000   1.0000   1.0000   1.0000   1.0000   1.0000   1.0000
     1.0000   1.0000   1.0000   1.0000   1.0000   1.0000   1.0000   1.0000

          k =-0.5000 0.1669 0.7642 ( 11200 PWs)   bands (ev):

   -13.2793 -13.2793 -13.2716 -13.2716 -13.2684 -13.2684 -13.2638 -13.2638
   -13.2494 -13.2494 -13.2429 -13.2429 -13.2331 -13.2331 -13.2078 -13.2078
   -13.2035 -13.2035 -13.1849 -13.1849  -5.2943  -5.2943  -4.5042  -4.5042
     0.3352   0.3352   1.7256   1.7256   4.5620   4.5620   5.2146   5.2146
     5.7547   5.7547   6.3653   6.3653   7.0202   7.0202   7.5619   7.5619

     occupation numbers 
     1.0000   1.0000   1.0000   1.0000   1.0000   1.0000   1.0000   1.0000
     1.0000   1.0000   1.0000   1.0000   1.0000   1.0000   1.0000   1.0000
     1.0000   1.0000   1.0000   1.0000   1.0000   1.0000   1.0000   1.0000
     1.0000   1.0000   1.0000   1.0000   1.0000   1.0000   1.0000   1.0000
     1.0000   1.0000   1.0000   1.0000   1.0000   1.0000   1.0000   1.0000

          k =-0.5000 0.1669 1.0699 ( 11196 PWs)   bands (ev):

   -13.2777 -13.2777 -13.2729 -13.2729 -13.2684 -13.2684 -13.2650 -13.2650
   -13.2489 -13.2489 -13.2391 -13.2391 -13.2346 -13.2346 -13.2069 -13.2069
   -13.2048 -13.2048 -13.1849 -13.1849  -5.0676  -5.0676  -4.6462  -4.6462
     0.1673   0.1673   1.3628   1.3628   4.9711   4.9711   5.5152   5.5152
     5.6002   5.6002   6.2234   6.2234   7.3672   7.3672   7.6582   7.6582

     occupation numbers 
     1.0000   1.0000   1.0000   1.0000   1.0000   1.0000   1.0000   1.0000
     1.0000   1.0000   1.0000   1.0000   1.0000   1.0000   1.0000   1.0000
     1.0000   1.0000   1.0000   1.0000   1.0000   1.0000   1.0000   1.0000
     1.0000   1.0000   1.0000   1.0000   1.0000   1.0000   1.0000   1.0000
     1.0000   1.0000   1.0000   1.0000   1.0000   1.0000   1.0000   1.0000

          k =-0.5000 0.5007 0.1528 ( 11234 PWs)   bands (ev):

   -13.2779 -13.2779 -13.2714 -13.2714 -13.2661 -13.2661 -13.2637 -13.2637
   -13.2518 -13.2518 -13.2461 -13.2461 -13.2314 -13.2314 -13.2100 -13.2100
   -13.2012 -13.2012 -13.1859 -13.1859  -5.4600  -5.4600  -4.3724  -4.3724
     0.7648   0.7648   2.2456   2.2456   4.1058   4.1058   4.7531   4.7531
     5.6770   5.6770   5.8799   5.8799   6.5374   6.5374   7.6232   7.6232

     occupation numbers 
     1.0000   1.0000   1.0000   1.0000   1.0000   1.0000   1.0000   1.0000
     1.0000   1.0000   1.0000   1.0000   1.0000   1.0000   1.0000   1.0000
     1.0000   1.0000   1.0000   1.0000   1.0000   1.0000   1.0000   1.0000
     1.0000   1.0000   1.0000   1.0000   1.0000   1.0000   1.0000   1.0000
     1.0000   1.0000   1.0000   1.0000   1.0000   1.0000   1.0000   1.0000

          k =-0.5000 0.5007 0.4585 ( 11220 PWs)   bands (ev):

   -13.2780 -13.2780 -13.2724 -13.2724 -13.2664 -13.2664 -13.2636 -13.2636
   -13.2515 -13.2515 -13.2437 -13.2437 -13.2318 -13.2318 -13.2098 -13.2098
   -13.2019 -13.2019 -13.1857 -13.1857  -5.3507  -5.3507  -4.3924  -4.3924
     0.6488   0.6488   2.0097   2.0097   4.0326   4.0326   4.6856   4.6856
     5.3642   5.3642   6.2918   6.2918   6.8983   6.8983   7.5284   7.5284

     occupation numbers 
     1.0000   1.0000   1.0000   1.0000   1.0000   1.0000   1.0000   1.0000
     1.0000   1.0000   1.0000   1.0000   1.0000   1.0000   1.0000   1.0000
     1.0000   1.0000   1.0000   1.0000   1.0000   1.0000   1.0000   1.0000
     1.0000   1.0000   1.0000   1.0000   1.0000   1.0000   1.0000   1.0000
     1.0000   1.0000   1.0000   1.0000   1.0000   1.0000   1.0000   1.0000

          k =-0.5000 0.5007 0.7642 ( 11196 PWs)   bands (ev):

   -13.2783 -13.2783 -13.2744 -13.2744 -13.2662 -13.2662 -13.2635 -13.2635
   -13.2512 -13.2512 -13.2400 -13.2400 -13.2325 -13.2325 -13.2095 -13.2095
   -13.2029 -13.2029 -13.1854 -13.1854  -5.1577  -5.1577  -4.4584  -4.4584
     0.4696   0.4696   1.6948   1.6948   4.0190   4.0190   4.8490   4.8490
     5.2027   5.2027   6.3989   6.3989   6.7580   6.7580   7.4783   7.4783

     occupation numbers 
     1.0000   1.0000   1.0000   1.0000   1.0000   1.0000   1.0000   1.0000
     1.0000   1.0000   1.0000   1.0000   1.0000   1.0000   1.0000   1.0000
     1.0000   1.0000   1.0000   1.0000   1.0000   1.0000   1.0000   1.0000
     1.0000   1.0000   1.0000   1.0000   1.0000   1.0000   1.0000   1.0000
     1.0000   1.0000   1.0000   1.0000   1.0000   1.0000   1.0000   1.0000

          k =-0.5000 0.5007 1.0699 ( 11182 PWs)   bands (ev):

   -13.2786 -13.2786 -13.2759 -13.2759 -13.2657 -13.2657 -13.2637 -13.2637
   -13.2510 -13.2510 -13.2364 -13.2364 -13.2339 -13.2339 -13.2093 -13.2093
   -13.2035 -13.2035 -13.1852 -13.1852  -4.9494  -4.9494  -4.5771  -4.5771
     0.3466   0.3466   1.4639   1.4639   4.2575   4.2575   4.6829   4.6829
     5.4232   5.4232   6.0476   6.0476   6.7012   6.7012   7.3154   7.3154

     occupation numbers 
     1.0000   1.0000   1.0000   1.0000   1.0000   1.0000   1.0000   1.0000
     1.0000   1.0000   1.0000   1.0000   1.0000   1.0000   1.0000   1.0000
     1.0000   1.0000   1.0000   1.0000   1.0000   1.0000   1.0000   1.0000
     1.0000   1.0000   1.0000   1.0000   1.0000   1.0000   1.0000   1.0000
     1.0000   1.0000   1.0000   1.0000   1.0000   1.0000   1.0000   1.0000

          k =-0.5000 0.8346 0.1528 ( 11206 PWs)   bands (ev):

   -13.2783 -13.2783 -13.2742 -13.2742 -13.2623 -13.2623 -13.2606 -13.2606
   -13.2517 -13.2517 -13.2425 -13.2425 -13.2313 -13.2313 -13.2157 -13.2157
   -13.1981 -13.1981 -13.1874 -13.1874  -5.1782  -5.1782  -4.3961  -4.3961
     0.5732   0.5732   1.5380   1.5380   4.3858   4.3858   4.9371   4.9371
     5.8304   5.8304   5.9925   5.9925   6.5299   6.5299   7.4623   7.4623

     occupation numbers 
     1.0000   1.0000   1.0000   1.0000   1.0000   1.0000   1.0000   1.0000
     1.0000   1.0000   1.0000   1.0000   1.0000   1.0000   1.0000   1.0000
     1.0000   1.0000   1.0000   1.0000   1.0000   1.0000   1.0000   1.0000
     1.0000   1.0000   1.0000   1.0000   1.0000   1.0000   1.0000   1.0000
     1.0000   1.0000   1.0000   1.0000   1.0000   1.0000   1.0000   1.0000

          k =-0.5000 0.8346 0.4585 ( 11222 PWs)   bands (ev):

   -13.2802 -13.2802 -13.2761 -13.2761 -13.2622 -13.2622 -13.2596 -13.2596
   -13.2514 -13.2514 -13.2408 -13.2408 -13.2312 -13.2312 -13.2155 -13.2155
   -13.1984 -13.1984 -13.1871 -13.1871  -5.0837  -5.0837  -4.3963  -4.3963
     0.6347   0.6347   1.5171   1.5171   3.9085   3.9085   4.7793   4.7793
     5.2570   5.2570   6.2355   6.2355   6.4763   6.4763   7.3700   7.3700

     occupation numbers 
     1.0000   1.0000   1.0000   1.0000   1.0000   1.0000   1.0000   1.0000
     1.0000   1.0000   1.0000   1.0000   1.0000   1.0000   1.0000   1.0000
     1.0000   1.0000   1.0000   1.0000   1.0000   1.0000   1.0000   1.0000
     1.0000   1.0000   1.0000   1.0000   1.0000   1.0000   1.0000   1.0000
     1.0000   1.0000   1.0000   1.0000   1.0000   1.0000   1.0000   1.0000

          k =-0.5000 0.8346 0.7642 ( 11222 PWs)   bands (ev):

   -13.2826 -13.2826 -13.2789 -13.2789 -13.2615 -13.2615 -13.2589 -13.2589
   -13.2510 -13.2510 -13.2385 -13.2385 -13.2309 -13.2309 -13.2153 -13.2153
   -13.1987 -13.1987 -13.1868 -13.1868  -4.9214  -4.9214  -4.4216  -4.4216
     0.6782   0.6782   1.5029   1.5029   3.5727   3.5727   4.4315   4.4315
     5.0103   5.0103   5.7260   5.7260   6.4110   6.4110   7.2646   7.2646

     occupation numbers 
     1.0000   1.0000   1.0000   1.0000   1.0000   1.0000   1.0000   1.0000
     1.0000   1.0000   1.0000   1.0000   1.0000   1.0000   1.0000   1.0000
     1.0000   1.0000   1.0000   1.0000   1.0000   1.0000   1.0000   1.0000
     1.0000   1.0000   1.0000   1.0000   1.0000   1.0000   1.0000   1.0000
     1.0000   1.0000   1.0000   1.0000   1.0000   1.0000   1.0000   1.0000

          k =-0.5000 0.8346 1.0699 ( 11192 PWs)   bands (ev):

   -13.2843 -13.2843 -13.2808 -13.2808 -13.2607 -13.2607 -13.2588 -13.2588
   -13.2507 -13.2507 -13.2371 -13.2371 -13.2304 -13.2304 -13.2150 -13.2150
   -13.1988 -13.1988 -13.1865 -13.1865  -4.7546  -4.7546  -4.4891  -4.4891
     0.6601   0.6601   1.5243   1.5243   3.5861   3.5861   3.9588   3.9588
     5.0184   5.0184   5.3371   5.3371   6.4251   6.4251   6.9522   6.9522

     occupation numbers 
     1.0000   1.0000   1.0000   1.0000   1.0000   1.0000   1.0000   1.0000
     1.0000   1.0000   1.0000   1.0000   1.0000   1.0000   1.0000   1.0000
     1.0000   1.0000   1.0000   1.0000   1.0000   1.0000   1.0000   1.0000
     1.0000   1.0000   1.0000   1.0000   1.0000   1.0000   1.0000   1.0000
     1.0000   1.0000   1.0000   1.0000   1.0000   1.0000   1.0000   1.0000

          k =-0.5000 1.1684 0.1528 ( 11212 PWs)   bands (ev):

   -13.2799 -13.2799 -13.2784 -13.2784 -13.2582 -13.2582 -13.2575 -13.2575
   -13.2476 -13.2476 -13.2427 -13.2427 -13.2289 -13.2289 -13.2230 -13.2230
   -13.1938 -13.1938 -13.1899 -13.1899  -4.8392  -4.8392  -4.5485  -4.5485
     0.5765   0.5765   0.9180   0.9180   4.8442   4.8442   5.1996   5.1996
     5.7081   5.7081   5.9640   5.9640   6.6505   6.6505   7.0441   7.0441

     occupation numbers 
     1.0000   1.0000   1.0000   1.0000   1.0000   1.0000   1.0000   1.0000
     1.0000   1.0000   1.0000   1.0000   1.0000   1.0000   1.0000   1.0000
     1.0000   1.0000   1.0000   1.0000   1.0000   1.0000   1.0000   1.0000
     1.0000   1.0000   1.0000   1.0000   1.0000   1.0000   1.0000   1.0000
     1.0000   1.0000   1.0000   1.0000   1.0000   1.0000   1.0000   1.0000

          k =-0.5000 1.1684 0.4585 ( 11218 PWs)   bands (ev):

   -13.2822 -13.2822 -13.2807 -13.2807 -13.2580 -13.2580 -13.2570 -13.2570
   -13.2470 -13.2470 -13.2420 -13.2420 -13.2280 -13.2280 -13.2223 -13.2223
   -13.1938 -13.1938 -13.1897 -13.1897  -4.7709  -4.7709  -4.5158  -4.5158
     0.7070   0.7070   1.0146   1.0146   4.1850   4.1850   4.7279   4.7279
     5.2965   5.2965   5.7392   5.7392   6.5416   6.5416   6.9843   6.9843

     occupation numbers 
     1.0000   1.0000   1.0000   1.0000   1.0000   1.0000   1.0000   1.0000
     1.0000   1.0000   1.0000   1.0000   1.0000   1.0000   1.0000   1.0000
     1.0000   1.0000   1.0000   1.0000   1.0000   1.0000   1.0000   1.0000
     1.0000   1.0000   1.0000   1.0000   1.0000   1.0000   1.0000   1.0000
     1.0000   1.0000   1.0000   1.0000   1.0000   1.0000   1.0000   1.0000

          k =-0.5000 1.1684 0.7642 ( 11206 PWs)   bands (ev):

   -13.2853 -13.2853 -13.2838 -13.2838 -13.2578 -13.2578 -13.2567 -13.2567
   -13.2461 -13.2461 -13.2412 -13.2412 -13.2267 -13.2267 -13.2213 -13.2213
   -13.1937 -13.1937 -13.1895 -13.1895  -4.6617  -4.6617  -4.4766  -4.4766
     0.8992   0.8992   1.1783   1.1783   3.6306   3.6306   4.1484   4.1484
     4.7251   4.7251   5.1890   5.1890   6.4926   6.4926   6.8684   6.8684

     occupation numbers 
     1.0000   1.0000   1.0000   1.0000   1.0000   1.0000   1.0000   1.0000
     1.0000   1.0000   1.0000   1.0000   1.0000   1.0000   1.0000   1.0000
     1.0000   1.0000   1.0000   1.0000   1.0000   1.0000   1.0000   1.0000
     1.0000   1.0000   1.0000   1.0000   1.0000   1.0000   1.0000   1.0000
     1.0000   1.0000   1.0000   1.0000   1.0000   1.0000   1.0000   1.0000

          k =-0.5000 1.1684 1.0699 ( 11208 PWs)   bands (ev):

   -13.2875 -13.2875 -13.2861 -13.2861 -13.2577 -13.2577 -13.2567 -13.2567
   -13.2454 -13.2454 -13.2406 -13.2406 -13.2256 -13.2256 -13.2205 -13.2205
   -13.1937 -13.1937 -13.1893 -13.1893  -4.5637  -4.5637  -4.4655  -4.4655
     1.0176   1.0176   1.3446   1.3446   3.4518   3.4518   3.6963   3.6963
     4.3779   4.3779   4.6564   4.6564   6.5973   6.5973   6.7876   6.7876

     occupation numbers 
     1.0000   1.0000   1.0000   1.0000   1.0000   1.0000   1.0000   1.0000
     1.0000   1.0000   1.0000   1.0000   1.0000   1.0000   1.0000   1.0000
     1.0000   1.0000   1.0000   1.0000   1.0000   1.0000   1.0000   1.0000
     1.0000   1.0000   1.0000   1.0000   1.0000   1.0000   1.0000   1.0000
     1.0000   1.0000   1.0000   1.0000   1.0000   1.0000   1.0000   1.0000

     highest occupied level (ev):     7.8940

!    total energy              =    -827.74182363 Ry
     estimated scf accuracy    <          5.7E-10 Ry

     The total energy is the sum of the following terms:
     one-electron contribution =    -258.90188958 Ry
     hartree contribution      =     179.98586897 Ry
     xc contribution           =    -309.14377962 Ry
     ewald contribution        =    -439.55922214 Ry
     DFT-D3 Dispersion         =      -0.12280126 Ry

     convergence has been achieved in  11 iterations

     Forces acting on atoms (cartesian axes, Ry/au):

     atom    1 type  2   force =     0.01327278    0.00000000    0.00137924
     atom    2 type  1   force =    -0.01350331    0.00000000   -0.00037309
     atom    3 type  2   force =    -0.01327278    0.00000000    0.00137924
     atom    4 type  1   force =     0.01350331   -0.00000000   -0.00037309
     atom    5 type  2   force =     0.01327278    0.00000000   -0.00137924
     atom    6 type  1   force =    -0.01350331    0.00000000    0.00037309
     atom    7 type  2   force =    -0.01327278   -0.00000000   -0.00137924
     atom    8 type  1   force =     0.01350331    0.00000000    0.00037309
     The non-local contrib.  to forces
     atom    1 type  2   force =    -0.10693426    0.00000000    0.11225952
     atom    2 type  1   force =     0.35363025    0.00000000    0.30443019
     atom    3 type  2   force =     0.10693426   -0.00000000    0.11225952
     atom    4 type  1   force =    -0.35363025    0.00000000    0.30443019
     atom    5 type  2   force =    -0.10693426    0.00000000   -0.11225952
     atom    6 type  1   force =     0.35363025    0.00000000   -0.30443019
     atom    7 type  2   force =     0.10693426    0.00000000   -0.11225952
     atom    8 type  1   force =    -0.35363025    0.00000000   -0.30443019
     The ionic contribution  to forces
     atom    1 type  2   force =     1.41289540   -0.00000000   -1.17343916
     atom    2 type  1   force =    -0.67325085   -0.00000000   -0.58129160
     atom    3 type  2   force =    -1.41289540   -0.00000000   -1.17343916
     atom    4 type  1   force =     0.67325085   -0.00000000   -0.58129160
     atom    5 type  2   force =     1.41289540    0.00000000    1.17343916
     atom    6 type  1   force =    -0.67325085   -0.00000000    0.58129160
     atom    7 type  2   force =    -1.41289540   -0.00000000    1.17343916
     atom    8 type  1   force =     0.67325085   -0.00000000    0.58129160
     The local contribution  to forces
     atom    1 type  2   force =    -1.30334512    0.00000000    1.07362806
     atom    2 type  1   force =     0.31143055   -0.00000000    0.28093556
     atom    3 type  2   force =     1.30334512    0.00000000    1.07362806
     atom    4 type  1   force =    -0.31143055   -0.00000000    0.28093556
     atom    5 type  2   force =    -1.30334512   -0.00000000   -1.07362806
     atom    6 type  1   force =     0.31143055    0.00000000   -0.28093556
     atom    7 type  2   force =     1.30334512   -0.00000000   -1.07362806
     atom    8 type  1   force =    -0.31143055   -0.00000000   -0.28093556
     The core correction contribution to forces
     atom    1 type  2   force =     0.01153978    0.00000000   -0.01250797
     atom    2 type  1   force =    -0.00461487    0.00000000   -0.00547149
     atom    3 type  2   force =    -0.01153978    0.00000000   -0.01250797
     atom    4 type  1   force =     0.00461487    0.00000000   -0.00547149
     atom    5 type  2   force =     0.01153978   -0.00000000    0.01250797
     atom    6 type  1   force =    -0.00461487    0.00000000    0.00547149
     atom    7 type  2   force =    -0.01153978    0.00000000    0.01250797
     atom    8 type  1   force =     0.00461487    0.00000000    0.00547149
     The Hubbard contrib.    to forces
     atom    1 type  2   force =     0.00000000    0.00000000    0.00000000
     atom    2 type  1   force =     0.00000000    0.00000000    0.00000000
     atom    3 type  2   force =     0.00000000    0.00000000    0.00000000
     atom    4 type  1   force =     0.00000000    0.00000000    0.00000000
     atom    5 type  2   force =     0.00000000    0.00000000    0.00000000
     atom    6 type  1   force =     0.00000000    0.00000000    0.00000000
     atom    7 type  2   force =     0.00000000    0.00000000    0.00000000
     atom    8 type  1   force =     0.00000000    0.00000000    0.00000000
     The SCF correction term to forces
     atom    1 type  2   force =    -0.00000295   -0.00000000    0.00000230
     atom    2 type  1   force =    -0.00000236   -0.00000000   -0.00000203
     atom    3 type  2   force =     0.00000295   -0.00000000    0.00000230
     atom    4 type  1   force =     0.00000236   -0.00000000   -0.00000203
     atom    5 type  2   force =    -0.00000295   -0.00000000   -0.00000230
     atom    6 type  1   force =    -0.00000236    0.00000000    0.00000203
     atom    7 type  2   force =     0.00000295    0.00000000   -0.00000230
     atom    8 type  1   force =     0.00000236   -0.00000000    0.00000203

     DFT-D3 dispersion contribution to forces:
     atom    1 type  2   force =    -0.00088006   -0.00000000    0.00143649
     atom    2 type  1   force =    -0.00069602   -0.00000000    0.00102629
     atom    3 type  2   force =     0.00088006   -0.00000000    0.00143649
     atom    4 type  1   force =     0.00069602    0.00000000    0.00102629
     atom    5 type  2   force =    -0.00088006    0.00000000   -0.00143649
     atom    6 type  1   force =    -0.00069602   -0.00000000   -0.00102629
     atom    7 type  2   force =     0.00088006   -0.00000000   -0.00143649
     atom    8 type  1   force =     0.00069602    0.00000000   -0.00102629

     Total force =     0.037976     Total SCF correction =     0.000010

     DFT-D3 dispersion Force =     0.004184

     Writing all to output data dir ./tmp/SnSe_pnma.save/ :
     XML data file, charge density, pseudopotentials, collected wavefunctions
 
     init_run     :      3.47s CPU      3.81s WALL (       1 calls)
     electrons    :     90.92s CPU     95.39s WALL (       1 calls)
     forces       :      1.21s CPU      1.45s WALL (       1 calls)
     force_dftd3  :      0.05s CPU      0.06s WALL (       1 calls)

     Called by init_run:
     wfcinit      :      2.31s CPU      2.38s WALL (       1 calls)
     wfcinit:atom :      0.03s CPU      0.03s WALL (      11 calls)
     wfcinit:wfcr :      2.05s CPU      2.07s WALL (      11 calls)
     potinit      :      0.27s CPU      0.33s WALL (       1 calls)
     hinit0       :      0.30s CPU      0.31s WALL (       1 calls)

     Called by electrons:
     c_bands      :     69.98s CPU     70.40s WALL (      11 calls)
     sum_band     :     14.51s CPU     16.46s WALL (      11 calls)
     v_of_rho     :      2.33s CPU      2.53s WALL (      12 calls)
     v_h          :      0.19s CPU      0.19s WALL (      12 calls)
     v_xc         :      2.31s CPU      2.53s WALL (      13 calls)
     newd         :      4.21s CPU      6.21s WALL (      12 calls)
     mix_rho      :      0.26s CPU      0.28s WALL (      11 calls)
     energy_dftd3 :      0.04s CPU      0.05s WALL (       1 calls)

     Called by c_bands:
     init_us_2    :      1.55s CPU      1.58s WALL (     264 calls)
     cegterg      :     63.93s CPU     64.14s WALL (     121 calls)

     Called by sum_band:
     sum_band:wei :      0.00s CPU      0.00s WALL (      11 calls)
     sum_band:loo :     10.05s CPU     10.10s WALL (      11 calls)
     sum_band:buf :      0.10s CPU      0.10s WALL (     121 calls)
     sum_band:ini :      0.69s CPU      0.69s WALL (     121 calls)
     sum_band:cal :      0.91s CPU      0.92s WALL (     121 calls)
     sum_band:bec :      0.01s CPU      0.01s WALL (     121 calls)
     addusdens    :      3.86s CPU      5.69s WALL (      11 calls)
                                        0.00s GPU  (      11 calls)
     addusd:skk   :      0.02s CPU      0.04s WALL (      22 calls)
                                        0.00s GPU  (      22 calls)

     Called by *egterg:
     cdiaghg      :      1.10s CPU      1.11s WALL (     645 calls)
     cegterg:over :      2.86s CPU      2.87s WALL (     524 calls)
     cegterg:upda :      1.74s CPU      1.74s WALL (     524 calls)
     cegterg:last :      4.71s CPU      4.71s WALL (     395 calls)
     h_psi        :     49.98s CPU     50.19s WALL (     656 calls)
     s_psi        :      4.05s CPU      4.05s WALL (     656 calls)
     g_psi        :      0.18s CPU      0.18s WALL (     524 calls)

     Called by h_psi:
     h_psi:calbec :      3.63s CPU      3.64s WALL (     656 calls)
     vloc_psi     :     42.00s CPU     42.18s WALL (     656 calls)
     add_vuspsi   :      4.03s CPU      4.04s WALL (     656 calls)

     General routines
     calbec       :      4.87s CPU      4.88s WALL (     821 calls)
     fft          :      1.26s CPU      1.30s WALL (     165 calls)
     ffts         :      0.03s CPU      0.04s WALL (      23 calls)
     fftw         :     26.94s CPU     27.03s WALL (   41520 calls)
     interpolate  :      0.13s CPU      0.13s WALL (      12 calls)
 
     Parallel routines
 
     PWSCF        :   1m35.89s CPU   1m42.04s WALL

 
   This run was terminated on:  20:22: 7  20May2026            

=------------------------------------------------------------------------------=
   JOB DONE.
=------------------------------------------------------------------------------=
