
     Program PWSCF v.7.3.1 starts on 20May2026 at 18:34:54 

     This program is part of the open-source Quantum ESPRESSO suite
     for quantum simulation of materials; please cite
         "P. Giannozzi et al., J. Phys.:Condens. Matter 21 395502 (2009);
         "P. Giannozzi et al., J. Phys.:Condens. Matter 29 465901 (2017);
         "P. Giannozzi et al., J. Chem. Phys. 152 154105 (2020);
          URL http://www.quantum-espresso.org", 
     in publications or presentations arising from this work. More details at
     http://www.quantum-espresso.org/quote

     Parallel version (MPI & OpenMP), running on       6 processor cores
     Number of MPI processes:                 6
     Threads/MPI process:                     1

     MPI processes distributed on     1 nodes
     6215 MiB available memory on the printing compute node when the environment starts
 
     Waiting for input...
     Reading input from standard input

     Current dimensions of program PWSCF are:
     Max number of different atomic species (ntypx) = 10
     Max number of k-points (npk) =  40000
     Max angular momentum in pseudopotentials (lmaxx) =  4
 
     K-points division:     npool     =       3
     R & G space division:  proc/nbgrp/npool/nimage =       2
     Subspace diagonalization in iterative solution of the eigenvalue problem:
     a serial algorithm will be used

 
     Parallelization info
     --------------------
     sticks:   dense  smooth     PW     G-vecs:    dense   smooth      PW
     Min        4239    1694    481               189684    47988    7238
     Max        4240    1695    482               189685    47991    7239
     Sum        8479    3389    963               379369    95979   14477
 
     Using Slab Decomposition
 


     bravais-lattice index     =            8
     lattice parameter (alat)  =      22.5255  a.u.
     unit-cell volume          =    1528.5891 (a.u.)^3
     number of atoms/cell      =            8
     number of atomic types    =            2
     number of electrons       =        80.00
     number of Kohn-Sham states=           40
     kinetic-energy cutoff     =      60.0000  Ry
     charge density cutoff     =     600.0000  Ry
     scf convergence threshold =      1.0E-08
     mixing beta               =       0.7000
     number of iterations used =            8  plain     mixing
     Exchange-correlation= SLA  PW   PBE  PBE
                           (   1   4   3   4   0   0   0)

     celldm(1)=  22.525535  celldm(2)=   0.349950  celldm(3)=   0.382173
     celldm(4)=   0.000000  celldm(5)=   0.000000  celldm(6)=   0.000000

     crystal axes: (cart. coord. in units of alat)
               a(1) = (   1.000000   0.000000   0.000000 )  
               a(2) = (   0.000000   0.349950   0.000000 )  
               a(3) = (   0.000000   0.000000   0.382173 )  

     reciprocal axes: (cart. coord. in units 2 pi/alat)
               b(1) = (  1.000000  0.000000  0.000000 )  
               b(2) = (  0.000000  2.857554  0.000000 )  
               b(3) = (  0.000000  0.000000  2.616617 )  


     PseudoPot. # 1 for Sn read from file:
     ../pseudo/Sn_pbe_v1.uspp.F.UPF
     MD5 check sum: 4cf58ce39ec5d5d420df3dd08604eb00
     Pseudo is Ultrasoft + core correction, Zval = 14.0
     Generated by new atomic code, or converted to UPF format
     Using radial grid of  891 points,  6 beta functions with: 
                l(1) =   0
                l(2) =   0
                l(3) =   1
                l(4) =   1
                l(5) =   2
                l(6) =   2
     Q(r) pseudized with  6 coefficients,  rinner =    1.200   1.200   1.200
                                                       1.200   1.200

     PseudoPot. # 2 for Se read from file:
     ../pseudo/Se_pbe_v1.uspp.F.UPF
     MD5 check sum: 1b3568f3a8ae88f9a2a0ad0698632c85
     Pseudo is Ultrasoft + core correction, Zval =  6.0
     Generated by new atomic code, or converted to UPF format
     Using radial grid of  877 points,  6 beta functions with: 
                l(1) =   0
                l(2) =   0
                l(3) =   1
                l(4) =   1
                l(5) =   2
                l(6) =   2
     Q(r) pseudized with  8 coefficients,  rinner =    1.300   1.300   1.300
                                                       1.300   1.300

     atomic species   valence    mass     pseudopotential
     Sn               14.00   118.71000     Sn( 1.00)
     Se                6.00    78.97100     Se( 1.00)

      8 Sym. Ops., with inversion, found ( 6 have fractional translation)


                                    s                        frac. trans.

      isym =  1     identity                                     

 cryst.   s( 1) = (     1          0          0      )
                  (     0          1          0      )
                  (     0          0          1      )

 cart.    s( 1) = (  1.0000000  0.0000000  0.0000000 )
                  (  0.0000000  1.0000000  0.0000000 )
                  (  0.0000000  0.0000000  1.0000000 )


      isym =  2     180 deg rotation - cart. axis [0,0,1]        

 cryst.   s( 2) = (    -1          0          0      )    f =(  0.5000000 )
                  (     0         -1          0      )       ( -0.0000000 )
                  (     0          0          1      )       ( -0.5000000 )

 cart.    s( 2) = ( -1.0000000  0.0000000  0.0000000 )    f =(  0.5000000 )
                  (  0.0000000 -1.0000000  0.0000000 )       ( -0.0000000 )
                  (  0.0000000  0.0000000  1.0000000 )       ( -0.1910864 )


      isym =  3     180 deg rotation - cart. axis [0,1,0]        

 cryst.   s( 3) = (    -1          0          0      )    f =(  0.0000000 )
                  (     0          1          0      )       ( -0.5000000 )
                  (     0          0         -1      )       (  0.0000000 )

 cart.    s( 3) = ( -1.0000000  0.0000000  0.0000000 )    f =(  0.0000000 )
                  (  0.0000000  1.0000000  0.0000000 )       ( -0.1749748 )
                  (  0.0000000  0.0000000 -1.0000000 )       (  0.0000000 )


      isym =  4     180 deg rotation - cart. axis [1,0,0]        

 cryst.   s( 4) = (     1          0          0      )    f =(  0.5000000 )
                  (     0         -1          0      )       (  0.5000000 )
                  (     0          0         -1      )       (  0.5000000 )

 cart.    s( 4) = (  1.0000000  0.0000000  0.0000000 )    f =(  0.5000000 )
                  (  0.0000000 -1.0000000  0.0000000 )       (  0.1749748 )
                  (  0.0000000  0.0000000 -1.0000000 )       (  0.1910864 )


      isym =  5     inversion                                    

 cryst.   s( 5) = (    -1          0          0      )
                  (     0         -1          0      )
                  (     0          0         -1      )

 cart.    s( 5) = ( -1.0000000  0.0000000  0.0000000 )
                  (  0.0000000 -1.0000000  0.0000000 )
                  (  0.0000000  0.0000000 -1.0000000 )


      isym =  6     inv. 180 deg rotation - cart. axis [0,0,1]   

 cryst.   s( 6) = (     1          0          0      )    f =(  0.5000000 )
                  (     0          1          0      )       (  0.0000000 )
                  (     0          0         -1      )       (  0.5000000 )

 cart.    s( 6) = (  1.0000000  0.0000000  0.0000000 )    f =(  0.5000000 )
                  (  0.0000000  1.0000000  0.0000000 )       (  0.0000000 )
                  (  0.0000000  0.0000000 -1.0000000 )       (  0.1910864 )


      isym =  7     inv. 180 deg rotation - cart. axis [0,1,0]   

 cryst.   s( 7) = (     1          0          0      )    f =(  0.0000000 )
                  (     0         -1          0      )       (  0.5000000 )
                  (     0          0          1      )       (  0.0000000 )

 cart.    s( 7) = (  1.0000000  0.0000000  0.0000000 )    f =(  0.0000000 )
                  (  0.0000000 -1.0000000  0.0000000 )       (  0.1749748 )
                  (  0.0000000  0.0000000  1.0000000 )       (  0.0000000 )


      isym =  8     inv. 180 deg rotation - cart. axis [1,0,0]   

 cryst.   s( 8) = (    -1          0          0      )    f =(  0.5000000 )
                  (     0          1          0      )       ( -0.5000000 )
                  (     0          0          1      )       ( -0.5000000 )

 cart.    s( 8) = ( -1.0000000  0.0000000  0.0000000 )    f =(  0.5000000 )
                  (  0.0000000  1.0000000  0.0000000 )       ( -0.1749748 )
                  (  0.0000000  0.0000000  1.0000000 )       ( -0.1910864 )


     point group D_2h (mmm) 
     there are  8 classes
     the character table:

       E     C2    C2'   C2''  i     s_v   s_v'  s_v''
A_g    1.00  1.00  1.00  1.00  1.00  1.00  1.00  1.00
B_1g   1.00  1.00 -1.00 -1.00  1.00  1.00 -1.00 -1.00
B_2g   1.00 -1.00  1.00 -1.00  1.00 -1.00  1.00 -1.00
B_3g   1.00 -1.00 -1.00  1.00  1.00 -1.00 -1.00  1.00
A_u    1.00  1.00  1.00  1.00 -1.00 -1.00 -1.00 -1.00
B_1u   1.00  1.00 -1.00 -1.00 -1.00 -1.00  1.00  1.00
B_2u   1.00 -1.00  1.00 -1.00 -1.00  1.00 -1.00  1.00
B_3u   1.00 -1.00 -1.00  1.00 -1.00  1.00  1.00 -1.00

     the symmetry operations in each class and the name of the first element:

     E        1
          identity                                               
     C2       2
          180 deg rotation - cart. axis [0,0,1]                  
     C2'      4
          180 deg rotation - cart. axis [1,0,0]                  
     C2''     3
          180 deg rotation - cart. axis [0,1,0]                  
     i        5
          inversion                                              
     s_v      6
          inv. 180 deg rotation - cart. axis [0,0,1]             
     s_v'     8
          inv. 180 deg rotation - cart. axis [1,0,0]             
     s_v''    7
          inv. 180 deg rotation - cart. axis [0,1,0]             

   Cartesian axes

     site n.     atom                  positions (alat units)
         1        Se     tau(   1) = (   0.8549563   0.0874874   0.1846843  )
         2        Sn     tau(   2) = (   0.1165395   0.0874874   0.0429130  )
         3        Se     tau(   3) = (   0.6450437   0.2624622   0.3757707  )
         4        Sn     tau(   4) = (   0.3834605   0.2624622   0.2339995  )
         5        Se     tau(   5) = (   0.3549563   0.0874874   0.0064021  )
         6        Sn     tau(   6) = (   0.6165395   0.0874874   0.1481734  )
         7        Se     tau(   7) = (   0.1450437   0.2624622   0.1974885  )
         8        Sn     tau(   8) = (   0.8834605   0.2624622   0.3392598  )

     --------------------------------------------
     DFT-D3 Dispersion Correction (3-body terms):
     --------------------------------------------
       Reference C6 values for interpolation: 

         atom   Coordination number   C6
         Se         0.000           427.35
         Se         0.990           427.57
         Se         1.981           421.05
         Sn         0.000          1255.14
         Sn         0.951          1084.09
         Sn         1.950          1010.83
         Sn         2.926           818.29
         Sn         3.912           672.20

       Values used:

         atom   Coordination number  R0_AB[au]  C6      C8
         Se         3.271            3.332    421.05  29958.36
         Sn         3.855            3.957    676.43  84899.77
         Se         3.271            3.332    421.05  29958.36
         Sn         3.855            3.957    676.43  84899.77
         Se         3.271            3.332    421.05  29958.36
         Sn         3.855            3.957    676.43  84899.77
         Se         3.271            3.332    421.05  29958.36
         Sn         3.855            3.957    676.43  84899.77

         Molecular C6 ( Ry / a.u.^6 ) =     34616.16


   Crystallographic axes

     site n.     atom                  positions (cryst. coord.)
         1        Se     tau(   1) = (  0.8549563  0.2500000  0.4832481  )
         2        Sn     tau(   2) = (  0.1165395  0.2500000  0.1122870  )
         3        Se     tau(   3) = (  0.6450437  0.7500000  0.9832481  )
         4        Sn     tau(   4) = (  0.3834605  0.7500000  0.6122870  )
         5        Se     tau(   5) = (  0.3549563  0.2500000  0.0167519  )
         6        Sn     tau(   6) = (  0.6165395  0.2500000  0.3877130  )
         7        Se     tau(   7) = (  0.1450437  0.7500000  0.5167519  )
         8        Sn     tau(   8) = (  0.8834605  0.7500000  0.8877130  )

     number of k points=    32
                       cart. coord. in units 2pi/alat
        k(    1) = (   0.1666667   0.1785971   0.1635386), wk =   0.0833333
        k(    2) = (   0.1666667   0.1785971   0.4906157), wk =   0.0833333
        k(    3) = (   0.1666667   0.1785971   0.8176929), wk =   0.0833333
        k(    4) = (   0.1666667   0.1785971   1.1447701), wk =   0.0833333
        k(    5) = (   0.1666667   0.5357913   0.1635386), wk =   0.0833333
        k(    6) = (   0.1666667   0.5357913   0.4906157), wk =   0.0833333
        k(    7) = (   0.1666667   0.5357913   0.8176929), wk =   0.0833333
        k(    8) = (   0.1666667   0.5357913   1.1447701), wk =   0.0833333
        k(    9) = (   0.1666667   0.8929856   0.1635386), wk =   0.0833333
        k(   10) = (   0.1666667   0.8929856   0.4906157), wk =   0.0833333
        k(   11) = (   0.1666667   0.8929856   0.8176929), wk =   0.0833333
        k(   12) = (   0.1666667   0.8929856   1.1447701), wk =   0.0833333
        k(   13) = (   0.1666667   1.2501798   0.1635386), wk =   0.0833333
        k(   14) = (   0.1666667   1.2501798   0.4906157), wk =   0.0833333
        k(   15) = (   0.1666667   1.2501798   0.8176929), wk =   0.0833333
        k(   16) = (   0.1666667   1.2501798   1.1447701), wk =   0.0833333
        k(   17) = (  -0.5000000   0.1785971   0.1635386), wk =   0.0416667
        k(   18) = (  -0.5000000   0.1785971   0.4906157), wk =   0.0416667
        k(   19) = (  -0.5000000   0.1785971   0.8176929), wk =   0.0416667
        k(   20) = (  -0.5000000   0.1785971   1.1447701), wk =   0.0416667
        k(   21) = (  -0.5000000   0.5357913   0.1635386), wk =   0.0416667
        k(   22) = (  -0.5000000   0.5357913   0.4906157), wk =   0.0416667
        k(   23) = (  -0.5000000   0.5357913   0.8176929), wk =   0.0416667
        k(   24) = (  -0.5000000   0.5357913   1.1447701), wk =   0.0416667
        k(   25) = (  -0.5000000   0.8929856   0.1635386), wk =   0.0416667
        k(   26) = (  -0.5000000   0.8929856   0.4906157), wk =   0.0416667
        k(   27) = (  -0.5000000   0.8929856   0.8176929), wk =   0.0416667
        k(   28) = (  -0.5000000   0.8929856   1.1447701), wk =   0.0416667
        k(   29) = (  -0.5000000   1.2501798   0.1635386), wk =   0.0416667
        k(   30) = (  -0.5000000   1.2501798   0.4906157), wk =   0.0416667
        k(   31) = (  -0.5000000   1.2501798   0.8176929), wk =   0.0416667
        k(   32) = (  -0.5000000   1.2501798   1.1447701), wk =   0.0416667

                       cryst. coord.
        k(    1) = (   0.1666667   0.0625000   0.0625000), wk =   0.0833333
        k(    2) = (   0.1666667   0.0625000   0.1875000), wk =   0.0833333
        k(    3) = (   0.1666667   0.0625000   0.3125000), wk =   0.0833333
        k(    4) = (   0.1666667   0.0625000   0.4375000), wk =   0.0833333
        k(    5) = (   0.1666667   0.1875000   0.0625000), wk =   0.0833333
        k(    6) = (   0.1666667   0.1875000   0.1875000), wk =   0.0833333
        k(    7) = (   0.1666667   0.1875000   0.3125000), wk =   0.0833333
        k(    8) = (   0.1666667   0.1875000   0.4375000), wk =   0.0833333
        k(    9) = (   0.1666667   0.3125000   0.0625000), wk =   0.0833333
        k(   10) = (   0.1666667   0.3125000   0.1875000), wk =   0.0833333
        k(   11) = (   0.1666667   0.3125000   0.3125000), wk =   0.0833333
        k(   12) = (   0.1666667   0.3125000   0.4375000), wk =   0.0833333
        k(   13) = (   0.1666667   0.4375000   0.0625000), wk =   0.0833333
        k(   14) = (   0.1666667   0.4375000   0.1875000), wk =   0.0833333
        k(   15) = (   0.1666667   0.4375000   0.3125000), wk =   0.0833333
        k(   16) = (   0.1666667   0.4375000   0.4375000), wk =   0.0833333
        k(   17) = (  -0.5000000   0.0625000   0.0625000), wk =   0.0416667
        k(   18) = (  -0.5000000   0.0625000   0.1875000), wk =   0.0416667
        k(   19) = (  -0.5000000   0.0625000   0.3125000), wk =   0.0416667
        k(   20) = (  -0.5000000   0.0625000   0.4375000), wk =   0.0416667
        k(   21) = (  -0.5000000   0.1875000   0.0625000), wk =   0.0416667
        k(   22) = (  -0.5000000   0.1875000   0.1875000), wk =   0.0416667
        k(   23) = (  -0.5000000   0.1875000   0.3125000), wk =   0.0416667
        k(   24) = (  -0.5000000   0.1875000   0.4375000), wk =   0.0416667
        k(   25) = (  -0.5000000   0.3125000   0.0625000), wk =   0.0416667
        k(   26) = (  -0.5000000   0.3125000   0.1875000), wk =   0.0416667
        k(   27) = (  -0.5000000   0.3125000   0.3125000), wk =   0.0416667
        k(   28) = (  -0.5000000   0.3125000   0.4375000), wk =   0.0416667
        k(   29) = (  -0.5000000   0.4375000   0.0625000), wk =   0.0416667
        k(   30) = (  -0.5000000   0.4375000   0.1875000), wk =   0.0416667
        k(   31) = (  -0.5000000   0.4375000   0.3125000), wk =   0.0416667
        k(   32) = (  -0.5000000   0.4375000   0.4375000), wk =   0.0416667

     Dense  grid:   379369 G-vectors     FFT dimensions: ( 180,  64,  72)

     Smooth grid:    95979 G-vectors     FFT dimensions: ( 120,  40,  48)

     Dynamical RAM for                 wfc:       3.66 MB

     Dynamical RAM for     wfc (w. buffer):      43.93 MB

     Dynamical RAM for           str. fact:       5.79 MB

     Dynamical RAM for           local pot:       0.00 MB

     Dynamical RAM for          nlocal pot:      13.18 MB

     Dynamical RAM for                qrad:       3.93 MB

     Dynamical RAM for          rho,v,vnew:      18.18 MB

     Dynamical RAM for               rhoin:       6.06 MB

     Dynamical RAM for            rho*nmix:      46.31 MB

     Dynamical RAM for           G-vectors:      11.22 MB

     Dynamical RAM for          h,s,v(r/c):       0.29 MB

     Dynamical RAM for          <psi|beta>:       0.09 MB

     Dynamical RAM for                 psi:       7.32 MB

     Dynamical RAM for                hpsi:       7.32 MB

     Dynamical RAM for                spsi:       7.32 MB

     Dynamical RAM for      wfcinit/wfcrot:       9.58 MB

     Dynamical RAM for           addusdens:     185.24 MB

     Dynamical RAM for          addusforce:     190.56 MB

     Estimated static dynamical RAM per process >     126.79 MB

     Estimated max dynamical RAM per process >     363.66 MB

     Estimated total dynamical RAM >       1.95 GB

     Initial potential from superposition of free atoms

     starting charge      75.9995, renormalised to      80.0000
     Starting wfcs are   52 randomized atomic wfcs

     total cpu time spent up to now is        4.1 secs

     Self-consistent Calculation

     iteration #  1     ecut=    60.00 Ry     beta= 0.70
     Davidson diagonalization with overlap

---- Real-time Memory Report at c_bands before calling an iterative solver
           403 MiB given to the printing process from OS
             0 MiB allocation reported by mallinfo(arena+hblkhd)
          4995 MiB available memory on the node where the printing process lives
------------------
     ethr =  1.00E-02,  avg # of iterations =  2.0

     total cpu time spent up to now is       12.0 secs

     total energy              =    -826.61498747 Ry
     estimated scf accuracy    <       2.71820751 Ry

     iteration #  2     ecut=    60.00 Ry     beta= 0.70
     Davidson diagonalization with overlap

---- Real-time Memory Report at c_bands before calling an iterative solver
           508 MiB given to the printing process from OS
             0 MiB allocation reported by mallinfo(arena+hblkhd)
          4707 MiB available memory on the node where the printing process lives
------------------
     ethr =  3.40E-03,  avg # of iterations =  3.0

     total cpu time spent up to now is       20.8 secs

     total energy              =    -827.51804942 Ry
     estimated scf accuracy    <       1.06652292 Ry

     iteration #  3     ecut=    60.00 Ry     beta= 0.70
     Davidson diagonalization with overlap

---- Real-time Memory Report at c_bands before calling an iterative solver
           545 MiB given to the printing process from OS
             0 MiB allocation reported by mallinfo(arena+hblkhd)
          4681 MiB available memory on the node where the printing process lives
------------------
     ethr =  1.33E-03,  avg # of iterations =  2.8

     total cpu time spent up to now is       28.6 secs

     total energy              =    -827.73709056 Ry
     estimated scf accuracy    <       0.01269091 Ry

     iteration #  4     ecut=    60.00 Ry     beta= 0.70
     Davidson diagonalization with overlap

---- Real-time Memory Report at c_bands before calling an iterative solver
           550 MiB given to the printing process from OS
             0 MiB allocation reported by mallinfo(arena+hblkhd)
          4541 MiB available memory on the node where the printing process lives
------------------
     ethr =  1.59E-05,  avg # of iterations =  4.9

     total cpu time spent up to now is       38.6 secs

     total energy              =    -827.74471450 Ry
     estimated scf accuracy    <       0.00571371 Ry

     iteration #  5     ecut=    60.00 Ry     beta= 0.70
     Davidson diagonalization with overlap

---- Real-time Memory Report at c_bands before calling an iterative solver
           555 MiB given to the printing process from OS
             0 MiB allocation reported by mallinfo(arena+hblkhd)
          4524 MiB available memory on the node where the printing process lives
------------------
     ethr =  7.14E-06,  avg # of iterations =  2.6

     total cpu time spent up to now is       46.1 secs

     total energy              =    -827.74591761 Ry
     estimated scf accuracy    <       0.00054684 Ry

     iteration #  6     ecut=    60.00 Ry     beta= 0.70
     Davidson diagonalization with overlap

---- Real-time Memory Report at c_bands before calling an iterative solver
           558 MiB given to the printing process from OS
             0 MiB allocation reported by mallinfo(arena+hblkhd)
          4519 MiB available memory on the node where the printing process lives
------------------
     ethr =  6.84E-07,  avg # of iterations =  4.4

     total cpu time spent up to now is       55.1 secs

     total energy              =    -827.74592864 Ry
     estimated scf accuracy    <       0.00098220 Ry

     iteration #  7     ecut=    60.00 Ry     beta= 0.70
     Davidson diagonalization with overlap

---- Real-time Memory Report at c_bands before calling an iterative solver
           560 MiB given to the printing process from OS
             0 MiB allocation reported by mallinfo(arena+hblkhd)
          4559 MiB available memory on the node where the printing process lives
------------------
     ethr =  6.84E-07,  avg # of iterations =  3.0

     total cpu time spent up to now is       62.9 secs

     total energy              =    -827.74606999 Ry
     estimated scf accuracy    <       0.00001996 Ry

     iteration #  8     ecut=    60.00 Ry     beta= 0.70
     Davidson diagonalization with overlap

---- Real-time Memory Report at c_bands before calling an iterative solver
           562 MiB given to the printing process from OS
             0 MiB allocation reported by mallinfo(arena+hblkhd)
          4515 MiB available memory on the node where the printing process lives
------------------
     ethr =  2.50E-08,  avg # of iterations =  5.1

     total cpu time spent up to now is       72.7 secs

     total energy              =    -827.74608589 Ry
     estimated scf accuracy    <       0.00001740 Ry

     iteration #  9     ecut=    60.00 Ry     beta= 0.70
     Davidson diagonalization with overlap

---- Real-time Memory Report at c_bands before calling an iterative solver
           565 MiB given to the printing process from OS
             0 MiB allocation reported by mallinfo(arena+hblkhd)
          4505 MiB available memory on the node where the printing process lives
------------------
     ethr =  2.18E-08,  avg # of iterations =  2.1

     total cpu time spent up to now is       80.0 secs

     total energy              =    -827.74608789 Ry
     estimated scf accuracy    <       0.00000101 Ry

     iteration # 10     ecut=    60.00 Ry     beta= 0.70
     Davidson diagonalization with overlap

---- Real-time Memory Report at c_bands before calling an iterative solver
           567 MiB given to the printing process from OS
             0 MiB allocation reported by mallinfo(arena+hblkhd)
          4503 MiB available memory on the node where the printing process lives
------------------
     ethr =  1.26E-09,  avg # of iterations =  5.4

     total cpu time spent up to now is       92.0 secs

     total energy              =    -827.74608878 Ry
     estimated scf accuracy    <       0.00000018 Ry

     iteration # 11     ecut=    60.00 Ry     beta= 0.70
     Davidson diagonalization with overlap

---- Real-time Memory Report at c_bands before calling an iterative solver
           569 MiB given to the printing process from OS
             0 MiB allocation reported by mallinfo(arena+hblkhd)
          4500 MiB available memory on the node where the printing process lives
------------------
     ethr =  2.20E-10,  avg # of iterations =  2.9

     total cpu time spent up to now is      100.0 secs

     total energy              =    -827.74608878 Ry
     estimated scf accuracy    <       0.00000006 Ry

     iteration # 12     ecut=    60.00 Ry     beta= 0.70
     Davidson diagonalization with overlap

---- Real-time Memory Report at c_bands before calling an iterative solver
           570 MiB given to the printing process from OS
             0 MiB allocation reported by mallinfo(arena+hblkhd)
          4500 MiB available memory on the node where the printing process lives
------------------
     ethr =  7.29E-11,  avg # of iterations =  3.6

     total cpu time spent up to now is      108.1 secs

     End of self-consistent calculation

          k = 0.1667 0.1786 0.1635 ( 12030 PWs)   bands (ev):

   -14.1710 -14.1630 -14.1591 -14.1555 -14.1522 -14.1511 -14.1508 -14.1498
   -14.1402 -14.1358 -14.1345 -14.1331 -14.1295 -14.1261 -14.1115 -14.1073
   -14.1048 -14.1015 -14.0966 -14.0927  -6.1936  -5.9497  -5.3451  -5.0223
     0.1740   0.9277   1.6276   2.0464   2.7903   3.9625   4.1261   4.3647
     4.5868   4.6311   5.1385   5.4105   5.6239   5.9162   6.4861   6.7704

     occupation numbers 
     1.0000   1.0000   1.0000   1.0000   1.0000   1.0000   1.0000   1.0000
     1.0000   1.0000   1.0000   1.0000   1.0000   1.0000   1.0000   1.0000
     1.0000   1.0000   1.0000   1.0000   1.0000   1.0000   1.0000   1.0000
     1.0000   1.0000   1.0000   1.0000   1.0000   1.0000   1.0000   1.0000
     1.0000   1.0000   1.0000   1.0000   1.0000   1.0000   1.0000   1.0000

          k = 0.1667 0.1786 0.4906 ( 12005 PWs)   bands (ev):

   -14.1699 -14.1628 -14.1592 -14.1557 -14.1531 -14.1519 -14.1509 -14.1499
   -14.1386 -14.1357 -14.1350 -14.1317 -14.1286 -14.1248 -14.1117 -14.1078
   -14.1047 -14.1017 -14.0964 -14.0931  -6.0840  -5.8497  -5.3331  -5.0407
    -0.1506   0.6334   1.1539   1.6874   2.8718   4.0254   4.2341   4.6715
     4.9127   5.1535   5.1593   5.5151   5.9610   6.2658   6.4418   6.7369

     occupation numbers 
     1.0000   1.0000   1.0000   1.0000   1.0000   1.0000   1.0000   1.0000
     1.0000   1.0000   1.0000   1.0000   1.0000   1.0000   1.0000   1.0000
     1.0000   1.0000   1.0000   1.0000   1.0000   1.0000   1.0000   1.0000
     1.0000   1.0000   1.0000   1.0000   1.0000   1.0000   1.0000   1.0000
     1.0000   1.0000   1.0000   1.0000   1.0000   1.0000   1.0000   1.0000

          k = 0.1667 0.1786 0.8177 ( 12006 PWs)   bands (ev):

   -14.1680 -14.1628 -14.1592 -14.1566 -14.1540 -14.1534 -14.1509 -14.1502
   -14.1372 -14.1357 -14.1345 -14.1305 -14.1261 -14.1230 -14.1118 -14.1090
   -14.1041 -14.1021 -14.0960 -14.0938  -5.8894  -5.6733  -5.3472  -5.1029
    -0.4846   0.1210   0.7254   1.1909   3.1676   4.2574   4.4655   4.9964
     5.0896   5.3033   5.5085   5.7029   6.1182   6.5678   6.6116   6.9827

     occupation numbers 
     1.0000   1.0000   1.0000   1.0000   1.0000   1.0000   1.0000   1.0000
     1.0000   1.0000   1.0000   1.0000   1.0000   1.0000   1.0000   1.0000
     1.0000   1.0000   1.0000   1.0000   1.0000   1.0000   1.0000   1.0000
     1.0000   1.0000   1.0000   1.0000   1.0000   1.0000   1.0000   1.0000
     1.0000   1.0000   1.0000   1.0000   1.0000   1.0000   1.0000   1.0000

          k = 0.1667 0.1786 1.1448 ( 11977 PWs)   bands (ev):

   -14.1658 -14.1638 -14.1587 -14.1578 -14.1545 -14.1544 -14.1508 -14.1506
   -14.1369 -14.1365 -14.1322 -14.1307 -14.1234 -14.1223 -14.1113 -14.1103
   -14.1033 -14.1027 -14.0954 -14.0946  -5.6630  -5.5142  -5.3889  -5.2336
    -0.5826  -0.3583   0.5991   0.7769   3.6402   4.1566   4.8189   5.0393
     5.2335   5.3284   5.5126   5.8359   6.4041   6.7511   6.8921   6.9787

     occupation numbers 
     1.0000   1.0000   1.0000   1.0000   1.0000   1.0000   1.0000   1.0000
     1.0000   1.0000   1.0000   1.0000   1.0000   1.0000   1.0000   1.0000
     1.0000   1.0000   1.0000   1.0000   1.0000   1.0000   1.0000   1.0000
     1.0000   1.0000   1.0000   1.0000   1.0000   1.0000   1.0000   1.0000
     1.0000   1.0000   1.0000   1.0000   1.0000   1.0000   1.0000   1.0000

          k = 0.1667 0.5358 0.1635 ( 12018 PWs)   bands (ev):

   -14.1656 -14.1603 -14.1556 -14.1553 -14.1525 -14.1525 -14.1517 -14.1512
   -14.1407 -14.1389 -14.1386 -14.1323 -14.1278 -14.1232 -14.1088 -14.1073
   -14.1046 -14.1043 -14.0962 -14.0933  -6.0390  -5.8150  -5.2719  -4.9987
     0.0077   0.6531   1.3145   1.4475   2.9036   3.8618   4.1353   4.3948
     4.7190   4.9487   5.1420   5.4379   5.7436   6.3007   6.5396   6.6561

     occupation numbers 
     1.0000   1.0000   1.0000   1.0000   1.0000   1.0000   1.0000   1.0000
     1.0000   1.0000   1.0000   1.0000   1.0000   1.0000   1.0000   1.0000
     1.0000   1.0000   1.0000   1.0000   1.0000   1.0000   1.0000   1.0000
     1.0000   1.0000   1.0000   1.0000   1.0000   1.0000   1.0000   1.0000
     1.0000   1.0000   1.0000   1.0000   1.0000   1.0000   1.0000   1.0000

          k = 0.1667 0.5358 0.4906 ( 12000 PWs)   bands (ev):

   -14.1652 -14.1602 -14.1569 -14.1560 -14.1531 -14.1529 -14.1515 -14.1512
   -14.1411 -14.1390 -14.1368 -14.1317 -14.1263 -14.1222 -14.1091 -14.1068
   -14.1052 -14.1045 -14.0960 -14.0936  -5.9351  -5.7209  -5.2584  -5.0099
    -0.1568   0.5614   1.0001   1.3487   3.0341   3.4648   3.7158   4.4009
     4.6086   5.1403   5.4919   5.5755   6.2139   6.3247   6.5625   6.7326

     occupation numbers 
     1.0000   1.0000   1.0000   1.0000   1.0000   1.0000   1.0000   1.0000
     1.0000   1.0000   1.0000   1.0000   1.0000   1.0000   1.0000   1.0000
     1.0000   1.0000   1.0000   1.0000   1.0000   1.0000   1.0000   1.0000
     1.0000   1.0000   1.0000   1.0000   1.0000   1.0000   1.0000   1.0000
     1.0000   1.0000   1.0000   1.0000   1.0000   1.0000   1.0000   1.0000

          k = 0.1667 0.5358 0.8177 ( 11987 PWs)   bands (ev):

   -14.1644 -14.1600 -14.1592 -14.1570 -14.1537 -14.1536 -14.1516 -14.1512
   -14.1409 -14.1395 -14.1345 -14.1310 -14.1236 -14.1207 -14.1091 -14.1067
   -14.1058 -14.1046 -14.0957 -14.0941  -5.7526  -5.5570  -5.2667  -5.0567
    -0.3520   0.2226   0.7547   1.1110   3.2913   3.4155   3.6639   4.3534
     4.4393   5.2157   5.3064   5.8676   6.0701   6.2909   6.4767   6.7050

     occupation numbers 
     1.0000   1.0000   1.0000   1.0000   1.0000   1.0000   1.0000   1.0000
     1.0000   1.0000   1.0000   1.0000   1.0000   1.0000   1.0000   1.0000
     1.0000   1.0000   1.0000   1.0000   1.0000   1.0000   1.0000   1.0000
     1.0000   1.0000   1.0000   1.0000   1.0000   1.0000   1.0000   1.0000
     1.0000   1.0000   1.0000   1.0000   1.0000   1.0000   1.0000   1.0000

          k = 0.1667 0.5358 1.1448 ( 11978 PWs)   bands (ev):

   -14.1633 -14.1616 -14.1592 -14.1582 -14.1541 -14.1541 -14.1517 -14.1515
   -14.1404 -14.1400 -14.1323 -14.1311 -14.1211 -14.1201 -14.1087 -14.1078
   -14.1052 -14.1047 -14.0952 -14.0946  -5.5445  -5.4112  -5.3006  -5.1650
    -0.3938  -0.1832   0.7114   0.8500   3.6033   3.6566   3.8954   4.1456
     4.3967   4.7486   5.3603   5.6471   5.9574   6.1865   6.4136   6.5866

     occupation numbers 
     1.0000   1.0000   1.0000   1.0000   1.0000   1.0000   1.0000   1.0000
     1.0000   1.0000   1.0000   1.0000   1.0000   1.0000   1.0000   1.0000
     1.0000   1.0000   1.0000   1.0000   1.0000   1.0000   1.0000   1.0000
     1.0000   1.0000   1.0000   1.0000   1.0000   1.0000   1.0000   1.0000
     1.0000   1.0000   1.0000   1.0000   1.0000   1.0000   1.0000   1.0000

          k = 0.1667 0.8930 0.1635 ( 11994 PWs)   bands (ev):

   -14.1612 -14.1590 -14.1569 -14.1565 -14.1545 -14.1497 -14.1488 -14.1484
   -14.1429 -14.1420 -14.1404 -14.1336 -14.1243 -14.1201 -14.1105 -14.1103
   -14.1041 -14.1010 -14.0951 -14.0939  -5.7611  -5.5833  -5.1848  -5.0135
    -0.2265   0.2830   0.6264   0.8356   3.2363   3.9842   4.3320   4.6022
     5.0167   5.0763   5.3069   5.4862   5.8997   6.3290   6.4142   6.7231

     occupation numbers 
     1.0000   1.0000   1.0000   1.0000   1.0000   1.0000   1.0000   1.0000
     1.0000   1.0000   1.0000   1.0000   1.0000   1.0000   1.0000   1.0000
     1.0000   1.0000   1.0000   1.0000   1.0000   1.0000   1.0000   1.0000
     1.0000   1.0000   1.0000   1.0000   1.0000   1.0000   1.0000   1.0000
     1.0000   1.0000   1.0000   1.0000   1.0000   1.0000   1.0000   1.0000

          k = 0.1667 0.8930 0.4906 ( 12006 PWs)   bands (ev):

   -14.1633 -14.1603 -14.1580 -14.1569 -14.1551 -14.1501 -14.1485 -14.1479
   -14.1430 -14.1421 -14.1383 -14.1333 -14.1229 -14.1193 -14.1100 -14.1097
   -14.1042 -14.1016 -14.0951 -14.0940  -5.6707  -5.5028  -5.1655  -5.0073
    -0.1909   0.3736   0.6419   0.8092   3.2372   3.3571   3.6589   4.1652
     4.5798   5.1695   5.3233   5.6964   5.8225   6.0384   6.3228   6.5218

     occupation numbers 
     1.0000   1.0000   1.0000   1.0000   1.0000   1.0000   1.0000   1.0000
     1.0000   1.0000   1.0000   1.0000   1.0000   1.0000   1.0000   1.0000
     1.0000   1.0000   1.0000   1.0000   1.0000   1.0000   1.0000   1.0000
     1.0000   1.0000   1.0000   1.0000   1.0000   1.0000   1.0000   1.0000
     1.0000   1.0000   1.0000   1.0000   1.0000   1.0000   1.0000   1.0000

          k = 0.1667 0.8930 0.8177 ( 11993 PWs)   bands (ev):

   -14.1654 -14.1630 -14.1595 -14.1586 -14.1545 -14.1510 -14.1483 -14.1477
   -14.1424 -14.1420 -14.1361 -14.1329 -14.1204 -14.1181 -14.1091 -14.1089
   -14.1043 -14.1025 -14.0949 -14.0942  -5.5162  -5.3668  -5.1571  -5.0190
    -0.1418   0.3387   0.6854   0.8458   2.8426   3.1505   3.5969   3.7991
     4.0301   4.7237   5.0211   5.3271   5.6151   5.7730   5.9584   6.4425

     occupation numbers 
     1.0000   1.0000   1.0000   1.0000   1.0000   1.0000   1.0000   1.0000
     1.0000   1.0000   1.0000   1.0000   1.0000   1.0000   1.0000   1.0000
     1.0000   1.0000   1.0000   1.0000   1.0000   1.0000   1.0000   1.0000
     1.0000   1.0000   1.0000   1.0000   1.0000   1.0000   1.0000   1.0000
     1.0000   1.0000   1.0000   1.0000   1.0000   1.0000   1.0000   1.0000

          k = 0.1667 0.8930 1.1448 ( 11991 PWs)   bands (ev):

   -14.1663 -14.1654 -14.1604 -14.1601 -14.1534 -14.1522 -14.1482 -14.1480
   -14.1418 -14.1417 -14.1343 -14.1332 -14.1183 -14.1175 -14.1084 -14.1083
   -14.1040 -14.1034 -14.0947 -14.0944  -5.3489  -5.2504  -5.1715  -5.0783
    -0.0587   0.1156   0.8087   0.8651   2.8515   3.1781   3.2180   3.5848
     4.0002   4.4161   4.6640   5.0686   5.2291   5.4599   6.0088   6.1655

     occupation numbers 
     1.0000   1.0000   1.0000   1.0000   1.0000   1.0000   1.0000   1.0000
     1.0000   1.0000   1.0000   1.0000   1.0000   1.0000   1.0000   1.0000
     1.0000   1.0000   1.0000   1.0000   1.0000   1.0000   1.0000   1.0000
     1.0000   1.0000   1.0000   1.0000   1.0000   1.0000   1.0000   1.0000
     1.0000   1.0000   1.0000   1.0000   1.0000   1.0000   1.0000   1.0000

          k = 0.1667 1.2502 0.1635 ( 11989 PWs)   bands (ev):

   -14.1620 -14.1605 -14.1596 -14.1585 -14.1504 -14.1480 -14.1460 -14.1452
   -14.1439 -14.1421 -14.1404 -14.1368 -14.1204 -14.1173 -14.1157 -14.1140
   -14.0992 -14.0973 -14.0955 -14.0951  -5.4299  -5.3369  -5.1858  -5.1521
    -0.2959  -0.0078   0.1371   0.3541   3.7592   4.2159   4.5534   4.8233
     4.9961   5.0720   5.4345   5.6595   6.0321   6.1760   6.2604   6.4043

     occupation numbers 
     1.0000   1.0000   1.0000   1.0000   1.0000   1.0000   1.0000   1.0000
     1.0000   1.0000   1.0000   1.0000   1.0000   1.0000   1.0000   1.0000
     1.0000   1.0000   1.0000   1.0000   1.0000   1.0000   1.0000   1.0000
     1.0000   1.0000   1.0000   1.0000   1.0000   1.0000   1.0000   1.0000
     1.0000   1.0000   1.0000   1.0000   1.0000   1.0000   1.0000   1.0000

          k = 0.1667 1.2502 0.4906 ( 12001 PWs)   bands (ev):

   -14.1642 -14.1625 -14.1614 -14.1603 -14.1504 -14.1481 -14.1456 -14.1453
   -14.1431 -14.1420 -14.1390 -14.1362 -14.1194 -14.1173 -14.1140 -14.1130
   -14.0994 -14.0979 -14.0953 -14.0951  -5.3633  -5.2781  -5.1510  -5.1170
    -0.1514   0.1301   0.2724   0.4250   3.5103   3.7145   3.9514   4.2440
     4.3349   4.8235   5.1909   5.3667   5.4844   5.7725   6.1104   6.4100

     occupation numbers 
     1.0000   1.0000   1.0000   1.0000   1.0000   1.0000   1.0000   1.0000
     1.0000   1.0000   1.0000   1.0000   1.0000   1.0000   1.0000   1.0000
     1.0000   1.0000   1.0000   1.0000   1.0000   1.0000   1.0000   1.0000
     1.0000   1.0000   1.0000   1.0000   1.0000   1.0000   1.0000   1.0000
     1.0000   1.0000   1.0000   1.0000   1.0000   1.0000   1.0000   1.0000

          k = 0.1667 1.2502 0.8177 ( 12001 PWs)   bands (ev):

   -14.1669 -14.1657 -14.1636 -14.1629 -14.1503 -14.1486 -14.1454 -14.1452
   -14.1420 -14.1415 -14.1375 -14.1358 -14.1177 -14.1166 -14.1119 -14.1116
   -14.0995 -14.0986 -14.0952 -14.0951  -5.2568  -5.1861  -5.1080  -5.0725
     0.0916   0.3405   0.4910   0.5443   2.8617   3.2870   3.3792   3.7817
     3.8589   4.2836   4.5045   4.9720   5.0534   5.3409   5.9637   6.1200

     occupation numbers 
     1.0000   1.0000   1.0000   1.0000   1.0000   1.0000   1.0000   1.0000
     1.0000   1.0000   1.0000   1.0000   1.0000   1.0000   1.0000   1.0000
     1.0000   1.0000   1.0000   1.0000   1.0000   1.0000   1.0000   1.0000
     1.0000   1.0000   1.0000   1.0000   1.0000   1.0000   1.0000   1.0000
     1.0000   1.0000   1.0000   1.0000   1.0000   1.0000   1.0000   1.0000

          k = 0.1667 1.2502 1.1448 ( 11990 PWs)   bands (ev):

   -14.1685 -14.1681 -14.1650 -14.1648 -14.1500 -14.1494 -14.1454 -14.1453
   -14.1413 -14.1411 -14.1364 -14.1358 -14.1163 -14.1159 -14.1105 -14.1104
   -14.0995 -14.0991 -14.0951 -14.0951  -5.1567  -5.1148  -5.0855  -5.0563
     0.3238   0.4261   0.6801   0.7040   2.5989   2.7972   3.1406   3.3441
     3.6168   3.7432   4.1858   4.4887   5.0425   5.2404   5.8773   5.9155

     occupation numbers 
     1.0000   1.0000   1.0000   1.0000   1.0000   1.0000   1.0000   1.0000
     1.0000   1.0000   1.0000   1.0000   1.0000   1.0000   1.0000   1.0000
     1.0000   1.0000   1.0000   1.0000   1.0000   1.0000   1.0000   1.0000
     1.0000   1.0000   1.0000   1.0000   1.0000   1.0000   1.0000   1.0000
     1.0000   1.0000   1.0000   1.0000   1.0000   1.0000   1.0000   1.0000

          k =-0.5000 0.1786 0.1635 ( 12016 PWs)   bands (ev):

   -14.1677 -14.1677 -14.1568 -14.1568 -14.1516 -14.1516 -14.1503 -14.1503
   -14.1369 -14.1369 -14.1351 -14.1351 -14.1274 -14.1274 -14.1097 -14.1097
   -14.1028 -14.1028 -14.0946 -14.0946  -6.0928  -6.0928  -5.1626  -5.1626
     0.4391   0.4391   1.9430   1.9430   3.3656   3.3656   4.2761   4.2761
     4.6637   4.6637   5.2136   5.2136   5.5493   5.5493   6.6691   6.6691

     occupation numbers 
     1.0000   1.0000   1.0000   1.0000   1.0000   1.0000   1.0000   1.0000
     1.0000   1.0000   1.0000   1.0000   1.0000   1.0000   1.0000   1.0000
     1.0000   1.0000   1.0000   1.0000   1.0000   1.0000   1.0000   1.0000
     1.0000   1.0000   1.0000   1.0000   1.0000   1.0000   1.0000   1.0000
     1.0000   1.0000   1.0000   1.0000   1.0000   1.0000   1.0000   1.0000

          k =-0.5000 0.1786 0.4906 ( 12004 PWs)   bands (ev):

   -14.1670 -14.1670 -14.1570 -14.1570 -14.1525 -14.1525 -14.1504 -14.1504
   -14.1358 -14.1358 -14.1351 -14.1351 -14.1262 -14.1262 -14.1100 -14.1100
   -14.1029 -14.1029 -14.0947 -14.0947  -5.9881  -5.9881  -5.1657  -5.1657
     0.1313   0.1313   1.4974   1.4974   3.5472   3.5472   4.3260   4.3260
     5.0014   5.0014   5.3700   5.3700   6.0330   6.0330   6.5491   6.5491

     occupation numbers 
     1.0000   1.0000   1.0000   1.0000   1.0000   1.0000   1.0000   1.0000
     1.0000   1.0000   1.0000   1.0000   1.0000   1.0000   1.0000   1.0000
     1.0000   1.0000   1.0000   1.0000   1.0000   1.0000   1.0000   1.0000
     1.0000   1.0000   1.0000   1.0000   1.0000   1.0000   1.0000   1.0000
     1.0000   1.0000   1.0000   1.0000   1.0000   1.0000   1.0000   1.0000

          k =-0.5000 0.1786 0.8177 ( 11982 PWs)   bands (ev):

   -14.1658 -14.1658 -14.1575 -14.1575 -14.1536 -14.1536 -14.1507 -14.1507
   -14.1361 -14.1361 -14.1331 -14.1331 -14.1243 -14.1243 -14.1104 -14.1104
   -14.1031 -14.1031 -14.0948 -14.0948  -5.8040  -5.8040  -5.2024  -5.2024
    -0.2329  -0.2329   0.9663   0.9663   3.8560   3.8560   4.6009   4.6009
     5.1402   5.1402   5.6180   5.6180   6.2488   6.2488   6.7654   6.7654

     occupation numbers 
     1.0000   1.0000   1.0000   1.0000   1.0000   1.0000   1.0000   1.0000
     1.0000   1.0000   1.0000   1.0000   1.0000   1.0000   1.0000   1.0000
     1.0000   1.0000   1.0000   1.0000   1.0000   1.0000   1.0000   1.0000
     1.0000   1.0000   1.0000   1.0000   1.0000   1.0000   1.0000   1.0000
     1.0000   1.0000   1.0000   1.0000   1.0000   1.0000   1.0000   1.0000

          k =-0.5000 0.1786 1.1448 ( 11984 PWs)   bands (ev):

   -14.1648 -14.1648 -14.1584 -14.1584 -14.1542 -14.1542 -14.1510 -14.1510
   -14.1364 -14.1364 -14.1316 -14.1316 -14.1229 -14.1229 -14.1106 -14.1106
   -14.1031 -14.1031 -14.0949 -14.0949  -5.6074  -5.6074  -5.2929  -5.2929
    -0.4478  -0.4478   0.6210   0.6210   4.2663   4.2663   4.9004   4.9004
     4.9731   4.9731   5.4590   5.4590   6.6556   6.6556   6.9251   6.9251

     occupation numbers 
     1.0000   1.0000   1.0000   1.0000   1.0000   1.0000   1.0000   1.0000
     1.0000   1.0000   1.0000   1.0000   1.0000   1.0000   1.0000   1.0000
     1.0000   1.0000   1.0000   1.0000   1.0000   1.0000   1.0000   1.0000
     1.0000   1.0000   1.0000   1.0000   1.0000   1.0000   1.0000   1.0000
     1.0000   1.0000   1.0000   1.0000   1.0000   1.0000   1.0000   1.0000

          k =-0.5000 0.5358 0.1635 ( 12032 PWs)   bands (ev):

   -14.1632 -14.1632 -14.1553 -14.1553 -14.1526 -14.1526 -14.1516 -14.1516
   -14.1390 -14.1390 -14.1366 -14.1366 -14.1249 -14.1249 -14.1078 -14.1078
   -14.1047 -14.1047 -14.0947 -14.0947  -5.9459  -5.9459  -5.1161  -5.1161
     0.2513   0.2513   1.4377   1.4377   3.4942   3.4942   4.1404   4.1404
     4.9742   4.9742   5.1420   5.1420   5.8182   5.8182   6.6916   6.6916

     occupation numbers 
     1.0000   1.0000   1.0000   1.0000   1.0000   1.0000   1.0000   1.0000
     1.0000   1.0000   1.0000   1.0000   1.0000   1.0000   1.0000   1.0000
     1.0000   1.0000   1.0000   1.0000   1.0000   1.0000   1.0000   1.0000
     1.0000   1.0000   1.0000   1.0000   1.0000   1.0000   1.0000   1.0000
     1.0000   1.0000   1.0000   1.0000   1.0000   1.0000   1.0000   1.0000

          k =-0.5000 0.5358 0.4906 ( 11994 PWs)   bands (ev):

   -14.1630 -14.1630 -14.1564 -14.1564 -14.1529 -14.1529 -14.1514 -14.1514
   -14.1392 -14.1392 -14.1353 -14.1353 -14.1238 -14.1238 -14.1078 -14.1078
   -14.1051 -14.1051 -14.0947 -14.0947  -5.8469  -5.8469  -5.1151  -5.1151
     0.1096   0.1096   1.2371   1.2371   3.4621   3.4621   3.9546   3.9546
     4.6121   4.6121   5.6452   5.6452   6.2200   6.2200   6.6472   6.6472

     occupation numbers 
     1.0000   1.0000   1.0000   1.0000   1.0000   1.0000   1.0000   1.0000
     1.0000   1.0000   1.0000   1.0000   1.0000   1.0000   1.0000   1.0000
     1.0000   1.0000   1.0000   1.0000   1.0000   1.0000   1.0000   1.0000
     1.0000   1.0000   1.0000   1.0000   1.0000   1.0000   1.0000   1.0000
     1.0000   1.0000   1.0000   1.0000   1.0000   1.0000   1.0000   1.0000

          k =-0.5000 0.5358 0.8177 ( 11996 PWs)   bands (ev):

   -14.1625 -14.1625 -14.1583 -14.1583 -14.1535 -14.1535 -14.1513 -14.1513
   -14.1394 -14.1394 -14.1337 -14.1337 -14.1218 -14.1218 -14.1079 -14.1079
   -14.1054 -14.1054 -14.0947 -14.0947  -5.6750  -5.6750  -5.1416  -5.1416
    -0.1113  -0.1113   0.9457   0.9457   3.4603   3.4603   4.1247   4.1247
     4.4836   4.4836   5.6726   5.6726   6.0851   6.0851   6.6116   6.6116

     occupation numbers 
     1.0000   1.0000   1.0000   1.0000   1.0000   1.0000   1.0000   1.0000
     1.0000   1.0000   1.0000   1.0000   1.0000   1.0000   1.0000   1.0000
     1.0000   1.0000   1.0000   1.0000   1.0000   1.0000   1.0000   1.0000
     1.0000   1.0000   1.0000   1.0000   1.0000   1.0000   1.0000   1.0000
     1.0000   1.0000   1.0000   1.0000   1.0000   1.0000   1.0000   1.0000

          k =-0.5000 0.5358 1.1448 ( 11970 PWs)   bands (ev):

   -14.1618 -14.1618 -14.1600 -14.1600 -14.1539 -14.1539 -14.1512 -14.1512
   -14.1396 -14.1396 -14.1325 -14.1325 -14.1204 -14.1204 -14.1080 -14.1080
   -14.1055 -14.1055 -14.0947 -14.0947  -5.4945  -5.4945  -5.2165  -5.2165
    -0.2691  -0.2691   0.7270   0.7270   3.6964   3.6964   4.0693   4.0693
     4.7423   4.7423   5.2476   5.2476   5.9269   5.9269   6.4241   6.4241

     occupation numbers 
     1.0000   1.0000   1.0000   1.0000   1.0000   1.0000   1.0000   1.0000
     1.0000   1.0000   1.0000   1.0000   1.0000   1.0000   1.0000   1.0000
     1.0000   1.0000   1.0000   1.0000   1.0000   1.0000   1.0000   1.0000
     1.0000   1.0000   1.0000   1.0000   1.0000   1.0000   1.0000   1.0000
     1.0000   1.0000   1.0000   1.0000   1.0000   1.0000   1.0000   1.0000

          k =-0.5000 0.8930 0.1635 ( 11994 PWs)   bands (ev):

   -14.1605 -14.1605 -14.1561 -14.1561 -14.1525 -14.1525 -14.1489 -14.1489
   -14.1421 -14.1421 -14.1372 -14.1372 -14.1219 -14.1219 -14.1105 -14.1105
   -14.1025 -14.1025 -14.0945 -14.0945  -5.6861  -5.6861  -5.0848  -5.0848
    -0.0140  -0.0140   0.7435   0.7435   3.7846   3.7846   4.3155   4.3155
     5.1419   5.1419   5.3342   5.3342   5.8696   5.8696   6.5871   6.5871

     occupation numbers 
     1.0000   1.0000   1.0000   1.0000   1.0000   1.0000   1.0000   1.0000
     1.0000   1.0000   1.0000   1.0000   1.0000   1.0000   1.0000   1.0000
     1.0000   1.0000   1.0000   1.0000   1.0000   1.0000   1.0000   1.0000
     1.0000   1.0000   1.0000   1.0000   1.0000   1.0000   1.0000   1.0000
     1.0000   1.0000   1.0000   1.0000   1.0000   1.0000   1.0000   1.0000

          k =-0.5000 0.8930 0.4906 ( 11998 PWs)   bands (ev):

   -14.1620 -14.1620 -14.1574 -14.1574 -14.1527 -14.1527 -14.1484 -14.1484
   -14.1417 -14.1417 -14.1365 -14.1365 -14.1207 -14.1207 -14.1101 -14.1101
   -14.1028 -14.1028 -14.0945 -14.0945  -5.6005  -5.6005  -5.0725  -5.0725
     0.0376   0.0376   0.7528   0.7528   3.3645   3.3645   4.0810   4.0810
     4.5495   4.5495   5.5870   5.5870   5.7796   5.7796   6.4832   6.4832

     occupation numbers 
     1.0000   1.0000   1.0000   1.0000   1.0000   1.0000   1.0000   1.0000
     1.0000   1.0000   1.0000   1.0000   1.0000   1.0000   1.0000   1.0000
     1.0000   1.0000   1.0000   1.0000   1.0000   1.0000   1.0000   1.0000
     1.0000   1.0000   1.0000   1.0000   1.0000   1.0000   1.0000   1.0000
     1.0000   1.0000   1.0000   1.0000   1.0000   1.0000   1.0000   1.0000

          k =-0.5000 0.8930 0.8177 ( 11994 PWs)   bands (ev):

   -14.1640 -14.1640 -14.1594 -14.1594 -14.1530 -14.1530 -14.1478 -14.1478
   -14.1412 -14.1412 -14.1355 -14.1355 -14.1188 -14.1188 -14.1094 -14.1094
   -14.1032 -14.1032 -14.0945 -14.0945  -5.4560  -5.4560  -5.0736  -5.0736
     0.0662   0.0662   0.7759   0.7759   3.0058   3.0058   3.7545   3.7545
     4.4106   4.4106   5.0564   5.0564   5.5531   5.5531   6.2771   6.2771

     occupation numbers 
     1.0000   1.0000   1.0000   1.0000   1.0000   1.0000   1.0000   1.0000
     1.0000   1.0000   1.0000   1.0000   1.0000   1.0000   1.0000   1.0000
     1.0000   1.0000   1.0000   1.0000   1.0000   1.0000   1.0000   1.0000
     1.0000   1.0000   1.0000   1.0000   1.0000   1.0000   1.0000   1.0000
     1.0000   1.0000   1.0000   1.0000   1.0000   1.0000   1.0000   1.0000

          k =-0.5000 0.8930 1.1448 ( 11960 PWs)   bands (ev):

   -14.1654 -14.1654 -14.1608 -14.1608 -14.1531 -14.1531 -14.1476 -14.1476
   -14.1410 -14.1410 -14.1347 -14.1347 -14.1173 -14.1173 -14.1089 -14.1089
   -14.1035 -14.1035 -14.0945 -14.0945  -5.3115  -5.3115  -5.1131  -5.1131
     0.0411   0.0411   0.8079   0.8079   3.0145   3.0145   3.3522   3.3522
     4.3976   4.3976   4.7226   4.7226   5.4462   5.4462   5.9196   5.9196

     occupation numbers 
     1.0000   1.0000   1.0000   1.0000   1.0000   1.0000   1.0000   1.0000
     1.0000   1.0000   1.0000   1.0000   1.0000   1.0000   1.0000   1.0000
     1.0000   1.0000   1.0000   1.0000   1.0000   1.0000   1.0000   1.0000
     1.0000   1.0000   1.0000   1.0000   1.0000   1.0000   1.0000   1.0000
     1.0000   1.0000   1.0000   1.0000   1.0000   1.0000   1.0000   1.0000

          k =-0.5000 1.2502 0.1635 ( 11998 PWs)   bands (ev):

   -14.1610 -14.1610 -14.1595 -14.1595 -14.1482 -14.1482 -14.1473 -14.1473
   -14.1417 -14.1417 -14.1391 -14.1391 -14.1186 -14.1186 -14.1150 -14.1150
   -14.0983 -14.0983 -14.0953 -14.0953  -5.3889  -5.3889  -5.1636  -5.1636
    -0.1013  -0.1013   0.1656   0.1656   4.2549   4.2549   4.5970   4.5970
     5.0780   5.0780   5.2939   5.2939   5.9845   5.9845   6.2984   6.2984

     occupation numbers 
     1.0000   1.0000   1.0000   1.0000   1.0000   1.0000   1.0000   1.0000
     1.0000   1.0000   1.0000   1.0000   1.0000   1.0000   1.0000   1.0000
     1.0000   1.0000   1.0000   1.0000   1.0000   1.0000   1.0000   1.0000
     1.0000   1.0000   1.0000   1.0000   1.0000   1.0000   1.0000   1.0000
     1.0000   1.0000   1.0000   1.0000   1.0000   1.0000   1.0000   1.0000

          k =-0.5000 1.2502 0.4906 ( 12008 PWs)   bands (ev):

   -14.1630 -14.1630 -14.1613 -14.1613 -14.1486 -14.1486 -14.1470 -14.1470
   -14.1409 -14.1409 -14.1385 -14.1385 -14.1175 -14.1175 -14.1142 -14.1142
   -14.0984 -14.0984 -14.0954 -14.0954  -5.3260  -5.3260  -5.1289  -5.1289
     0.0341   0.0341   0.2800   0.2800   3.6556   3.6556   4.1526   4.1526
     4.6669   4.6669   5.1064   5.1064   5.6362   5.6362   6.0639   6.0639

     occupation numbers 
     1.0000   1.0000   1.0000   1.0000   1.0000   1.0000   1.0000   1.0000
     1.0000   1.0000   1.0000   1.0000   1.0000   1.0000   1.0000   1.0000
     1.0000   1.0000   1.0000   1.0000   1.0000   1.0000   1.0000   1.0000
     1.0000   1.0000   1.0000   1.0000   1.0000   1.0000   1.0000   1.0000
     1.0000   1.0000   1.0000   1.0000   1.0000   1.0000   1.0000   1.0000

          k =-0.5000 1.2502 0.8177 ( 12004 PWs)   bands (ev):

   -14.1656 -14.1656 -14.1638 -14.1638 -14.1491 -14.1491 -14.1469 -14.1469
   -14.1398 -14.1398 -14.1377 -14.1377 -14.1159 -14.1159 -14.1129 -14.1129
   -14.0986 -14.0986 -14.0954 -14.0954  -5.2269  -5.2269  -5.0849  -5.0849
     0.2402   0.2402   0.4783   0.4783   3.0728   3.0728   3.5718   3.5718
     4.1166   4.1166   4.5657   4.5657   5.4860   5.4860   5.8520   5.8520

     occupation numbers 
     1.0000   1.0000   1.0000   1.0000   1.0000   1.0000   1.0000   1.0000
     1.0000   1.0000   1.0000   1.0000   1.0000   1.0000   1.0000   1.0000
     1.0000   1.0000   1.0000   1.0000   1.0000   1.0000   1.0000   1.0000
     1.0000   1.0000   1.0000   1.0000   1.0000   1.0000   1.0000   1.0000
     1.0000   1.0000   1.0000   1.0000   1.0000   1.0000   1.0000   1.0000

          k =-0.5000 1.2502 1.1448 ( 11998 PWs)   bands (ev):

   -14.1674 -14.1674 -14.1656 -14.1656 -14.1494 -14.1494 -14.1470 -14.1470
   -14.1392 -14.1392 -14.1371 -14.1371 -14.1146 -14.1146 -14.1120 -14.1120
   -14.0987 -14.0987 -14.0955 -14.0955  -5.1400  -5.1400  -5.0666  -5.0666
     0.3837   0.3837   0.6734   0.6734   2.8510   2.8510   3.1007   3.1007
     3.7309   3.7309   4.0516   4.0516   5.5813   5.5813   5.7615   5.7615

     occupation numbers 
     1.0000   1.0000   1.0000   1.0000   1.0000   1.0000   1.0000   1.0000
     1.0000   1.0000   1.0000   1.0000   1.0000   1.0000   1.0000   1.0000
     1.0000   1.0000   1.0000   1.0000   1.0000   1.0000   1.0000   1.0000
     1.0000   1.0000   1.0000   1.0000   1.0000   1.0000   1.0000   1.0000
     1.0000   1.0000   1.0000   1.0000   1.0000   1.0000   1.0000   1.0000

     highest occupied level (ev):     6.9827

!    total energy              =    -827.74608880 Ry
     estimated scf accuracy    <          7.7E-11 Ry

     The total energy is the sum of the following terms:
     one-electron contribution =    -273.36380019 Ry
     hartree contribution      =     184.71291101 Ry
     xc contribution           =    -308.86002100 Ry
     ewald contribution        =    -430.11774937 Ry
     DFT-D3 Dispersion         =      -0.11742925 Ry

     convergence has been achieved in  12 iterations

     Forces acting on atoms (cartesian axes, Ry/au):

     atom    1 type  2   force =    -0.00767666    0.00000000   -0.00049184
     atom    2 type  1   force =     0.00835141    0.00000000    0.00128337
     atom    3 type  2   force =     0.00767666    0.00000000   -0.00049184
     atom    4 type  1   force =    -0.00835141    0.00000000    0.00128337
     atom    5 type  2   force =    -0.00767666    0.00000000    0.00049184
     atom    6 type  1   force =     0.00835141    0.00000000   -0.00128337
     atom    7 type  2   force =     0.00767666    0.00000000    0.00049184
     atom    8 type  1   force =    -0.00835141    0.00000000   -0.00128337
     The non-local contrib.  to forces
     atom    1 type  2   force =    -0.09554564    0.00000000    0.11581101
     atom    2 type  1   force =     0.33701558    0.00000000    0.30250735
     atom    3 type  2   force =     0.09554564    0.00000000    0.11581101
     atom    4 type  1   force =    -0.33701558    0.00000000    0.30250735
     atom    5 type  2   force =    -0.09554564    0.00000000   -0.11581101
     atom    6 type  1   force =     0.33701558    0.00000000   -0.30250735
     atom    7 type  2   force =     0.09554564    0.00000000   -0.11581101
     atom    8 type  1   force =    -0.33701558    0.00000000   -0.30250735
     The ionic contribution  to forces
     atom    1 type  2   force =     0.92964993   -0.00000000   -1.41819564
     atom    2 type  1   force =    -0.57483328    0.00000000   -0.88133523
     atom    3 type  2   force =    -0.92964993   -0.00000000   -1.41819564
     atom    4 type  1   force =     0.57483328   -0.00000000   -0.88133523
     atom    5 type  2   force =     0.92964993    0.00000000    1.41819564
     atom    6 type  1   force =    -0.57483328   -0.00000000    0.88133523
     atom    7 type  2   force =    -0.92964993   -0.00000000    1.41819564
     atom    8 type  1   force =     0.57483328   -0.00000000    0.88133523
     The local contribution  to forces
     atom    1 type  2   force =    -0.85232057    0.00000000    1.31271587
     atom    2 type  1   force =     0.25373589   -0.00000000    0.58360429
     atom    3 type  2   force =     0.85232057    0.00000000    1.31271587
     atom    4 type  1   force =    -0.25373589   -0.00000000    0.58360429
     atom    5 type  2   force =    -0.85232057    0.00000000   -1.31271587
     atom    6 type  1   force =     0.25373589   -0.00000000   -0.58360429
     atom    7 type  2   force =     0.85232057   -0.00000000   -1.31271587
     atom    8 type  1   force =    -0.25373589   -0.00000000   -0.58360429
     The core correction contribution to forces
     atom    1 type  2   force =     0.01098414    0.00000000   -0.01277983
     atom    2 type  1   force =    -0.00730380   -0.00000000   -0.00467006
     atom    3 type  2   force =    -0.01098414    0.00000000   -0.01277983
     atom    4 type  1   force =     0.00730380   -0.00000000   -0.00467006
     atom    5 type  2   force =     0.01098414   -0.00000000    0.01277983
     atom    6 type  1   force =    -0.00730380   -0.00000000    0.00467006
     atom    7 type  2   force =    -0.01098414    0.00000000    0.01277983
     atom    8 type  1   force =     0.00730380   -0.00000000    0.00467006
     The Hubbard contrib.    to forces
     atom    1 type  2   force =     0.00000000    0.00000000    0.00000000
     atom    2 type  1   force =     0.00000000    0.00000000    0.00000000
     atom    3 type  2   force =     0.00000000    0.00000000    0.00000000
     atom    4 type  1   force =     0.00000000    0.00000000    0.00000000
     atom    5 type  2   force =     0.00000000    0.00000000    0.00000000
     atom    6 type  1   force =     0.00000000    0.00000000    0.00000000
     atom    7 type  2   force =     0.00000000    0.00000000    0.00000000
     atom    8 type  1   force =     0.00000000    0.00000000    0.00000000
     The SCF correction term to forces
     atom    1 type  2   force =     0.00000418   -0.00000000   -0.00000065
     atom    2 type  1   force =    -0.00001735    0.00000000   -0.00000556
     atom    3 type  2   force =    -0.00000418    0.00000000   -0.00000065
     atom    4 type  1   force =     0.00001735   -0.00000000   -0.00000556
     atom    5 type  2   force =     0.00000418   -0.00000000    0.00000065
     atom    6 type  1   force =    -0.00001735    0.00000000    0.00000556
     atom    7 type  2   force =    -0.00000418    0.00000000    0.00000065
     atom    8 type  1   force =     0.00001735   -0.00000000    0.00000556

     DFT-D3 dispersion contribution to forces:
     atom    1 type  2   force =    -0.00044870    0.00000000    0.00195741
     atom    2 type  1   force =    -0.00024564    0.00000000    0.00118258
     atom    3 type  2   force =     0.00044870   -0.00000000    0.00195741
     atom    4 type  1   force =     0.00024564    0.00000000    0.00118258
     atom    5 type  2   force =    -0.00044870    0.00000000   -0.00195741
     atom    6 type  1   force =    -0.00024564   -0.00000000   -0.00118258
     atom    7 type  2   force =     0.00044870   -0.00000000   -0.00195741
     atom    8 type  1   force =     0.00024564   -0.00000000   -0.00118258

     Total force =     0.022853     Total SCF correction =     0.000037

     DFT-D3 dispersion Force =     0.004687

     Writing all to output data dir ./tmp/SnSe_pnma.save/ :
     XML data file, charge density, pseudopotentials, collected wavefunctions
 
     init_run     :      3.58s CPU      3.92s WALL (       1 calls)
     electrons    :     99.16s CPU    104.07s WALL (       1 calls)
     forces       :      1.42s CPU      1.67s WALL (       1 calls)
     force_dftd3  :      0.06s CPU      0.06s WALL (       1 calls)

     Called by init_run:
     wfcinit      :      2.38s CPU      2.43s WALL (       1 calls)
     wfcinit:atom :      0.03s CPU      0.03s WALL (      11 calls)
     wfcinit:wfcr :      2.12s CPU      2.15s WALL (      11 calls)
     potinit      :      0.34s CPU      0.38s WALL (       1 calls)
     hinit0       :      0.24s CPU      0.27s WALL (       1 calls)

     Called by electrons:
     c_bands      :     73.06s CPU     73.47s WALL (      12 calls)
     sum_band     :     18.60s CPU     20.81s WALL (      12 calls)
     v_of_rho     :      2.90s CPU      3.04s WALL (      13 calls)
     v_h          :      0.24s CPU      0.24s WALL (      13 calls)
     v_xc         :      2.86s CPU      3.01s WALL (      14 calls)
     newd         :      4.60s CPU      6.87s WALL (      13 calls)
     mix_rho      :      0.37s CPU      0.38s WALL (      12 calls)
     energy_dftd3 :      0.04s CPU      0.04s WALL (       1 calls)

     Called by c_bands:
     init_us_2    :      2.03s CPU      2.05s WALL (     286 calls)
     cegterg      :     66.78s CPU     67.03s WALL (     132 calls)

     Called by sum_band:
     sum_band:wei :      0.00s CPU      0.00s WALL (      12 calls)
     sum_band:loo :     13.46s CPU     13.52s WALL (      12 calls)
     sum_band:buf :      0.13s CPU      0.13s WALL (     132 calls)
     sum_band:ini :      0.91s CPU      0.91s WALL (     132 calls)
     sum_band:cal :      1.12s CPU      1.13s WALL (     132 calls)
     sum_band:bec :      0.01s CPU      0.01s WALL (     132 calls)
     addusdens    :      4.63s CPU      6.72s WALL (      12 calls)
                                        0.00s GPU  (      12 calls)
     addusd:skk   :      0.04s CPU      0.05s WALL (      24 calls)
                                        0.00s GPU  (      24 calls)

     Called by *egterg:
     cdiaghg      :      1.00s CPU      1.00s WALL (     607 calls)
     cegterg:over :      2.63s CPU      2.63s WALL (     475 calls)
     cegterg:upda :      1.66s CPU      1.66s WALL (     475 calls)
     cegterg:last :      3.95s CPU      3.96s WALL (     333 calls)
     h_psi        :     53.75s CPU     54.00s WALL (     618 calls)
     s_psi        :      4.09s CPU      4.10s WALL (     618 calls)
     g_psi        :      0.18s CPU      0.18s WALL (     475 calls)

     Called by h_psi:
     h_psi:calbec :      3.61s CPU      3.62s WALL (     618 calls)
     vloc_psi     :     45.72s CPU     45.94s WALL (     618 calls)
     add_vuspsi   :      4.07s CPU      4.07s WALL (     618 calls)

     General routines
     calbec       :      5.09s CPU      5.11s WALL (     794 calls)
     fft          :      1.67s CPU      1.70s WALL (     178 calls)
     ffts         :      0.05s CPU      0.05s WALL (      25 calls)
     fftw         :     29.56s CPU     29.68s WALL (   37660 calls)
     interpolate  :      0.17s CPU      0.17s WALL (      13 calls)
 
     Parallel routines
 
     PWSCF        :   1m44.43s CPU   1m50.89s WALL

 
   This run was terminated on:  18:36:45  20May2026            

=------------------------------------------------------------------------------=
   JOB DONE.
=------------------------------------------------------------------------------=
