
     Program PWSCF v.7.3.1 starts on 20May2026 at 15: 2:55 

     This program is part of the open-source Quantum ESPRESSO suite
     for quantum simulation of materials; please cite
         "P. Giannozzi et al., J. Phys.:Condens. Matter 21 395502 (2009);
         "P. Giannozzi et al., J. Phys.:Condens. Matter 29 465901 (2017);
         "P. Giannozzi et al., J. Chem. Phys. 152 154105 (2020);
          URL http://www.quantum-espresso.org", 
     in publications or presentations arising from this work. More details at
     http://www.quantum-espresso.org/quote

     Parallel version (MPI & OpenMP), running on       6 processor cores
     Number of MPI processes:                 6
     Threads/MPI process:                     1

     MPI processes distributed on     1 nodes
     10794 MiB available memory on the printing compute node when the environment starts
 
     Waiting for input...
     Reading input from standard input

     Current dimensions of program PWSCF are:
     Max number of different atomic species (ntypx) = 10
     Max number of k-points (npk) =  40000
     Max angular momentum in pseudopotentials (lmaxx) =  4
 
     K-points division:     npool     =       3
     R & G space division:  proc/nbgrp/npool/nimage =       2
     Subspace diagonalization in iterative solution of the eigenvalue problem:
     a serial algorithm will be used

 
     Parallelization info
     --------------------
     sticks:   dense  smooth     PW     G-vecs:    dense   smooth      PW
     Min        1954     779    234                61837    15615    2528
     Max        1955     780    235                61838    15618    2529
     Sum        3909    1559    469               123675    31233    5057
 
     Using Slab Decomposition
 


     bravais-lattice index     =            8
     lattice parameter (alat)  =      20.7681  a.u.
     unit-cell volume          =    1409.3283 (a.u.)^3
     number of atoms/cell      =            8
     number of atomic types    =            2
     number of electrons       =        80.00
     number of Kohn-Sham states=           40
     kinetic-energy cutoff     =      30.0000  Ry
     charge density cutoff     =     300.0000  Ry
     scf convergence threshold =      1.0E-08
     mixing beta               =       0.7000
     number of iterations used =            8  plain     mixing
     Exchange-correlation= SLA  PW   PBE  PBE
                           (   1   4   3   4   0   0   0)

     celldm(1)=  20.768090  celldm(2)=   0.379563  celldm(3)=   0.414513
     celldm(4)=   0.000000  celldm(5)=   0.000000  celldm(6)=   0.000000

     crystal axes: (cart. coord. in units of alat)
               a(1) = (   1.000000   0.000000   0.000000 )  
               a(2) = (   0.000000   0.379563   0.000000 )  
               a(3) = (   0.000000   0.000000   0.414513 )  

     reciprocal axes: (cart. coord. in units 2 pi/alat)
               b(1) = (  1.000000  0.000000  0.000000 )  
               b(2) = (  0.000000  2.634607  0.000000 )  
               b(3) = (  0.000000  0.000000  2.412468 )  


     PseudoPot. # 1 for Sn read from file:
     ../pseudo/Sn_pbe_v1.uspp.F.UPF
     MD5 check sum: 4cf58ce39ec5d5d420df3dd08604eb00
     Pseudo is Ultrasoft + core correction, Zval = 14.0
     Generated by new atomic code, or converted to UPF format
     Using radial grid of  891 points,  6 beta functions with: 
                l(1) =   0
                l(2) =   0
                l(3) =   1
                l(4) =   1
                l(5) =   2
                l(6) =   2
     Q(r) pseudized with  6 coefficients,  rinner =    1.200   1.200   1.200
                                                       1.200   1.200

     PseudoPot. # 2 for Se read from file:
     ../pseudo/Se_pbe_v1.uspp.F.UPF
     MD5 check sum: 1b3568f3a8ae88f9a2a0ad0698632c85
     Pseudo is Ultrasoft + core correction, Zval =  6.0
     Generated by new atomic code, or converted to UPF format
     Using radial grid of  877 points,  6 beta functions with: 
                l(1) =   0
                l(2) =   0
                l(3) =   1
                l(4) =   1
                l(5) =   2
                l(6) =   2
     Q(r) pseudized with  8 coefficients,  rinner =    1.300   1.300   1.300
                                                       1.300   1.300

     atomic species   valence    mass     pseudopotential
     Sn               14.00   118.71000     Sn( 1.00)
     Se                6.00    78.97100     Se( 1.00)

      8 Sym. Ops., with inversion, found ( 6 have fractional translation)


                                    s                        frac. trans.

      isym =  1     identity                                     

 cryst.   s( 1) = (     1          0          0      )
                  (     0          1          0      )
                  (     0          0          1      )

 cart.    s( 1) = (  1.0000000  0.0000000  0.0000000 )
                  (  0.0000000  1.0000000  0.0000000 )
                  (  0.0000000  0.0000000  1.0000000 )


      isym =  2     180 deg rotation - cart. axis [0,0,1]        

 cryst.   s( 2) = (    -1          0          0      )    f =(  0.5000000 )
                  (     0         -1          0      )       (  0.0000000 )
                  (     0          0          1      )       ( -0.5000000 )

 cart.    s( 2) = ( -1.0000000  0.0000000  0.0000000 )    f =(  0.5000000 )
                  (  0.0000000 -1.0000000  0.0000000 )       (  0.0000000 )
                  (  0.0000000  0.0000000  1.0000000 )       ( -0.2072566 )


      isym =  3     180 deg rotation - cart. axis [0,1,0]        

 cryst.   s( 3) = (    -1          0          0      )    f =(  0.0000000 )
                  (     0          1          0      )       ( -0.5000000 )
                  (     0          0         -1      )       (  0.0000000 )

 cart.    s( 3) = ( -1.0000000  0.0000000  0.0000000 )    f =(  0.0000000 )
                  (  0.0000000  1.0000000  0.0000000 )       ( -0.1897816 )
                  (  0.0000000  0.0000000 -1.0000000 )       (  0.0000000 )


      isym =  4     180 deg rotation - cart. axis [1,0,0]        

 cryst.   s( 4) = (     1          0          0      )    f =(  0.5000000 )
                  (     0         -1          0      )       ( -0.5000000 )
                  (     0          0         -1      )       ( -0.5000000 )

 cart.    s( 4) = (  1.0000000  0.0000000  0.0000000 )    f =(  0.5000000 )
                  (  0.0000000 -1.0000000  0.0000000 )       ( -0.1897816 )
                  (  0.0000000  0.0000000 -1.0000000 )       ( -0.2072566 )


      isym =  5     inversion                                    

 cryst.   s( 5) = (    -1          0          0      )
                  (     0         -1          0      )
                  (     0          0         -1      )

 cart.    s( 5) = ( -1.0000000  0.0000000  0.0000000 )
                  (  0.0000000 -1.0000000  0.0000000 )
                  (  0.0000000  0.0000000 -1.0000000 )


      isym =  6     inv. 180 deg rotation - cart. axis [0,0,1]   

 cryst.   s( 6) = (     1          0          0      )    f =(  0.5000000 )
                  (     0          1          0      )       (  0.0000000 )
                  (     0          0         -1      )       ( -0.5000000 )

 cart.    s( 6) = (  1.0000000  0.0000000  0.0000000 )    f =(  0.5000000 )
                  (  0.0000000  1.0000000  0.0000000 )       (  0.0000000 )
                  (  0.0000000  0.0000000 -1.0000000 )       ( -0.2072566 )


      isym =  7     inv. 180 deg rotation - cart. axis [0,1,0]   

 cryst.   s( 7) = (     1          0          0      )    f =(  0.0000000 )
                  (     0         -1          0      )       ( -0.5000000 )
                  (     0          0          1      )       (  0.0000000 )

 cart.    s( 7) = (  1.0000000  0.0000000  0.0000000 )    f =(  0.0000000 )
                  (  0.0000000 -1.0000000  0.0000000 )       ( -0.1897816 )
                  (  0.0000000  0.0000000  1.0000000 )       (  0.0000000 )


      isym =  8     inv. 180 deg rotation - cart. axis [1,0,0]   

 cryst.   s( 8) = (    -1          0          0      )    f =(  0.5000000 )
                  (     0          1          0      )       ( -0.5000000 )
                  (     0          0          1      )       ( -0.5000000 )

 cart.    s( 8) = ( -1.0000000  0.0000000  0.0000000 )    f =(  0.5000000 )
                  (  0.0000000  1.0000000  0.0000000 )       ( -0.1897816 )
                  (  0.0000000  0.0000000  1.0000000 )       ( -0.2072566 )


     point group D_2h (mmm) 
     there are  8 classes
     the character table:

       E     C2    C2'   C2''  i     s_v   s_v'  s_v''
A_g    1.00  1.00  1.00  1.00  1.00  1.00  1.00  1.00
B_1g   1.00  1.00 -1.00 -1.00  1.00  1.00 -1.00 -1.00
B_2g   1.00 -1.00  1.00 -1.00  1.00 -1.00  1.00 -1.00
B_3g   1.00 -1.00 -1.00  1.00  1.00 -1.00 -1.00  1.00
A_u    1.00  1.00  1.00  1.00 -1.00 -1.00 -1.00 -1.00
B_1u   1.00  1.00 -1.00 -1.00 -1.00 -1.00  1.00  1.00
B_2u   1.00 -1.00  1.00 -1.00 -1.00  1.00 -1.00  1.00
B_3u   1.00 -1.00 -1.00  1.00 -1.00  1.00  1.00 -1.00

     the symmetry operations in each class and the name of the first element:

     E        1
          identity                                               
     C2       2
          180 deg rotation - cart. axis [0,0,1]                  
     C2'      4
          180 deg rotation - cart. axis [1,0,0]                  
     C2''     3
          180 deg rotation - cart. axis [0,1,0]                  
     i        5
          inversion                                              
     s_v      6
          inv. 180 deg rotation - cart. axis [0,0,1]             
     s_v'     8
          inv. 180 deg rotation - cart. axis [1,0,0]             
     s_v''    7
          inv. 180 deg rotation - cart. axis [0,1,0]             

   Cartesian axes

     site n.     atom                  positions (alat units)
         1        Se     tau(   1) = (   0.8549563   0.0948908   0.2003127  )
         2        Sn     tau(   2) = (   0.1165395   0.0948908   0.0465445  )
         3        Se     tau(   3) = (   0.6450437   0.2846724   0.4075693  )
         4        Sn     tau(   4) = (   0.3834605   0.2846724   0.2538010  )
         5        Se     tau(   5) = (   0.3549563   0.0948908   0.0069439  )
         6        Sn     tau(   6) = (   0.6165395   0.0948908   0.1607121  )
         7        Se     tau(   7) = (   0.1450437   0.2846724   0.2142005  )
         8        Sn     tau(   8) = (   0.8834605   0.2846724   0.3679687  )

     --------------------------------------------
     DFT-D3 Dispersion Correction (3-body terms):
     --------------------------------------------
       Reference C6 values for interpolation: 

         atom   Coordination number   C6
         Se         0.000           427.35
         Se         0.990           427.57
         Se         1.981           421.05
         Sn         0.000          1255.14
         Sn         0.951          1084.09
         Sn         1.950          1010.83
         Sn         2.926           818.29
         Sn         3.912           672.20

       Values used:

         atom   Coordination number  R0_AB[au]  C6      C8
         Se         3.623            3.332    421.05  29958.36
         Sn         4.512            3.957    672.23  84372.12
         Se         3.623            3.332    421.05  29958.36
         Sn         4.512            3.957    672.23  84372.12
         Se         3.623            3.332    421.05  29958.36
         Sn         4.512            3.957    672.23  84372.12
         Se         3.623            3.332    421.05  29958.36
         Sn         4.512            3.957    672.23  84372.12

         Molecular C6 ( Ry / a.u.^6 ) =     34496.91


   Crystallographic axes

     site n.     atom                  positions (cryst. coord.)
         1        Se     tau(   1) = (  0.8549563  0.2500000  0.4832481  )
         2        Sn     tau(   2) = (  0.1165395  0.2500000  0.1122870  )
         3        Se     tau(   3) = (  0.6450437  0.7500000  0.9832481  )
         4        Sn     tau(   4) = (  0.3834605  0.7500000  0.6122870  )
         5        Se     tau(   5) = (  0.3549563  0.2500000  0.0167519  )
         6        Sn     tau(   6) = (  0.6165395  0.2500000  0.3877130  )
         7        Se     tau(   7) = (  0.1450437  0.7500000  0.5167519  )
         8        Sn     tau(   8) = (  0.8834605  0.7500000  0.8877130  )

     number of k points=    32
                       cart. coord. in units 2pi/alat
        k(    1) = (   0.1666667   0.1646629   0.1507793), wk =   0.0833333
        k(    2) = (   0.1666667   0.1646629   0.4523378), wk =   0.0833333
        k(    3) = (   0.1666667   0.1646629   0.7538964), wk =   0.0833333
        k(    4) = (   0.1666667   0.1646629   1.0554549), wk =   0.0833333
        k(    5) = (   0.1666667   0.4939888   0.1507793), wk =   0.0833333
        k(    6) = (   0.1666667   0.4939888   0.4523378), wk =   0.0833333
        k(    7) = (   0.1666667   0.4939888   0.7538964), wk =   0.0833333
        k(    8) = (   0.1666667   0.4939888   1.0554549), wk =   0.0833333
        k(    9) = (   0.1666667   0.8233147   0.1507793), wk =   0.0833333
        k(   10) = (   0.1666667   0.8233147   0.4523378), wk =   0.0833333
        k(   11) = (   0.1666667   0.8233147   0.7538964), wk =   0.0833333
        k(   12) = (   0.1666667   0.8233147   1.0554549), wk =   0.0833333
        k(   13) = (   0.1666667   1.1526406   0.1507793), wk =   0.0833333
        k(   14) = (   0.1666667   1.1526406   0.4523378), wk =   0.0833333
        k(   15) = (   0.1666667   1.1526406   0.7538964), wk =   0.0833333
        k(   16) = (   0.1666667   1.1526406   1.0554549), wk =   0.0833333
        k(   17) = (  -0.5000000   0.1646629   0.1507793), wk =   0.0416667
        k(   18) = (  -0.5000000   0.1646629   0.4523378), wk =   0.0416667
        k(   19) = (  -0.5000000   0.1646629   0.7538964), wk =   0.0416667
        k(   20) = (  -0.5000000   0.1646629   1.0554549), wk =   0.0416667
        k(   21) = (  -0.5000000   0.4939888   0.1507793), wk =   0.0416667
        k(   22) = (  -0.5000000   0.4939888   0.4523378), wk =   0.0416667
        k(   23) = (  -0.5000000   0.4939888   0.7538964), wk =   0.0416667
        k(   24) = (  -0.5000000   0.4939888   1.0554549), wk =   0.0416667
        k(   25) = (  -0.5000000   0.8233147   0.1507793), wk =   0.0416667
        k(   26) = (  -0.5000000   0.8233147   0.4523378), wk =   0.0416667
        k(   27) = (  -0.5000000   0.8233147   0.7538964), wk =   0.0416667
        k(   28) = (  -0.5000000   0.8233147   1.0554549), wk =   0.0416667
        k(   29) = (  -0.5000000   1.1526406   0.1507793), wk =   0.0416667
        k(   30) = (  -0.5000000   1.1526406   0.4523378), wk =   0.0416667
        k(   31) = (  -0.5000000   1.1526406   0.7538964), wk =   0.0416667
        k(   32) = (  -0.5000000   1.1526406   1.0554549), wk =   0.0416667

                       cryst. coord.
        k(    1) = (   0.1666667   0.0625000   0.0625000), wk =   0.0833333
        k(    2) = (   0.1666667   0.0625000   0.1875000), wk =   0.0833333
        k(    3) = (   0.1666667   0.0625000   0.3125000), wk =   0.0833333
        k(    4) = (   0.1666667   0.0625000   0.4375000), wk =   0.0833333
        k(    5) = (   0.1666667   0.1875000   0.0625000), wk =   0.0833333
        k(    6) = (   0.1666667   0.1875000   0.1875000), wk =   0.0833333
        k(    7) = (   0.1666667   0.1875000   0.3125000), wk =   0.0833333
        k(    8) = (   0.1666667   0.1875000   0.4375000), wk =   0.0833333
        k(    9) = (   0.1666667   0.3125000   0.0625000), wk =   0.0833333
        k(   10) = (   0.1666667   0.3125000   0.1875000), wk =   0.0833333
        k(   11) = (   0.1666667   0.3125000   0.3125000), wk =   0.0833333
        k(   12) = (   0.1666667   0.3125000   0.4375000), wk =   0.0833333
        k(   13) = (   0.1666667   0.4375000   0.0625000), wk =   0.0833333
        k(   14) = (   0.1666667   0.4375000   0.1875000), wk =   0.0833333
        k(   15) = (   0.1666667   0.4375000   0.3125000), wk =   0.0833333
        k(   16) = (   0.1666667   0.4375000   0.4375000), wk =   0.0833333
        k(   17) = (  -0.5000000   0.0625000   0.0625000), wk =   0.0416667
        k(   18) = (  -0.5000000   0.0625000   0.1875000), wk =   0.0416667
        k(   19) = (  -0.5000000   0.0625000   0.3125000), wk =   0.0416667
        k(   20) = (  -0.5000000   0.0625000   0.4375000), wk =   0.0416667
        k(   21) = (  -0.5000000   0.1875000   0.0625000), wk =   0.0416667
        k(   22) = (  -0.5000000   0.1875000   0.1875000), wk =   0.0416667
        k(   23) = (  -0.5000000   0.1875000   0.3125000), wk =   0.0416667
        k(   24) = (  -0.5000000   0.1875000   0.4375000), wk =   0.0416667
        k(   25) = (  -0.5000000   0.3125000   0.0625000), wk =   0.0416667
        k(   26) = (  -0.5000000   0.3125000   0.1875000), wk =   0.0416667
        k(   27) = (  -0.5000000   0.3125000   0.3125000), wk =   0.0416667
        k(   28) = (  -0.5000000   0.3125000   0.4375000), wk =   0.0416667
        k(   29) = (  -0.5000000   0.4375000   0.0625000), wk =   0.0416667
        k(   30) = (  -0.5000000   0.4375000   0.1875000), wk =   0.0416667
        k(   31) = (  -0.5000000   0.4375000   0.3125000), wk =   0.0416667
        k(   32) = (  -0.5000000   0.4375000   0.4375000), wk =   0.0416667

     Dense  grid:   123675 G-vectors     FFT dimensions: ( 120,  48,  48)

     Smooth grid:    31233 G-vectors     FFT dimensions: (  80,  30,  32)

     Dynamical RAM for                 wfc:       1.19 MB

     Dynamical RAM for     wfc (w. buffer):      14.32 MB

     Dynamical RAM for           str. fact:       1.89 MB

     Dynamical RAM for           local pot:       0.00 MB

     Dynamical RAM for          nlocal pot:       4.30 MB

     Dynamical RAM for                qrad:       2.78 MB

     Dynamical RAM for          rho,v,vnew:       5.99 MB

     Dynamical RAM for               rhoin:       2.00 MB

     Dynamical RAM for            rho*nmix:      15.10 MB

     Dynamical RAM for           G-vectors:       3.66 MB

     Dynamical RAM for          h,s,v(r/c):       0.29 MB

     Dynamical RAM for          <psi|beta>:       0.09 MB

     Dynamical RAM for                 psi:       2.39 MB

     Dynamical RAM for                hpsi:       2.39 MB

     Dynamical RAM for                spsi:       2.39 MB

     Dynamical RAM for      wfcinit/wfcrot:       3.16 MB

     Dynamical RAM for           addusdens:      60.39 MB

     Dynamical RAM for          addusforce:      62.13 MB

     Estimated static dynamical RAM per process >      43.04 MB

     Estimated max dynamical RAM per process >     120.27 MB

     Estimated total dynamical RAM >     661.21 MB

     Initial potential from superposition of free atoms

     starting charge      75.9995, renormalised to      80.0000
     Starting wfcs are   52 randomized atomic wfcs

     total cpu time spent up to now is        1.4 secs

     Self-consistent Calculation

     iteration #  1     ecut=    30.00 Ry     beta= 0.70
     Davidson diagonalization with overlap

---- Real-time Memory Report at c_bands before calling an iterative solver
           211 MiB given to the printing process from OS
             0 MiB allocation reported by mallinfo(arena+hblkhd)
         10353 MiB available memory on the node where the printing process lives
------------------
     ethr =  1.00E-02,  avg # of iterations =  2.0

     total cpu time spent up to now is        3.6 secs

     total energy              =    -826.61469822 Ry
     estimated scf accuracy    <       2.66257683 Ry

     iteration #  2     ecut=    30.00 Ry     beta= 0.70
     Davidson diagonalization with overlap

---- Real-time Memory Report at c_bands before calling an iterative solver
           251 MiB given to the printing process from OS
             0 MiB allocation reported by mallinfo(arena+hblkhd)
          9885 MiB available memory on the node where the printing process lives
------------------
     ethr =  3.33E-03,  avg # of iterations =  3.0

     total cpu time spent up to now is        5.7 secs

     total energy              =    -827.53318482 Ry
     estimated scf accuracy    <       0.91764969 Ry

     iteration #  3     ecut=    30.00 Ry     beta= 0.70
     Davidson diagonalization with overlap

---- Real-time Memory Report at c_bands before calling an iterative solver
           271 MiB given to the printing process from OS
             0 MiB allocation reported by mallinfo(arena+hblkhd)
          9795 MiB available memory on the node where the printing process lives
------------------
     ethr =  1.15E-03,  avg # of iterations =  2.3

     total cpu time spent up to now is        7.5 secs

     total energy              =    -827.71689870 Ry
     estimated scf accuracy    <       0.00836124 Ry

     iteration #  4     ecut=    30.00 Ry     beta= 0.70
     Davidson diagonalization with overlap

---- Real-time Memory Report at c_bands before calling an iterative solver
           273 MiB given to the printing process from OS
             0 MiB allocation reported by mallinfo(arena+hblkhd)
          9789 MiB available memory on the node where the printing process lives
------------------
     ethr =  1.05E-05,  avg # of iterations =  5.0

     total cpu time spent up to now is        9.9 secs

     total energy              =    -827.72236125 Ry
     estimated scf accuracy    <       0.00440470 Ry

     iteration #  5     ecut=    30.00 Ry     beta= 0.70
     Davidson diagonalization with overlap

---- Real-time Memory Report at c_bands before calling an iterative solver
           276 MiB given to the printing process from OS
             0 MiB allocation reported by mallinfo(arena+hblkhd)
          9782 MiB available memory on the node where the printing process lives
------------------
     ethr =  5.51E-06,  avg # of iterations =  3.3

     total cpu time spent up to now is       11.8 secs

     total energy              =    -827.72376561 Ry
     estimated scf accuracy    <       0.00123938 Ry

     iteration #  6     ecut=    30.00 Ry     beta= 0.70
     Davidson diagonalization with overlap

---- Real-time Memory Report at c_bands before calling an iterative solver
           280 MiB given to the printing process from OS
             0 MiB allocation reported by mallinfo(arena+hblkhd)
          9778 MiB available memory on the node where the printing process lives
------------------
     ethr =  1.55E-06,  avg # of iterations =  2.3

     total cpu time spent up to now is       13.8 secs

     total energy              =    -827.72395872 Ry
     estimated scf accuracy    <       0.00004196 Ry

     iteration #  7     ecut=    30.00 Ry     beta= 0.70
     Davidson diagonalization with overlap

---- Real-time Memory Report at c_bands before calling an iterative solver
           281 MiB given to the printing process from OS
             0 MiB allocation reported by mallinfo(arena+hblkhd)
          9830 MiB available memory on the node where the printing process lives
------------------
     ethr =  5.25E-08,  avg # of iterations =  4.1

     total cpu time spent up to now is       16.0 secs

     total energy              =    -827.72398692 Ry
     estimated scf accuracy    <       0.00000275 Ry

     iteration #  8     ecut=    30.00 Ry     beta= 0.70
     Davidson diagonalization with overlap

---- Real-time Memory Report at c_bands before calling an iterative solver
           283 MiB given to the printing process from OS
             0 MiB allocation reported by mallinfo(arena+hblkhd)
          9776 MiB available memory on the node where the printing process lives
------------------
     ethr =  3.44E-09,  avg # of iterations =  3.0

     total cpu time spent up to now is       18.4 secs

     total energy              =    -827.72398791 Ry
     estimated scf accuracy    <       0.00000065 Ry

     iteration #  9     ecut=    30.00 Ry     beta= 0.70
     Davidson diagonalization with overlap

---- Real-time Memory Report at c_bands before calling an iterative solver
           284 MiB given to the printing process from OS
             0 MiB allocation reported by mallinfo(arena+hblkhd)
          9774 MiB available memory on the node where the printing process lives
------------------
     ethr =  8.13E-10,  avg # of iterations =  2.4

     total cpu time spent up to now is       20.3 secs

     End of self-consistent calculation

          k = 0.1667 0.1647 0.1508 (  3913 PWs)   bands (ev):

   -13.1056 -13.0920 -13.0874 -13.0860 -13.0831 -13.0827 -13.0795 -13.0767
   -13.0682 -13.0674 -13.0641 -13.0614 -13.0516 -13.0428 -13.0225 -13.0216
   -13.0137 -13.0124 -12.9994 -12.9915  -5.6583  -5.3212  -4.4995  -4.0295
     0.6679   1.6351   2.6849   2.9791   3.3822   4.6309   4.7544   5.0369
     5.3255   5.5149   6.0875   6.4643   6.7403   7.2633   7.4786   7.7534

     occupation numbers 
     1.0000   1.0000   1.0000   1.0000   1.0000   1.0000   1.0000   1.0000
     1.0000   1.0000   1.0000   1.0000   1.0000   1.0000   1.0000   1.0000
     1.0000   1.0000   1.0000   1.0000   1.0000   1.0000   1.0000   1.0000
     1.0000   1.0000   1.0000   1.0000   1.0000   1.0000   1.0000   1.0000
     1.0000   1.0000   1.0000   1.0000   1.0000   1.0000   1.0000   1.0000

          k = 0.1667 0.1647 0.4523 (  3901 PWs)   bands (ev):

   -13.1036 -13.0915 -13.0874 -13.0869 -13.0841 -13.0829 -13.0805 -13.0774
   -13.0671 -13.0650 -13.0617 -13.0613 -13.0514 -13.0439 -13.0228 -13.0204
   -13.0144 -13.0137 -12.9987 -12.9920  -5.5354  -5.2080  -4.5105  -4.0866
     0.3671   1.4261   2.0682   2.6992   3.4988   4.6579   4.8774   5.4786
     5.6386   6.0627   6.1102   6.5584   6.8981   7.2023   7.6358   7.8702

     occupation numbers 
     1.0000   1.0000   1.0000   1.0000   1.0000   1.0000   1.0000   1.0000
     1.0000   1.0000   1.0000   1.0000   1.0000   1.0000   1.0000   1.0000
     1.0000   1.0000   1.0000   1.0000   1.0000   1.0000   1.0000   1.0000
     1.0000   1.0000   1.0000   1.0000   1.0000   1.0000   1.0000   1.0000
     1.0000   1.0000   1.0000   1.0000   1.0000   1.0000   1.0000   1.0000

          k = 0.1667 0.1647 0.7539 (  3904 PWs)   bands (ev):

   -13.1002 -13.0913 -13.0887 -13.0873 -13.0856 -13.0833 -13.0810 -13.0787
   -13.0658 -13.0619 -13.0607 -13.0575 -13.0516 -13.0460 -13.0223 -13.0192
   -13.0159 -13.0154 -12.9975 -12.9931  -5.3117  -5.0043  -4.5718  -4.2183
     0.0899   0.9395   1.6180   2.2379   3.8057   4.8876   5.0823   5.7298
     6.0660   6.1672   6.4674   6.5594   7.0728   7.5215   7.6381   8.0900

     occupation numbers 
     1.0000   1.0000   1.0000   1.0000   1.0000   1.0000   1.0000   1.0000
     1.0000   1.0000   1.0000   1.0000   1.0000   1.0000   1.0000   1.0000
     1.0000   1.0000   1.0000   1.0000   1.0000   1.0000   1.0000   1.0000
     1.0000   1.0000   1.0000   1.0000   1.0000   1.0000   1.0000   1.0000
     1.0000   1.0000   1.0000   1.0000   1.0000   1.0000   1.0000   1.0000

          k = 0.1667 0.1647 1.0555 (  3896 PWs)   bands (ev):

   -13.0963 -13.0931 -13.0892 -13.0886 -13.0852 -13.0842 -13.0809 -13.0801
   -13.0642 -13.0628 -13.0563 -13.0542 -13.0520 -13.0490 -13.0208 -13.0185
   -13.0178 -13.0166 -12.9960 -12.9944  -5.0377  -4.8320  -4.6458  -4.4295
     0.0755   0.3890   1.5689   1.8069   4.2680   4.7582   5.4775   5.8025
     6.0435   6.2020   6.5498   6.7700   7.3656   7.6469   7.8604   7.9424

     occupation numbers 
     1.0000   1.0000   1.0000   1.0000   1.0000   1.0000   1.0000   1.0000
     1.0000   1.0000   1.0000   1.0000   1.0000   1.0000   1.0000   1.0000
     1.0000   1.0000   1.0000   1.0000   1.0000   1.0000   1.0000   1.0000
     1.0000   1.0000   1.0000   1.0000   1.0000   1.0000   1.0000   1.0000
     1.0000   1.0000   1.0000   1.0000   1.0000   1.0000   1.0000   1.0000

          k = 0.1667 0.4940 0.1508 (  3912 PWs)   bands (ev):

   -13.0993 -13.0907 -13.0887 -13.0862 -13.0826 -13.0823 -13.0802 -13.0792
   -13.0690 -13.0634 -13.0633 -13.0609 -13.0490 -13.0443 -13.0250 -13.0203
   -13.0169 -13.0107 -12.9997 -12.9935  -5.4909  -5.1786  -4.4423  -4.0543
     0.5397   1.4149   2.2909   2.4697   3.4928   4.4754   4.8168   5.1824
     5.4711   5.6545   6.1437   6.5204   6.6663   7.3473   7.6571   7.8508

     occupation numbers 
     1.0000   1.0000   1.0000   1.0000   1.0000   1.0000   1.0000   1.0000
     1.0000   1.0000   1.0000   1.0000   1.0000   1.0000   1.0000   1.0000
     1.0000   1.0000   1.0000   1.0000   1.0000   1.0000   1.0000   1.0000
     1.0000   1.0000   1.0000   1.0000   1.0000   1.0000   1.0000   1.0000
     1.0000   1.0000   1.0000   1.0000   1.0000   1.0000   1.0000   1.0000

          k = 0.1667 0.4940 0.4523 (  3913 PWs)   bands (ev):

   -13.0989 -13.0909 -13.0902 -13.0870 -13.0831 -13.0821 -13.0808 -13.0790
   -13.0682 -13.0636 -13.0611 -13.0584 -13.0494 -13.0445 -13.0245 -13.0204
   -13.0172 -13.0118 -12.9991 -12.9937  -5.3741  -5.0724  -4.4492  -4.0963
     0.3902   1.3773   1.9334   2.3211   3.6300   4.0739   4.4144   5.3828
     5.5645   6.1019   6.1769   6.4723   7.0446   7.2232   7.6502   7.8343

     occupation numbers 
     1.0000   1.0000   1.0000   1.0000   1.0000   1.0000   1.0000   1.0000
     1.0000   1.0000   1.0000   1.0000   1.0000   1.0000   1.0000   1.0000
     1.0000   1.0000   1.0000   1.0000   1.0000   1.0000   1.0000   1.0000
     1.0000   1.0000   1.0000   1.0000   1.0000   1.0000   1.0000   1.0000
     1.0000   1.0000   1.0000   1.0000   1.0000   1.0000   1.0000   1.0000

          k = 0.1667 0.4940 0.7539 (  3904 PWs)   bands (ev):

   -13.0983 -13.0929 -13.0909 -13.0883 -13.0842 -13.0819 -13.0809 -13.0785
   -13.0671 -13.0642 -13.0573 -13.0547 -13.0500 -13.0454 -13.0236 -13.0206
   -13.0172 -13.0135 -12.9980 -12.9944  -5.1636  -4.8835  -4.4989  -4.1990
     0.2395   1.0523   1.6530   2.1003   3.8805   4.0307   4.3664   5.2424
     5.3905   6.0551   6.1956   6.6991   6.9491   7.2633   7.4980   7.8550

     occupation numbers 
     1.0000   1.0000   1.0000   1.0000   1.0000   1.0000   1.0000   1.0000
     1.0000   1.0000   1.0000   1.0000   1.0000   1.0000   1.0000   1.0000
     1.0000   1.0000   1.0000   1.0000   1.0000   1.0000   1.0000   1.0000
     1.0000   1.0000   1.0000   1.0000   1.0000   1.0000   1.0000   1.0000
     1.0000   1.0000   1.0000   1.0000   1.0000   1.0000   1.0000   1.0000

          k = 0.1667 0.4940 1.0555 (  3895 PWs)   bands (ev):

   -13.0974 -13.0956 -13.0906 -13.0897 -13.0842 -13.0831 -13.0797 -13.0787
   -13.0660 -13.0650 -13.0536 -13.0512 -13.0507 -13.0475 -13.0224 -13.0213
   -13.0166 -13.0152 -12.9966 -12.9954  -4.9107  -4.7258  -4.5614  -4.3737
     0.2716   0.5684   1.6653   1.8410   4.1914   4.2671   4.5770   4.8876
     5.2507   5.5506   6.2492   6.5274   6.9802   7.2620   7.5605   7.7762

     occupation numbers 
     1.0000   1.0000   1.0000   1.0000   1.0000   1.0000   1.0000   1.0000
     1.0000   1.0000   1.0000   1.0000   1.0000   1.0000   1.0000   1.0000
     1.0000   1.0000   1.0000   1.0000   1.0000   1.0000   1.0000   1.0000
     1.0000   1.0000   1.0000   1.0000   1.0000   1.0000   1.0000   1.0000
     1.0000   1.0000   1.0000   1.0000   1.0000   1.0000   1.0000   1.0000

          k = 0.1667 0.8233 0.1508 (  3923 PWs)   bands (ev):

   -13.0958 -13.0933 -13.0924 -13.0912 -13.0798 -13.0778 -13.0757 -13.0744
   -13.0686 -13.0651 -13.0588 -13.0568 -13.0482 -13.0452 -13.0303 -13.0279
   -13.0128 -13.0077 -13.0001 -12.9967  -5.1824  -4.9284  -4.3908  -4.1641
     0.3778   1.1545   1.4647   1.9581   3.8366   4.5863   4.9799   5.3957
     5.6889   5.8278   6.2434   6.4469   6.7547   7.3144   7.4421   7.8625

     occupation numbers 
     1.0000   1.0000   1.0000   1.0000   1.0000   1.0000   1.0000   1.0000
     1.0000   1.0000   1.0000   1.0000   1.0000   1.0000   1.0000   1.0000
     1.0000   1.0000   1.0000   1.0000   1.0000   1.0000   1.0000   1.0000
     1.0000   1.0000   1.0000   1.0000   1.0000   1.0000   1.0000   1.0000
     1.0000   1.0000   1.0000   1.0000   1.0000   1.0000   1.0000   1.0000

          k = 0.1667 0.8233 0.4523 (  3922 PWs)   bands (ev):

   -13.0990 -13.0954 -13.0937 -13.0918 -13.0799 -13.0768 -13.0753 -13.0742
   -13.0674 -13.0652 -13.0572 -13.0550 -13.0489 -13.0446 -13.0297 -13.0277
   -13.0129 -13.0085 -12.9996 -12.9966  -5.0801  -4.8382  -4.3856  -4.1738
     0.4207   1.2465   1.5065   1.8309   3.8216   3.9417   4.3574   5.0567
     5.4867   6.0020   6.0502   6.5599   6.6248   7.1693   7.3055   7.6384

     occupation numbers 
     1.0000   1.0000   1.0000   1.0000   1.0000   1.0000   1.0000   1.0000
     1.0000   1.0000   1.0000   1.0000   1.0000   1.0000   1.0000   1.0000
     1.0000   1.0000   1.0000   1.0000   1.0000   1.0000   1.0000   1.0000
     1.0000   1.0000   1.0000   1.0000   1.0000   1.0000   1.0000   1.0000
     1.0000   1.0000   1.0000   1.0000   1.0000   1.0000   1.0000   1.0000

          k = 0.1667 0.8233 0.7539 (  3910 PWs)   bands (ev):

   -13.1022 -13.0994 -13.0950 -13.0935 -13.0794 -13.0758 -13.0752 -13.0739
   -13.0661 -13.0652 -13.0544 -13.0524 -13.0489 -13.0448 -13.0288 -13.0275
   -13.0127 -13.0097 -12.9987 -12.9966  -4.9009  -4.6829  -4.4058  -4.2156
     0.4930   1.1834   1.5852   1.7615   3.4448   3.8145   4.2427   4.5772
     4.9876   5.4571   5.7933   6.1979   6.5261   6.8936   7.2114   7.6101

     occupation numbers 
     1.0000   1.0000   1.0000   1.0000   1.0000   1.0000   1.0000   1.0000
     1.0000   1.0000   1.0000   1.0000   1.0000   1.0000   1.0000   1.0000
     1.0000   1.0000   1.0000   1.0000   1.0000   1.0000   1.0000   1.0000
     1.0000   1.0000   1.0000   1.0000   1.0000   1.0000   1.0000   1.0000
     1.0000   1.0000   1.0000   1.0000   1.0000   1.0000   1.0000   1.0000

          k = 0.1667 0.8233 1.0555 (  3904 PWs)   bands (ev):

   -13.1036 -13.1026 -13.0958 -13.0952 -13.0782 -13.0767 -13.0744 -13.0739
   -13.0654 -13.0652 -13.0519 -13.0509 -13.0479 -13.0460 -13.0280 -13.0275
   -13.0120 -13.0110 -12.9977 -12.9969  -4.6963  -4.5577  -4.4405  -4.3140
     0.6265   0.8771   1.7183   1.7725   3.4668   3.8133   3.9679   4.3120
     4.7657   5.1016   5.5902   5.9624   6.2441   6.5413   7.3077   7.4202

     occupation numbers 
     1.0000   1.0000   1.0000   1.0000   1.0000   1.0000   1.0000   1.0000
     1.0000   1.0000   1.0000   1.0000   1.0000   1.0000   1.0000   1.0000
     1.0000   1.0000   1.0000   1.0000   1.0000   1.0000   1.0000   1.0000
     1.0000   1.0000   1.0000   1.0000   1.0000   1.0000   1.0000   1.0000
     1.0000   1.0000   1.0000   1.0000   1.0000   1.0000   1.0000   1.0000

          k = 0.1667 1.1526 0.1508 (  3929 PWs)   bands (ev):

   -13.0984 -13.0973 -13.0944 -13.0934 -13.0750 -13.0736 -13.0726 -13.0706
   -13.0638 -13.0633 -13.0597 -13.0559 -13.0472 -13.0415 -13.0377 -13.0361
   -13.0069 -13.0044 -13.0014 -13.0011  -4.7926  -4.6472  -4.4445  -4.4191
     0.3972   0.7666   1.1336   1.4414   4.3401   4.7621   5.1879   5.5716
     5.7706   5.7970   6.2377   6.5926   6.8680   7.1512   7.1983   7.3832

     occupation numbers 
     1.0000   1.0000   1.0000   1.0000   1.0000   1.0000   1.0000   1.0000
     1.0000   1.0000   1.0000   1.0000   1.0000   1.0000   1.0000   1.0000
     1.0000   1.0000   1.0000   1.0000   1.0000   1.0000   1.0000   1.0000
     1.0000   1.0000   1.0000   1.0000   1.0000   1.0000   1.0000   1.0000
     1.0000   1.0000   1.0000   1.0000   1.0000   1.0000   1.0000   1.0000

          k = 0.1667 1.1526 0.4523 (  3929 PWs)   bands (ev):

   -13.1017 -13.1005 -13.0957 -13.0949 -13.0756 -13.0738 -13.0714 -13.0701
   -13.0628 -13.0624 -13.0584 -13.0552 -13.0467 -13.0424 -13.0359 -13.0350
   -13.0073 -13.0053 -13.0008 -13.0002  -4.7175  -4.5838  -4.4143  -4.3842
     0.5437   0.9035   1.2429   1.4602   4.0886   4.2700   4.5737   4.8500
     5.1533   5.5696   6.1233   6.3167   6.4488   6.7241   7.3500   7.5852

     occupation numbers 
     1.0000   1.0000   1.0000   1.0000   1.0000   1.0000   1.0000   1.0000
     1.0000   1.0000   1.0000   1.0000   1.0000   1.0000   1.0000   1.0000
     1.0000   1.0000   1.0000   1.0000   1.0000   1.0000   1.0000   1.0000
     1.0000   1.0000   1.0000   1.0000   1.0000   1.0000   1.0000   1.0000
     1.0000   1.0000   1.0000   1.0000   1.0000   1.0000   1.0000   1.0000

          k = 0.1667 1.1526 0.7539 (  3910 PWs)   bands (ev):

   -13.1058 -13.1048 -13.0978 -13.0973 -13.0759 -13.0743 -13.0702 -13.0695
   -13.0619 -13.0611 -13.0565 -13.0542 -13.0456 -13.0431 -13.0340 -13.0335
   -13.0076 -13.0063 -13.0000 -12.9995  -4.5946  -4.4838  -4.3811  -4.3416
     0.7939   1.1169   1.4055   1.4752   3.4502   3.9103   4.0341   4.2970
     4.7540   5.0433   5.4937   5.9431   6.0762   6.3177   7.2585   7.3761

     occupation numbers 
     1.0000   1.0000   1.0000   1.0000   1.0000   1.0000   1.0000   1.0000
     1.0000   1.0000   1.0000   1.0000   1.0000   1.0000   1.0000   1.0000
     1.0000   1.0000   1.0000   1.0000   1.0000   1.0000   1.0000   1.0000
     1.0000   1.0000   1.0000   1.0000   1.0000   1.0000   1.0000   1.0000
     1.0000   1.0000   1.0000   1.0000   1.0000   1.0000   1.0000   1.0000

          k = 0.1667 1.1526 1.0555 (  3902 PWs)   bands (ev):

   -13.1083 -13.1080 -13.0993 -13.0991 -13.0757 -13.0751 -13.0694 -13.0692
   -13.0610 -13.0606 -13.0549 -13.0540 -13.0443 -13.0435 -13.0328 -13.0326
   -13.0074 -13.0070 -12.9993 -12.9991  -4.4728  -4.4107  -4.3672  -4.3309
     1.0472   1.1948   1.5134   1.5551   3.2028   3.4108   3.8204   3.9245
     4.5816   4.6289   5.1426   5.4777   6.0378   6.2219   7.0823   7.1426

     occupation numbers 
     1.0000   1.0000   1.0000   1.0000   1.0000   1.0000   1.0000   1.0000
     1.0000   1.0000   1.0000   1.0000   1.0000   1.0000   1.0000   1.0000
     1.0000   1.0000   1.0000   1.0000   1.0000   1.0000   1.0000   1.0000
     1.0000   1.0000   1.0000   1.0000   1.0000   1.0000   1.0000   1.0000
     1.0000   1.0000   1.0000   1.0000   1.0000   1.0000   1.0000   1.0000

          k =-0.5000 0.1647 0.1508 (  3908 PWs)   bands (ev):

   -13.0995 -13.0995 -13.0852 -13.0852 -13.0848 -13.0848 -13.0771 -13.0771
   -13.0664 -13.0664 -13.0650 -13.0650 -13.0465 -13.0465 -13.0216 -13.0216
   -13.0133 -13.0133 -12.9952 -12.9952  -5.5207  -5.5207  -4.2333  -4.2333
     1.0096   1.0096   2.9085   2.9085   4.1111   4.1111   4.9589   4.9589
     5.5582   5.5582   6.1738   6.1738   6.5439   6.5439   7.6799   7.6799

     occupation numbers 
     1.0000   1.0000   1.0000   1.0000   1.0000   1.0000   1.0000   1.0000
     1.0000   1.0000   1.0000   1.0000   1.0000   1.0000   1.0000   1.0000
     1.0000   1.0000   1.0000   1.0000   1.0000   1.0000   1.0000   1.0000
     1.0000   1.0000   1.0000   1.0000   1.0000   1.0000   1.0000   1.0000
     1.0000   1.0000   1.0000   1.0000   1.0000   1.0000   1.0000   1.0000

          k =-0.5000 0.1647 0.4523 (  3904 PWs)   bands (ev):

   -13.0983 -13.0983 -13.0860 -13.0860 -13.0846 -13.0846 -13.0785 -13.0785
   -13.0646 -13.0646 -13.0635 -13.0635 -13.0471 -13.0471 -13.0213 -13.0213
   -13.0143 -13.0143 -12.9952 -12.9952  -5.4030  -5.4030  -4.2670  -4.2670
     0.7467   0.7467   2.4290   2.4290   4.3809   4.3809   5.0530   5.0530
     5.7498   5.7498   6.3349   6.3349   6.9665   6.9665   7.6035   7.6035

     occupation numbers 
     1.0000   1.0000   1.0000   1.0000   1.0000   1.0000   1.0000   1.0000
     1.0000   1.0000   1.0000   1.0000   1.0000   1.0000   1.0000   1.0000
     1.0000   1.0000   1.0000   1.0000   1.0000   1.0000   1.0000   1.0000
     1.0000   1.0000   1.0000   1.0000   1.0000   1.0000   1.0000   1.0000
     1.0000   1.0000   1.0000   1.0000   1.0000   1.0000   1.0000   1.0000

          k =-0.5000 0.1647 0.7539 (  3904 PWs)   bands (ev):

   -13.0963 -13.0963 -13.0877 -13.0877 -13.0841 -13.0841 -13.0804 -13.0804
   -13.0636 -13.0636 -13.0595 -13.0595 -13.0483 -13.0483 -13.0206 -13.0206
   -13.0158 -13.0158 -12.9952 -12.9952  -5.1921  -5.1921  -4.3614  -4.3614
     0.4513   0.4513   1.8756   1.8756   4.7108   4.7108   5.3461   5.3461
     5.8816   5.8816   6.5222   6.5222   7.1872   7.1872   7.7274   7.7274

     occupation numbers 
     1.0000   1.0000   1.0000   1.0000   1.0000   1.0000   1.0000   1.0000
     1.0000   1.0000   1.0000   1.0000   1.0000   1.0000   1.0000   1.0000
     1.0000   1.0000   1.0000   1.0000   1.0000   1.0000   1.0000   1.0000
     1.0000   1.0000   1.0000   1.0000   1.0000   1.0000   1.0000   1.0000
     1.0000   1.0000   1.0000   1.0000   1.0000   1.0000   1.0000   1.0000

          k =-0.5000 0.1647 1.0555 (  3888 PWs)   bands (ev):

   -13.0945 -13.0945 -13.0890 -13.0890 -13.0840 -13.0840 -13.0817 -13.0817
   -13.0630 -13.0630 -13.0556 -13.0556 -13.0501 -13.0501 -13.0194 -13.0194
   -13.0175 -13.0175 -12.9952 -12.9952  -4.9591  -4.9591  -4.5149  -4.5149
     0.2952   0.2952   1.5086   1.5086   5.1200   5.1200   5.6458   5.6458
     5.7322   5.7322   6.3840   6.3840   7.5139   7.5139   7.8129   7.8129

     occupation numbers 
     1.0000   1.0000   1.0000   1.0000   1.0000   1.0000   1.0000   1.0000
     1.0000   1.0000   1.0000   1.0000   1.0000   1.0000   1.0000   1.0000
     1.0000   1.0000   1.0000   1.0000   1.0000   1.0000   1.0000   1.0000
     1.0000   1.0000   1.0000   1.0000   1.0000   1.0000   1.0000   1.0000
     1.0000   1.0000   1.0000   1.0000   1.0000   1.0000   1.0000   1.0000

          k =-0.5000 0.4940 0.1508 (  3904 PWs)   bands (ev):

   -13.0951 -13.0951 -13.0879 -13.0879 -13.0819 -13.0819 -13.0798 -13.0798
   -13.0664 -13.0664 -13.0624 -13.0624 -13.0463 -13.0463 -13.0231 -13.0231
   -13.0133 -13.0133 -12.9964 -12.9964  -5.3627  -5.3627  -4.2192  -4.2192
     0.8662   0.8662   2.4076   2.4076   4.2334   4.2334   4.8819   4.8819
     5.8273   5.8273   6.0357   6.0357   6.6886   6.6886   7.8230   7.8230

     occupation numbers 
     1.0000   1.0000   1.0000   1.0000   1.0000   1.0000   1.0000   1.0000
     1.0000   1.0000   1.0000   1.0000   1.0000   1.0000   1.0000   1.0000
     1.0000   1.0000   1.0000   1.0000   1.0000   1.0000   1.0000   1.0000
     1.0000   1.0000   1.0000   1.0000   1.0000   1.0000   1.0000   1.0000
     1.0000   1.0000   1.0000   1.0000   1.0000   1.0000   1.0000   1.0000

          k =-0.5000 0.4940 0.4523 (  3916 PWs)   bands (ev):

   -13.0952 -13.0952 -13.0890 -13.0890 -13.0824 -13.0824 -13.0795 -13.0795
   -13.0660 -13.0660 -13.0599 -13.0599 -13.0468 -13.0468 -13.0230 -13.0230
   -13.0140 -13.0140 -12.9962 -12.9962  -5.2513  -5.2513  -4.2439  -4.2439
     0.7565   0.7565   2.1630   2.1630   4.1532   4.1532   4.8417   4.8417
     5.5198   5.5198   6.4300   6.4300   7.0392   7.0392   7.7186   7.7186

     occupation numbers 
     1.0000   1.0000   1.0000   1.0000   1.0000   1.0000   1.0000   1.0000
     1.0000   1.0000   1.0000   1.0000   1.0000   1.0000   1.0000   1.0000
     1.0000   1.0000   1.0000   1.0000   1.0000   1.0000   1.0000   1.0000
     1.0000   1.0000   1.0000   1.0000   1.0000   1.0000   1.0000   1.0000
     1.0000   1.0000   1.0000   1.0000   1.0000   1.0000   1.0000   1.0000

          k =-0.5000 0.4940 0.7539 (  3918 PWs)   bands (ev):

   -13.0952 -13.0952 -13.0912 -13.0912 -13.0822 -13.0822 -13.0792 -13.0792
   -13.0657 -13.0657 -13.0561 -13.0561 -13.0478 -13.0478 -13.0227 -13.0227
   -13.0150 -13.0150 -12.9959 -12.9959  -5.0538  -5.0538  -4.3189  -4.3189
     0.5880   0.5880   1.8424   1.8424   4.1365   4.1365   4.9988   4.9988
     5.3549   5.3549   6.5546   6.5546   6.9011   6.9011   7.6645   7.6645

     occupation numbers 
     1.0000   1.0000   1.0000   1.0000   1.0000   1.0000   1.0000   1.0000
     1.0000   1.0000   1.0000   1.0000   1.0000   1.0000   1.0000   1.0000
     1.0000   1.0000   1.0000   1.0000   1.0000   1.0000   1.0000   1.0000
     1.0000   1.0000   1.0000   1.0000   1.0000   1.0000   1.0000   1.0000
     1.0000   1.0000   1.0000   1.0000   1.0000   1.0000   1.0000   1.0000

          k =-0.5000 0.4940 1.0555 (  3898 PWs)   bands (ev):

   -13.0951 -13.0951 -13.0931 -13.0931 -13.0816 -13.0816 -13.0793 -13.0793
   -13.0655 -13.0655 -13.0523 -13.0523 -13.0494 -13.0494 -13.0224 -13.0224
   -13.0157 -13.0157 -12.9957 -12.9957  -4.8397  -4.8397  -4.4472  -4.4472
     0.4740   0.4740   1.6085   1.6085   4.3743   4.3743   4.8081   4.8081
     5.5634   5.5634   6.2273   6.2273   6.8689   6.8689   7.5035   7.5035

     occupation numbers 
     1.0000   1.0000   1.0000   1.0000   1.0000   1.0000   1.0000   1.0000
     1.0000   1.0000   1.0000   1.0000   1.0000   1.0000   1.0000   1.0000
     1.0000   1.0000   1.0000   1.0000   1.0000   1.0000   1.0000   1.0000
     1.0000   1.0000   1.0000   1.0000   1.0000   1.0000   1.0000   1.0000
     1.0000   1.0000   1.0000   1.0000   1.0000   1.0000   1.0000   1.0000

          k =-0.5000 0.8233 0.1508 (  3914 PWs)   bands (ev):

   -13.0953 -13.0953 -13.0911 -13.0911 -13.0781 -13.0781 -13.0761 -13.0761
   -13.0665 -13.0665 -13.0581 -13.0581 -13.0464 -13.0464 -13.0293 -13.0293
   -13.0101 -13.0101 -12.9984 -12.9984  -5.0763  -5.0763  -4.2554  -4.2554
     0.6911   0.6911   1.6990   1.6990   4.5102   4.5102   5.0698   5.0698
     5.9706   5.9706   6.1357   6.1357   6.6695   6.6695   7.6422   7.6422

     occupation numbers 
     1.0000   1.0000   1.0000   1.0000   1.0000   1.0000   1.0000   1.0000
     1.0000   1.0000   1.0000   1.0000   1.0000   1.0000   1.0000   1.0000
     1.0000   1.0000   1.0000   1.0000   1.0000   1.0000   1.0000   1.0000
     1.0000   1.0000   1.0000   1.0000   1.0000   1.0000   1.0000   1.0000
     1.0000   1.0000   1.0000   1.0000   1.0000   1.0000   1.0000   1.0000

          k =-0.5000 0.8233 0.4523 (  3918 PWs)   bands (ev):

   -13.0971 -13.0971 -13.0931 -13.0931 -13.0778 -13.0778 -13.0751 -13.0751
   -13.0662 -13.0662 -13.0563 -13.0563 -13.0464 -13.0464 -13.0292 -13.0292
   -13.0103 -13.0103 -12.9981 -12.9981  -4.9799  -4.9799  -4.2583  -4.2583
     0.7548   0.7548   1.6706   1.6706   4.0228   4.0228   4.9260   4.9260
     5.4028   5.4028   6.3736   6.3736   6.6245   6.6245   7.5606   7.5606

     occupation numbers 
     1.0000   1.0000   1.0000   1.0000   1.0000   1.0000   1.0000   1.0000
     1.0000   1.0000   1.0000   1.0000   1.0000   1.0000   1.0000   1.0000
     1.0000   1.0000   1.0000   1.0000   1.0000   1.0000   1.0000   1.0000
     1.0000   1.0000   1.0000   1.0000   1.0000   1.0000   1.0000   1.0000
     1.0000   1.0000   1.0000   1.0000   1.0000   1.0000   1.0000   1.0000

          k =-0.5000 0.8233 0.7539 (  3920 PWs)   bands (ev):

   -13.0995 -13.0995 -13.0961 -13.0961 -13.0770 -13.0770 -13.0743 -13.0743
   -13.0659 -13.0659 -13.0538 -13.0538 -13.0463 -13.0463 -13.0290 -13.0290
   -13.0106 -13.0106 -12.9977 -12.9977  -4.8138  -4.8138  -4.2889  -4.2889
     0.8022   0.8022   1.6467   1.6467   3.6917   3.6917   4.5694   4.5694
     5.1348   5.1348   5.8716   5.8716   6.6008   6.6008   7.4765   7.4765

     occupation numbers 
     1.0000   1.0000   1.0000   1.0000   1.0000   1.0000   1.0000   1.0000
     1.0000   1.0000   1.0000   1.0000   1.0000   1.0000   1.0000   1.0000
     1.0000   1.0000   1.0000   1.0000   1.0000   1.0000   1.0000   1.0000
     1.0000   1.0000   1.0000   1.0000   1.0000   1.0000   1.0000   1.0000
     1.0000   1.0000   1.0000   1.0000   1.0000   1.0000   1.0000   1.0000

          k =-0.5000 0.8233 1.0555 (  3910 PWs)   bands (ev):

   -13.1010 -13.1010 -13.0982 -13.0982 -13.0760 -13.0760 -13.0743 -13.0743
   -13.0657 -13.0657 -13.0520 -13.0520 -13.0461 -13.0461 -13.0288 -13.0288
   -13.0108 -13.0108 -12.9974 -12.9974  -4.6423  -4.6423  -4.3624  -4.3624
     0.7865   0.7865   1.6647   1.6647   3.7042   3.7042   4.0830   4.0830
     5.1451   5.1451   5.4768   5.4768   6.6411   6.6411   7.1743   7.1743

     occupation numbers 
     1.0000   1.0000   1.0000   1.0000   1.0000   1.0000   1.0000   1.0000
     1.0000   1.0000   1.0000   1.0000   1.0000   1.0000   1.0000   1.0000
     1.0000   1.0000   1.0000   1.0000   1.0000   1.0000   1.0000   1.0000
     1.0000   1.0000   1.0000   1.0000   1.0000   1.0000   1.0000   1.0000
     1.0000   1.0000   1.0000   1.0000   1.0000   1.0000   1.0000   1.0000

          k =-0.5000 1.1526 0.1508 (  3946 PWs)   bands (ev):

   -13.0968 -13.0968 -13.0953 -13.0953 -13.0735 -13.0735 -13.0727 -13.0727
   -13.0628 -13.0628 -13.0579 -13.0579 -13.0439 -13.0439 -13.0374 -13.0374
   -13.0055 -13.0055 -13.0013 -13.0013  -4.7286  -4.7286  -4.4240  -4.4240
     0.7142   0.7142   1.0712   1.0712   4.9663   4.9663   5.3267   5.3267
     5.8427   5.8427   6.1044   6.1044   6.7888   6.7888   7.1976   7.1976

     occupation numbers 
     1.0000   1.0000   1.0000   1.0000   1.0000   1.0000   1.0000   1.0000
     1.0000   1.0000   1.0000   1.0000   1.0000   1.0000   1.0000   1.0000
     1.0000   1.0000   1.0000   1.0000   1.0000   1.0000   1.0000   1.0000
     1.0000   1.0000   1.0000   1.0000   1.0000   1.0000   1.0000   1.0000
     1.0000   1.0000   1.0000   1.0000   1.0000   1.0000   1.0000   1.0000

          k =-0.5000 1.1526 0.4523 (  3932 PWs)   bands (ev):

   -13.0991 -13.0991 -13.0977 -13.0977 -13.0733 -13.0733 -13.0723 -13.0723
   -13.0621 -13.0621 -13.0571 -13.0571 -13.0432 -13.0432 -13.0367 -13.0367
   -13.0055 -13.0055 -13.0011 -13.0011  -4.6590  -4.6590  -4.3916  -4.3916
     0.8433   0.8433   1.1634   1.1634   4.2947   4.2947   4.8444   4.8444
     5.4335   5.4335   5.8765   5.8765   6.7314   6.7314   7.1791   7.1791

     occupation numbers 
     1.0000   1.0000   1.0000   1.0000   1.0000   1.0000   1.0000   1.0000
     1.0000   1.0000   1.0000   1.0000   1.0000   1.0000   1.0000   1.0000
     1.0000   1.0000   1.0000   1.0000   1.0000   1.0000   1.0000   1.0000
     1.0000   1.0000   1.0000   1.0000   1.0000   1.0000   1.0000   1.0000
     1.0000   1.0000   1.0000   1.0000   1.0000   1.0000   1.0000   1.0000

          k =-0.5000 1.1526 0.7539 (  3916 PWs)   bands (ev):

   -13.1023 -13.1023 -13.1010 -13.1010 -13.0731 -13.0731 -13.0720 -13.0720
   -13.0612 -13.0612 -13.0561 -13.0561 -13.0419 -13.0419 -13.0358 -13.0358
   -13.0054 -13.0054 -13.0008 -13.0008  -4.5476  -4.5476  -4.3534  -4.3534
     1.0319   1.0319   1.3183   1.3183   3.7466   3.7466   4.2649   4.2649
     4.8555   4.8555   5.3230   5.3230   6.7114   6.7114   7.0899   7.0899

     occupation numbers 
     1.0000   1.0000   1.0000   1.0000   1.0000   1.0000   1.0000   1.0000
     1.0000   1.0000   1.0000   1.0000   1.0000   1.0000   1.0000   1.0000
     1.0000   1.0000   1.0000   1.0000   1.0000   1.0000   1.0000   1.0000
     1.0000   1.0000   1.0000   1.0000   1.0000   1.0000   1.0000   1.0000
     1.0000   1.0000   1.0000   1.0000   1.0000   1.0000   1.0000   1.0000

          k =-0.5000 1.1526 1.0555 (  3900 PWs)   bands (ev):

   -13.1045 -13.1045 -13.1033 -13.1033 -13.0729 -13.0729 -13.0720 -13.0720
   -13.0605 -13.0605 -13.0554 -13.0554 -13.0408 -13.0408 -13.0351 -13.0351
   -13.0053 -13.0053 -13.0006 -13.0006  -4.4472  -4.4472  -4.3437  -4.3437
     1.1445   1.1445   1.4769   1.4769   3.5766   3.5766   3.8199   3.8199
     4.5127   4.5127   4.7841   4.7841   6.8231   6.8231   7.0148   7.0148

     occupation numbers 
     1.0000   1.0000   1.0000   1.0000   1.0000   1.0000   1.0000   1.0000
     1.0000   1.0000   1.0000   1.0000   1.0000   1.0000   1.0000   1.0000
     1.0000   1.0000   1.0000   1.0000   1.0000   1.0000   1.0000   1.0000
     1.0000   1.0000   1.0000   1.0000   1.0000   1.0000   1.0000   1.0000
     1.0000   1.0000   1.0000   1.0000   1.0000   1.0000   1.0000   1.0000

     highest occupied level (ev):     8.0900

!    total energy              =    -827.72398802 Ry
     estimated scf accuracy    <          8.2E-09 Ry

     The total energy is the sum of the following terms:
     one-electron contribution =    -256.10721044 Ry
     hartree contribution      =     179.11746464 Ry
     xc contribution           =    -309.21811703 Ry
     ewald contribution        =    -441.39213881 Ry
     DFT-D3 Dispersion         =      -0.12398639 Ry

     convergence has been achieved in   9 iterations

     Forces acting on atoms (cartesian axes, Ry/au):

     atom    1 type  2   force =     0.01978809   -0.00000000    0.00247546
     atom    2 type  1   force =    -0.01995543    0.00000000   -0.00028033
     atom    3 type  2   force =    -0.01978809   -0.00000000    0.00247546
     atom    4 type  1   force =     0.01995543    0.00000000   -0.00028033
     atom    5 type  2   force =     0.01978809   -0.00000000   -0.00247546
     atom    6 type  1   force =    -0.01995543    0.00000000    0.00028033
     atom    7 type  2   force =    -0.01978809    0.00000000   -0.00247546
     atom    8 type  1   force =     0.01995543   -0.00000000    0.00028033
     The non-local contrib.  to forces
     atom    1 type  2   force =    -0.10806775    0.00000000    0.11314248
     atom    2 type  1   force =     0.35606037    0.00000000    0.30485682
     atom    3 type  2   force =     0.10806775    0.00000000    0.11314248
     atom    4 type  1   force =    -0.35606037    0.00000000    0.30485682
     atom    5 type  2   force =    -0.10806775    0.00000000   -0.11314248
     atom    6 type  1   force =     0.35606037    0.00000000   -0.30485682
     atom    7 type  2   force =     0.10806775    0.00000000   -0.11314248
     atom    8 type  1   force =    -0.35606037    0.00000000   -0.30485682
     The ionic contribution  to forces
     atom    1 type  2   force =     1.51862189   -0.00000000   -1.11681442
     atom    2 type  1   force =    -0.70496967    0.00000000   -0.51639391
     atom    3 type  2   force =    -1.51862189    0.00000000   -1.11681442
     atom    4 type  1   force =     0.70496967   -0.00000000   -0.51639391
     atom    5 type  2   force =     1.51862189    0.00000000    1.11681442
     atom    6 type  1   force =    -0.70496967    0.00000000    0.51639391
     atom    7 type  2   force =    -1.51862189   -0.00000000    1.11681442
     atom    8 type  1   force =     0.70496967   -0.00000000    0.51639391
     The local contribution  to forces
     atom    1 type  2   force =    -1.40143278    0.00000000    1.01764856
     atom    2 type  1   force =     0.33347117   -0.00000000    0.21589741
     atom    3 type  2   force =     1.40143278   -0.00000000    1.01764856
     atom    4 type  1   force =    -0.33347117   -0.00000000    0.21589741
     atom    5 type  2   force =    -1.40143278    0.00000000   -1.01764856
     atom    6 type  1   force =     0.33347117   -0.00000000   -0.21589741
     atom    7 type  2   force =     1.40143278    0.00000000   -1.01764856
     atom    8 type  1   force =    -0.33347117   -0.00000000   -0.21589741
     The core correction contribution to forces
     atom    1 type  2   force =     0.01162821   -0.00000000   -0.01284404
     atom    2 type  1   force =    -0.00391079   -0.00000000   -0.00571574
     atom    3 type  2   force =    -0.01162821   -0.00000000   -0.01284404
     atom    4 type  1   force =     0.00391079    0.00000000   -0.00571574
     atom    5 type  2   force =     0.01162821   -0.00000000    0.01284404
     atom    6 type  1   force =    -0.00391079   -0.00000000    0.00571574
     atom    7 type  2   force =    -0.01162821   -0.00000000    0.01284404
     atom    8 type  1   force =     0.00391079   -0.00000000    0.00571574
     The Hubbard contrib.    to forces
     atom    1 type  2   force =     0.00000000    0.00000000    0.00000000
     atom    2 type  1   force =     0.00000000    0.00000000    0.00000000
     atom    3 type  2   force =     0.00000000    0.00000000    0.00000000
     atom    4 type  1   force =     0.00000000    0.00000000    0.00000000
     atom    5 type  2   force =     0.00000000    0.00000000    0.00000000
     atom    6 type  1   force =     0.00000000    0.00000000    0.00000000
     atom    7 type  2   force =     0.00000000    0.00000000    0.00000000
     atom    8 type  1   force =     0.00000000    0.00000000    0.00000000
     The SCF correction term to forces
     atom    1 type  2   force =    -0.00001373    0.00000000   -0.00001382
     atom    2 type  1   force =     0.00007120    0.00000000    0.00000854
     atom    3 type  2   force =     0.00001373    0.00000000   -0.00001382
     atom    4 type  1   force =    -0.00007120    0.00000000    0.00000854
     atom    5 type  2   force =    -0.00001373   -0.00000000    0.00001382
     atom    6 type  1   force =     0.00007120   -0.00000000   -0.00000854
     atom    7 type  2   force =     0.00001373   -0.00000000    0.00001382
     atom    8 type  1   force =    -0.00007120   -0.00000000   -0.00000854

     DFT-D3 dispersion contribution to forces:
     atom    1 type  2   force =    -0.00094776   -0.00000000    0.00135670
     atom    2 type  1   force =    -0.00067771   -0.00000000    0.00106654
     atom    3 type  2   force =     0.00094776    0.00000000    0.00135670
     atom    4 type  1   force =     0.00067771    0.00000000    0.00106654
     atom    5 type  2   force =    -0.00094776   -0.00000000   -0.00135670
     atom    6 type  1   force =    -0.00067771   -0.00000000   -0.00106654
     atom    7 type  2   force =     0.00094776    0.00000000   -0.00135670
     atom    8 type  1   force =     0.00067771    0.00000000   -0.00106654

     Total force =     0.056427     Total SCF correction =     0.000149

     DFT-D3 dispersion Force =     0.004164

     Writing all to output data dir ./tmp/SnSe_pnma.save/ :
     XML data file, charge density, pseudopotentials, collected wavefunctions
 
     init_run     :      0.97s CPU      1.08s WALL (       1 calls)
     electrons    :     17.79s CPU     18.88s WALL (       1 calls)
     forces       :      0.47s CPU      0.54s WALL (       1 calls)
     force_dftd3  :      0.06s CPU      0.06s WALL (       1 calls)

     Called by init_run:
     wfcinit      :      0.50s CPU      0.52s WALL (       1 calls)
     wfcinit:atom :      0.01s CPU      0.01s WALL (      11 calls)
     wfcinit:wfcr :      0.44s CPU      0.44s WALL (      11 calls)
     potinit      :      0.11s CPU      0.13s WALL (       1 calls)
     hinit0       :      0.15s CPU      0.15s WALL (       1 calls)

     Called by electrons:
     c_bands      :     12.97s CPU     13.14s WALL (       9 calls)
     sum_band     :      3.05s CPU      3.54s WALL (       9 calls)
     v_of_rho     :      0.54s CPU      0.57s WALL (      10 calls)
     v_h          :      0.04s CPU      0.04s WALL (      10 calls)
     v_xc         :      0.55s CPU      0.59s WALL (      11 calls)
     newd         :      1.30s CPU      1.71s WALL (      10 calls)
     mix_rho      :      0.05s CPU      0.07s WALL (       9 calls)
     energy_dftd3 :      0.04s CPU      0.04s WALL (       1 calls)

     Called by c_bands:
     init_us_2    :      0.39s CPU      0.40s WALL (     220 calls)
     cegterg      :     11.06s CPU     11.18s WALL (      99 calls)

     Called by sum_band:
     sum_band:wei :      0.00s CPU      0.00s WALL (       9 calls)
     sum_band:loo :      1.72s CPU      1.72s WALL (       9 calls)
     sum_band:buf :      0.03s CPU      0.03s WALL (      99 calls)
     sum_band:ini :      0.18s CPU      0.18s WALL (      99 calls)
     sum_band:cal :      0.25s CPU      0.25s WALL (      99 calls)
     sum_band:bec :      0.01s CPU      0.01s WALL (      99 calls)
     addusdens    :      1.12s CPU      1.58s WALL (       9 calls)
                                        0.00s GPU  (       9 calls)
     addusd:skk   :      0.01s CPU      0.01s WALL (      18 calls)
                                        0.00s GPU  (      18 calls)

     Called by *egterg:
     cdiaghg      :      0.64s CPU      0.64s WALL (     415 calls)
     cegterg:over :      0.61s CPU      0.61s WALL (     316 calls)
     cegterg:upda :      0.33s CPU      0.33s WALL (     316 calls)
     cegterg:last :      0.79s CPU      0.79s WALL (     242 calls)
     h_psi        :      7.89s CPU      7.96s WALL (     426 calls)
     s_psi        :      0.83s CPU      0.84s WALL (     426 calls)
     g_psi        :      0.03s CPU      0.03s WALL (     316 calls)

     Called by h_psi:
     h_psi:calbec :      0.82s CPU      0.82s WALL (     426 calls)
     vloc_psi     :      6.12s CPU      6.18s WALL (     426 calls)
     add_vuspsi   :      0.87s CPU      0.88s WALL (     426 calls)

     General routines
     calbec       :      1.19s CPU      1.20s WALL (     569 calls)
     fft          :      0.24s CPU      0.27s WALL (     139 calls)
     ffts         :      0.01s CPU      0.01s WALL (      19 calls)
     fftw         :      5.02s CPU      5.05s WALL (   28348 calls)
     interpolate  :      0.03s CPU      0.03s WALL (      10 calls)
 
     Parallel routines
 
     PWSCF        :     19.56s CPU     21.23s WALL

 
   This run was terminated on:  15: 3:16  20May2026            

=------------------------------------------------------------------------------=
   JOB DONE.
=------------------------------------------------------------------------------=
