
     Program PWSCF v.7.3.1 starts on 19May2026 at 22:40:18 

     This program is part of the open-source Quantum ESPRESSO suite
     for quantum simulation of materials; please cite
         "P. Giannozzi et al., J. Phys.:Condens. Matter 21 395502 (2009);
         "P. Giannozzi et al., J. Phys.:Condens. Matter 29 465901 (2017);
         "P. Giannozzi et al., J. Chem. Phys. 152 154105 (2020);
          URL http://www.quantum-espresso.org", 
     in publications or presentations arising from this work. More details at
     http://www.quantum-espresso.org/quote

     Parallel version (MPI & OpenMP), running on       6 processor cores
     Number of MPI processes:                 6
     Threads/MPI process:                     1

     MPI processes distributed on     1 nodes
     11467 MiB available memory on the printing compute node when the environment starts
 
     Waiting for input...
     Reading input from standard input

     Current dimensions of program PWSCF are:
     Max number of different atomic species (ntypx) = 10
     Max number of k-points (npk) =  40000
     Max angular momentum in pseudopotentials (lmaxx) =  4
 
     K-points division:     npool     =       3
     R & G space division:  proc/nbgrp/npool/nimage =       2
     Subspace diagonalization in iterative solution of the eigenvalue problem:
     a serial algorithm will be used

 
     Parallelization info
     --------------------
     sticks:   dense  smooth     PW     G-vecs:    dense   smooth      PW
     Min        4123    1653    472               184613    46710    7055
     Max        4124    1654    473               184616    46711    7056
     Sum        8247    3307    945               369229    93421   14111
 
     Using Slab Decomposition
 


     bravais-lattice index     =            8
     lattice parameter (alat)  =      21.9208  a.u.
     unit-cell volume          =    1487.5531 (a.u.)^3
     number of atoms/cell      =            8
     number of atomic types    =            2
     number of electrons       =        80.00
     number of Kohn-Sham states=           40
     kinetic-energy cutoff     =      60.0000  Ry
     charge density cutoff     =     600.0000  Ry
     scf convergence threshold =      1.0E-08
     mixing beta               =       0.7000
     number of iterations used =            8  plain     mixing
     Exchange-correlation= SLA  PW   PBE  PBE
                           (   1   4   3   4   0   0   0)

     celldm(1)=  21.920823  celldm(2)=   0.359603  celldm(3)=   0.392716
     celldm(4)=   0.000000  celldm(5)=   0.000000  celldm(6)=   0.000000

     crystal axes: (cart. coord. in units of alat)
               a(1) = (   1.000000   0.000000   0.000000 )  
               a(2) = (   0.000000   0.359603   0.000000 )  
               a(3) = (   0.000000   0.000000   0.392716 )  

     reciprocal axes: (cart. coord. in units 2 pi/alat)
               b(1) = (  1.000000  0.000000  0.000000 )  
               b(2) = (  0.000000  2.780841  0.000000 )  
               b(3) = (  0.000000  0.000000  2.546373 )  


     PseudoPot. # 1 for Sn read from file:
     ../pseudo/Sn_pbe_v1.uspp.F.UPF
     MD5 check sum: 4cf58ce39ec5d5d420df3dd08604eb00
     Pseudo is Ultrasoft + core correction, Zval = 14.0
     Generated by new atomic code, or converted to UPF format
     Using radial grid of  891 points,  6 beta functions with: 
                l(1) =   0
                l(2) =   0
                l(3) =   1
                l(4) =   1
                l(5) =   2
                l(6) =   2
     Q(r) pseudized with  6 coefficients,  rinner =    1.200   1.200   1.200
                                                       1.200   1.200

     PseudoPot. # 2 for Se read from file:
     ../pseudo/Se_pbe_v1.uspp.F.UPF
     MD5 check sum: 1b3568f3a8ae88f9a2a0ad0698632c85
     Pseudo is Ultrasoft + core correction, Zval =  6.0
     Generated by new atomic code, or converted to UPF format
     Using radial grid of  877 points,  6 beta functions with: 
                l(1) =   0
                l(2) =   0
                l(3) =   1
                l(4) =   1
                l(5) =   2
                l(6) =   2
     Q(r) pseudized with  8 coefficients,  rinner =    1.300   1.300   1.300
                                                       1.300   1.300

     atomic species   valence    mass     pseudopotential
     Sn               14.00   118.71000     Sn( 1.00)
     Se                6.00    78.97100     Se( 1.00)

      8 Sym. Ops., with inversion, found ( 6 have fractional translation)


                                    s                        frac. trans.

      isym =  1     identity                                     

 cryst.   s( 1) = (     1          0          0      )
                  (     0          1          0      )
                  (     0          0          1      )

 cart.    s( 1) = (  1.0000000  0.0000000  0.0000000 )
                  (  0.0000000  1.0000000  0.0000000 )
                  (  0.0000000  0.0000000  1.0000000 )


      isym =  2     180 deg rotation - cart. axis [0,0,1]        

 cryst.   s( 2) = (    -1          0          0      )    f =(  0.5000000 )
                  (     0         -1          0      )       (  0.0000000 )
                  (     0          0          1      )       ( -0.5000000 )

 cart.    s( 2) = ( -1.0000000  0.0000000  0.0000000 )    f =(  0.5000000 )
                  (  0.0000000 -1.0000000  0.0000000 )       (  0.0000000 )
                  (  0.0000000  0.0000000  1.0000000 )       ( -0.1963578 )


      isym =  3     180 deg rotation - cart. axis [0,1,0]        

 cryst.   s( 3) = (    -1          0          0      )    f =(  0.0000000 )
                  (     0          1          0      )       ( -0.5000000 )
                  (     0          0         -1      )       (  0.0000000 )

 cart.    s( 3) = ( -1.0000000  0.0000000  0.0000000 )    f =(  0.0000000 )
                  (  0.0000000  1.0000000  0.0000000 )       ( -0.1798017 )
                  (  0.0000000  0.0000000 -1.0000000 )       (  0.0000000 )


      isym =  4     180 deg rotation - cart. axis [1,0,0]        

 cryst.   s( 4) = (     1          0          0      )    f =(  0.5000000 )
                  (     0         -1          0      )       ( -0.5000000 )
                  (     0          0         -1      )       (  0.5000000 )

 cart.    s( 4) = (  1.0000000  0.0000000  0.0000000 )    f =(  0.5000000 )
                  (  0.0000000 -1.0000000  0.0000000 )       ( -0.1798017 )
                  (  0.0000000  0.0000000 -1.0000000 )       (  0.1963578 )


      isym =  5     inversion                                    

 cryst.   s( 5) = (    -1          0          0      )
                  (     0         -1          0      )
                  (     0          0         -1      )

 cart.    s( 5) = ( -1.0000000  0.0000000  0.0000000 )
                  (  0.0000000 -1.0000000  0.0000000 )
                  (  0.0000000  0.0000000 -1.0000000 )


      isym =  6     inv. 180 deg rotation - cart. axis [0,0,1]   

 cryst.   s( 6) = (     1          0          0      )    f =(  0.5000000 )
                  (     0          1          0      )       (  0.0000000 )
                  (     0          0         -1      )       (  0.5000000 )

 cart.    s( 6) = (  1.0000000  0.0000000  0.0000000 )    f =(  0.5000000 )
                  (  0.0000000  1.0000000  0.0000000 )       (  0.0000000 )
                  (  0.0000000  0.0000000 -1.0000000 )       (  0.1963578 )


      isym =  7     inv. 180 deg rotation - cart. axis [0,1,0]   

 cryst.   s( 7) = (     1          0          0      )    f =(  0.0000000 )
                  (     0         -1          0      )       ( -0.5000000 )
                  (     0          0          1      )       (  0.0000000 )

 cart.    s( 7) = (  1.0000000  0.0000000  0.0000000 )    f =(  0.0000000 )
                  (  0.0000000 -1.0000000  0.0000000 )       ( -0.1798017 )
                  (  0.0000000  0.0000000  1.0000000 )       (  0.0000000 )


      isym =  8     inv. 180 deg rotation - cart. axis [1,0,0]   

 cryst.   s( 8) = (    -1          0          0      )    f =(  0.5000000 )
                  (     0          1          0      )       ( -0.5000000 )
                  (     0          0          1      )       ( -0.5000000 )

 cart.    s( 8) = ( -1.0000000  0.0000000  0.0000000 )    f =(  0.5000000 )
                  (  0.0000000  1.0000000  0.0000000 )       ( -0.1798017 )
                  (  0.0000000  0.0000000  1.0000000 )       ( -0.1963578 )


     point group D_2h (mmm) 
     there are  8 classes
     the character table:

       E     C2    C2'   C2''  i     s_v   s_v'  s_v''
A_g    1.00  1.00  1.00  1.00  1.00  1.00  1.00  1.00
B_1g   1.00  1.00 -1.00 -1.00  1.00  1.00 -1.00 -1.00
B_2g   1.00 -1.00  1.00 -1.00  1.00 -1.00  1.00 -1.00
B_3g   1.00 -1.00 -1.00  1.00  1.00 -1.00 -1.00  1.00
A_u    1.00  1.00  1.00  1.00 -1.00 -1.00 -1.00 -1.00
B_1u   1.00  1.00 -1.00 -1.00 -1.00 -1.00  1.00  1.00
B_2u   1.00 -1.00  1.00 -1.00 -1.00  1.00 -1.00  1.00
B_3u   1.00 -1.00 -1.00  1.00 -1.00  1.00  1.00 -1.00

     the symmetry operations in each class and the name of the first element:

     E        1
          identity                                               
     C2       2
          180 deg rotation - cart. axis [0,0,1]                  
     C2'      4
          180 deg rotation - cart. axis [1,0,0]                  
     C2''     3
          180 deg rotation - cart. axis [0,1,0]                  
     i        5
          inversion                                              
     s_v      6
          inv. 180 deg rotation - cart. axis [0,0,1]             
     s_v'     8
          inv. 180 deg rotation - cart. axis [1,0,0]             
     s_v''    7
          inv. 180 deg rotation - cart. axis [0,1,0]             

   Cartesian axes

     site n.     atom                  positions (alat units)
         1        Se     tau(   1) = (   0.8549563   0.0899009   0.1897790  )
         2        Sn     tau(   2) = (   0.1165395   0.0899009   0.0440969  )
         3        Se     tau(   3) = (   0.6450437   0.2697026   0.3861368  )
         4        Sn     tau(   4) = (   0.3834605   0.2697026   0.2404546  )
         5        Se     tau(   5) = (   0.3549563   0.0899009   0.0065787  )
         6        Sn     tau(   6) = (   0.6165395   0.0899009   0.1522609  )
         7        Se     tau(   7) = (   0.1450437   0.2697026   0.2029365  )
         8        Sn     tau(   8) = (   0.8834605   0.2697026   0.3486187  )

     --------------------------------------------
     DFT-D3 Dispersion Correction (3-body terms):
     --------------------------------------------
       Reference C6 values for interpolation: 

         atom   Coordination number   C6
         Se         0.000           427.35
         Se         0.990           427.57
         Se         1.981           421.05
         Sn         0.000          1255.14
         Sn         0.951          1084.09
         Sn         1.950          1010.83
         Sn         2.926           818.29
         Sn         3.912           672.20

       Values used:

         atom   Coordination number  R0_AB[au]  C6      C8
         Se         3.393            3.332    421.05  29958.36
         Sn         4.071            3.957    672.99  84468.28
         Se         3.393            3.332    421.05  29958.36
         Sn         4.071            3.957    672.99  84468.28
         Se         3.393            3.332    421.05  29958.36
         Sn         4.071            3.957    672.99  84468.28
         Se         3.393            3.332    421.05  29958.36
         Sn         4.071            3.957    672.99  84468.28

         Molecular C6 ( Ry / a.u.^6 ) =     34518.66


   Crystallographic axes

     site n.     atom                  positions (cryst. coord.)
         1        Se     tau(   1) = (  0.8549563  0.2500000  0.4832481  )
         2        Sn     tau(   2) = (  0.1165395  0.2500000  0.1122870  )
         3        Se     tau(   3) = (  0.6450437  0.7500000  0.9832481  )
         4        Sn     tau(   4) = (  0.3834605  0.7500000  0.6122870  )
         5        Se     tau(   5) = (  0.3549563  0.2500000  0.0167519  )
         6        Sn     tau(   6) = (  0.6165395  0.2500000  0.3877130  )
         7        Se     tau(   7) = (  0.1450437  0.7500000  0.5167519  )
         8        Sn     tau(   8) = (  0.8834605  0.7500000  0.8877130  )

     number of k points=    32
                       cart. coord. in units 2pi/alat
        k(    1) = (   0.1666667   0.1738026   0.1591483), wk =   0.0833333
        k(    2) = (   0.1666667   0.1738026   0.4774448), wk =   0.0833333
        k(    3) = (   0.1666667   0.1738026   0.7957414), wk =   0.0833333
        k(    4) = (   0.1666667   0.1738026   1.1140380), wk =   0.0833333
        k(    5) = (   0.1666667   0.5214077   0.1591483), wk =   0.0833333
        k(    6) = (   0.1666667   0.5214077   0.4774448), wk =   0.0833333
        k(    7) = (   0.1666667   0.5214077   0.7957414), wk =   0.0833333
        k(    8) = (   0.1666667   0.5214077   1.1140380), wk =   0.0833333
        k(    9) = (   0.1666667   0.8690128   0.1591483), wk =   0.0833333
        k(   10) = (   0.1666667   0.8690128   0.4774448), wk =   0.0833333
        k(   11) = (   0.1666667   0.8690128   0.7957414), wk =   0.0833333
        k(   12) = (   0.1666667   0.8690128   1.1140380), wk =   0.0833333
        k(   13) = (   0.1666667   1.2166179   0.1591483), wk =   0.0833333
        k(   14) = (   0.1666667   1.2166179   0.4774448), wk =   0.0833333
        k(   15) = (   0.1666667   1.2166179   0.7957414), wk =   0.0833333
        k(   16) = (   0.1666667   1.2166179   1.1140380), wk =   0.0833333
        k(   17) = (  -0.5000000   0.1738026   0.1591483), wk =   0.0416667
        k(   18) = (  -0.5000000   0.1738026   0.4774448), wk =   0.0416667
        k(   19) = (  -0.5000000   0.1738026   0.7957414), wk =   0.0416667
        k(   20) = (  -0.5000000   0.1738026   1.1140380), wk =   0.0416667
        k(   21) = (  -0.5000000   0.5214077   0.1591483), wk =   0.0416667
        k(   22) = (  -0.5000000   0.5214077   0.4774448), wk =   0.0416667
        k(   23) = (  -0.5000000   0.5214077   0.7957414), wk =   0.0416667
        k(   24) = (  -0.5000000   0.5214077   1.1140380), wk =   0.0416667
        k(   25) = (  -0.5000000   0.8690128   0.1591483), wk =   0.0416667
        k(   26) = (  -0.5000000   0.8690128   0.4774448), wk =   0.0416667
        k(   27) = (  -0.5000000   0.8690128   0.7957414), wk =   0.0416667
        k(   28) = (  -0.5000000   0.8690128   1.1140380), wk =   0.0416667
        k(   29) = (  -0.5000000   1.2166179   0.1591483), wk =   0.0416667
        k(   30) = (  -0.5000000   1.2166179   0.4774448), wk =   0.0416667
        k(   31) = (  -0.5000000   1.2166179   0.7957414), wk =   0.0416667
        k(   32) = (  -0.5000000   1.2166179   1.1140380), wk =   0.0416667

                       cryst. coord.
        k(    1) = (   0.1666667   0.0625000   0.0625000), wk =   0.0833333
        k(    2) = (   0.1666667   0.0625000   0.1875000), wk =   0.0833333
        k(    3) = (   0.1666667   0.0625000   0.3125000), wk =   0.0833333
        k(    4) = (   0.1666667   0.0625000   0.4375000), wk =   0.0833333
        k(    5) = (   0.1666667   0.1875000   0.0625000), wk =   0.0833333
        k(    6) = (   0.1666667   0.1875000   0.1875000), wk =   0.0833333
        k(    7) = (   0.1666667   0.1875000   0.3125000), wk =   0.0833333
        k(    8) = (   0.1666667   0.1875000   0.4375000), wk =   0.0833333
        k(    9) = (   0.1666667   0.3125000   0.0625000), wk =   0.0833333
        k(   10) = (   0.1666667   0.3125000   0.1875000), wk =   0.0833333
        k(   11) = (   0.1666667   0.3125000   0.3125000), wk =   0.0833333
        k(   12) = (   0.1666667   0.3125000   0.4375000), wk =   0.0833333
        k(   13) = (   0.1666667   0.4375000   0.0625000), wk =   0.0833333
        k(   14) = (   0.1666667   0.4375000   0.1875000), wk =   0.0833333
        k(   15) = (   0.1666667   0.4375000   0.3125000), wk =   0.0833333
        k(   16) = (   0.1666667   0.4375000   0.4375000), wk =   0.0833333
        k(   17) = (  -0.5000000   0.0625000   0.0625000), wk =   0.0416667
        k(   18) = (  -0.5000000   0.0625000   0.1875000), wk =   0.0416667
        k(   19) = (  -0.5000000   0.0625000   0.3125000), wk =   0.0416667
        k(   20) = (  -0.5000000   0.0625000   0.4375000), wk =   0.0416667
        k(   21) = (  -0.5000000   0.1875000   0.0625000), wk =   0.0416667
        k(   22) = (  -0.5000000   0.1875000   0.1875000), wk =   0.0416667
        k(   23) = (  -0.5000000   0.1875000   0.3125000), wk =   0.0416667
        k(   24) = (  -0.5000000   0.1875000   0.4375000), wk =   0.0416667
        k(   25) = (  -0.5000000   0.3125000   0.0625000), wk =   0.0416667
        k(   26) = (  -0.5000000   0.3125000   0.1875000), wk =   0.0416667
        k(   27) = (  -0.5000000   0.3125000   0.3125000), wk =   0.0416667
        k(   28) = (  -0.5000000   0.3125000   0.4375000), wk =   0.0416667
        k(   29) = (  -0.5000000   0.4375000   0.0625000), wk =   0.0416667
        k(   30) = (  -0.5000000   0.4375000   0.1875000), wk =   0.0416667
        k(   31) = (  -0.5000000   0.4375000   0.3125000), wk =   0.0416667
        k(   32) = (  -0.5000000   0.4375000   0.4375000), wk =   0.0416667

     Dense  grid:   369229 G-vectors     FFT dimensions: ( 180,  64,  72)

     Smooth grid:    93421 G-vectors     FFT dimensions: ( 120,  40,  48)

     Dynamical RAM for                 wfc:       3.56 MB

     Dynamical RAM for     wfc (w. buffer):      42.75 MB

     Dynamical RAM for           str. fact:       5.63 MB

     Dynamical RAM for           local pot:       0.00 MB

     Dynamical RAM for          nlocal pot:      12.83 MB

     Dynamical RAM for                qrad:       3.93 MB

     Dynamical RAM for          rho,v,vnew:      17.94 MB

     Dynamical RAM for               rhoin:       5.98 MB

     Dynamical RAM for            rho*nmix:      45.07 MB

     Dynamical RAM for           G-vectors:      10.92 MB

     Dynamical RAM for          h,s,v(r/c):       0.29 MB

     Dynamical RAM for          <psi|beta>:       0.09 MB

     Dynamical RAM for                 psi:       7.13 MB

     Dynamical RAM for                hpsi:       7.13 MB

     Dynamical RAM for                spsi:       7.13 MB

     Dynamical RAM for      wfcinit/wfcrot:       9.33 MB

     Dynamical RAM for           addusdens:     180.29 MB

     Dynamical RAM for          addusforce:     185.47 MB

     Estimated static dynamical RAM per process >     124.26 MB

     Estimated max dynamical RAM per process >     354.80 MB

     Estimated total dynamical RAM >       1.90 GB

     Initial potential from superposition of free atoms

     starting charge      75.9995, renormalised to      80.0000
     Starting wfcs are   52 randomized atomic wfcs

     total cpu time spent up to now is        4.1 secs

     Self-consistent Calculation

     iteration #  1     ecut=    60.00 Ry     beta= 0.70
     Davidson diagonalization with overlap

---- Real-time Memory Report at c_bands before calling an iterative solver
           394 MiB given to the printing process from OS
             0 MiB allocation reported by mallinfo(arena+hblkhd)
         10441 MiB available memory on the node where the printing process lives
------------------
     ethr =  1.00E-02,  avg # of iterations =  2.0

     total cpu time spent up to now is       11.4 secs

     total energy              =    -826.63198200 Ry
     estimated scf accuracy    <       2.69243102 Ry

     iteration #  2     ecut=    60.00 Ry     beta= 0.70
     Davidson diagonalization with overlap

---- Real-time Memory Report at c_bands before calling an iterative solver
           492 MiB given to the printing process from OS
             0 MiB allocation reported by mallinfo(arena+hblkhd)
         10166 MiB available memory on the node where the printing process lives
------------------
     ethr =  3.37E-03,  avg # of iterations =  3.0

     total cpu time spent up to now is       19.5 secs

     total energy              =    -827.53671224 Ry
     estimated scf accuracy    <       1.00970368 Ry

     iteration #  3     ecut=    60.00 Ry     beta= 0.70
     Davidson diagonalization with overlap

---- Real-time Memory Report at c_bands before calling an iterative solver
           534 MiB given to the printing process from OS
             0 MiB allocation reported by mallinfo(arena+hblkhd)
          9998 MiB available memory on the node where the printing process lives
------------------
     ethr =  1.26E-03,  avg # of iterations =  2.6

     total cpu time spent up to now is       26.4 secs

     total energy              =    -827.74197956 Ry
     estimated scf accuracy    <       0.01073691 Ry

     iteration #  4     ecut=    60.00 Ry     beta= 0.70
     Davidson diagonalization with overlap

---- Real-time Memory Report at c_bands before calling an iterative solver
           539 MiB given to the printing process from OS
             0 MiB allocation reported by mallinfo(arena+hblkhd)
          9992 MiB available memory on the node where the printing process lives
------------------
     ethr =  1.34E-05,  avg # of iterations =  4.9

     total cpu time spent up to now is       35.6 secs

     total energy              =    -827.74878839 Ry
     estimated scf accuracy    <       0.00542793 Ry

     iteration #  5     ecut=    60.00 Ry     beta= 0.70
     Davidson diagonalization with overlap

---- Real-time Memory Report at c_bands before calling an iterative solver
           542 MiB given to the printing process from OS
             0 MiB allocation reported by mallinfo(arena+hblkhd)
          9984 MiB available memory on the node where the printing process lives
------------------
     ethr =  6.78E-06,  avg # of iterations =  3.0

     total cpu time spent up to now is       42.8 secs

     total energy              =    -827.75041384 Ry
     estimated scf accuracy    <       0.00056275 Ry

     iteration #  6     ecut=    60.00 Ry     beta= 0.70
     Davidson diagonalization with overlap

---- Real-time Memory Report at c_bands before calling an iterative solver
           544 MiB given to the printing process from OS
             0 MiB allocation reported by mallinfo(arena+hblkhd)
          9982 MiB available memory on the node where the printing process lives
------------------
     ethr =  7.03E-07,  avg # of iterations =  3.3

     total cpu time spent up to now is       49.8 secs

     total energy              =    -827.75034703 Ry
     estimated scf accuracy    <       0.00044526 Ry

     iteration #  7     ecut=    60.00 Ry     beta= 0.70
     Davidson diagonalization with overlap

---- Real-time Memory Report at c_bands before calling an iterative solver
           546 MiB given to the printing process from OS
             0 MiB allocation reported by mallinfo(arena+hblkhd)
          9979 MiB available memory on the node where the printing process lives
------------------
     ethr =  5.57E-07,  avg # of iterations =  2.2

     total cpu time spent up to now is       56.6 secs

     total energy              =    -827.75039901 Ry
     estimated scf accuracy    <       0.00001917 Ry

     iteration #  8     ecut=    60.00 Ry     beta= 0.70
     Davidson diagonalization with overlap

---- Real-time Memory Report at c_bands before calling an iterative solver
           549 MiB given to the printing process from OS
             0 MiB allocation reported by mallinfo(arena+hblkhd)
          9976 MiB available memory on the node where the printing process lives
------------------
     ethr =  2.40E-08,  avg # of iterations =  5.2

     total cpu time spent up to now is       65.7 secs

     total energy              =    -827.75041576 Ry
     estimated scf accuracy    <       0.00002062 Ry

     iteration #  9     ecut=    60.00 Ry     beta= 0.70
     Davidson diagonalization with overlap

---- Real-time Memory Report at c_bands before calling an iterative solver
           551 MiB given to the printing process from OS
             0 MiB allocation reported by mallinfo(arena+hblkhd)
          9969 MiB available memory on the node where the printing process lives
------------------
     ethr =  2.40E-08,  avg # of iterations =  2.1

     total cpu time spent up to now is       72.7 secs

     total energy              =    -827.75041778 Ry
     estimated scf accuracy    <       0.00000145 Ry

     iteration # 10     ecut=    60.00 Ry     beta= 0.70
     Davidson diagonalization with overlap

---- Real-time Memory Report at c_bands before calling an iterative solver
           553 MiB given to the printing process from OS
             0 MiB allocation reported by mallinfo(arena+hblkhd)
          9966 MiB available memory on the node where the printing process lives
------------------
     ethr =  1.82E-09,  avg # of iterations =  4.6

     total cpu time spent up to now is       81.4 secs

     total energy              =    -827.75041860 Ry
     estimated scf accuracy    <       0.00000005 Ry

     iteration # 11     ecut=    60.00 Ry     beta= 0.70
     Davidson diagonalization with overlap

---- Real-time Memory Report at c_bands before calling an iterative solver
           554 MiB given to the printing process from OS
             0 MiB allocation reported by mallinfo(arena+hblkhd)
          9966 MiB available memory on the node where the printing process lives
------------------
     ethr =  6.18E-11,  avg # of iterations =  5.9

     total cpu time spent up to now is       94.2 secs

     total energy              =    -827.75041864 Ry
     estimated scf accuracy    <       0.00000003 Ry

     iteration # 12     ecut=    60.00 Ry     beta= 0.70
     Davidson diagonalization with overlap

---- Real-time Memory Report at c_bands before calling an iterative solver
           555 MiB given to the printing process from OS
             0 MiB allocation reported by mallinfo(arena+hblkhd)
          9964 MiB available memory on the node where the printing process lives
------------------
     ethr =  3.37E-11,  avg # of iterations =  2.6

     total cpu time spent up to now is      101.0 secs

     End of self-consistent calculation

          k = 0.1667 0.1738 0.1591 ( 11699 PWs)   bands (ev):

   -13.8175 -13.8088 -13.8050 -13.8018 -13.8009 -13.7989 -13.7951 -13.7942
   -13.7869 -13.7832 -13.7831 -13.7811 -13.7717 -13.7696 -13.7524 -13.7495
   -13.7457 -13.7437 -13.7360 -13.7308  -6.0124  -5.7388  -5.0656  -4.6965
     0.3443   1.1649   1.9744   2.3599   2.9753   4.1886   4.3334   4.5987
     4.8492   4.8896   5.4509   5.7528   5.9864   6.3502   6.7950   7.0867

     occupation numbers 
     1.0000   1.0000   1.0000   1.0000   1.0000   1.0000   1.0000   1.0000
     1.0000   1.0000   1.0000   1.0000   1.0000   1.0000   1.0000   1.0000
     1.0000   1.0000   1.0000   1.0000   1.0000   1.0000   1.0000   1.0000
     1.0000   1.0000   1.0000   1.0000   1.0000   1.0000   1.0000   1.0000
     1.0000   1.0000   1.0000   1.0000   1.0000   1.0000   1.0000   1.0000

          k = 0.1667 0.1738 0.4774 ( 11685 PWs)   bands (ev):

   -13.8163 -13.8084 -13.8050 -13.8025 -13.8012 -13.8000 -13.7956 -13.7944
   -13.7870 -13.7835 -13.7809 -13.7786 -13.7712 -13.7695 -13.7526 -13.7490
   -13.7465 -13.7442 -13.7356 -13.7312  -5.8985  -5.6346  -5.0605  -4.7266
     0.0258   0.8963   1.4593   2.0229   3.0674   4.2381   4.4484   4.9570
     5.1735   5.4168   5.4606   5.8607   6.2629   6.5666   6.8292   7.0869

     occupation numbers 
     1.0000   1.0000   1.0000   1.0000   1.0000   1.0000   1.0000   1.0000
     1.0000   1.0000   1.0000   1.0000   1.0000   1.0000   1.0000   1.0000
     1.0000   1.0000   1.0000   1.0000   1.0000   1.0000   1.0000   1.0000
     1.0000   1.0000   1.0000   1.0000   1.0000   1.0000   1.0000   1.0000
     1.0000   1.0000   1.0000   1.0000   1.0000   1.0000   1.0000   1.0000

          k = 0.1667 0.1738 0.7957 ( 11665 PWs)   bands (ev):

   -13.8140 -13.8081 -13.8052 -13.8038 -13.8016 -13.8013 -13.7961 -13.7950
   -13.7867 -13.7841 -13.7776 -13.7750 -13.7710 -13.7692 -13.7524 -13.7489
   -13.7471 -13.7449 -13.7349 -13.7320  -5.6942  -5.4493  -5.0890  -4.8102
    -0.2916   0.3902   1.0230   1.5367   3.3682   4.4693   4.6718   5.2391
     5.4283   5.5863   5.8249   5.9602   6.4293   6.8984   6.9176   7.3375

     occupation numbers 
     1.0000   1.0000   1.0000   1.0000   1.0000   1.0000   1.0000   1.0000
     1.0000   1.0000   1.0000   1.0000   1.0000   1.0000   1.0000   1.0000
     1.0000   1.0000   1.0000   1.0000   1.0000   1.0000   1.0000   1.0000
     1.0000   1.0000   1.0000   1.0000   1.0000   1.0000   1.0000   1.0000
     1.0000   1.0000   1.0000   1.0000   1.0000   1.0000   1.0000   1.0000

          k = 0.1667 0.1738 1.1140 ( 11669 PWs)   bands (ev):

   -13.8115 -13.8092 -13.8052 -13.8047 -13.8022 -13.8018 -13.7962 -13.7958
   -13.7859 -13.7850 -13.7744 -13.7725 -13.7712 -13.7696 -13.7515 -13.7502
   -13.7465 -13.7457 -13.7340 -13.7330  -5.4523  -5.2853  -5.1411  -4.9662
    -0.3639  -0.1115   0.9192   1.1163   3.8396   4.3517   5.0387   5.2924
     5.5014   5.6189   5.8539   6.1494   6.7164   7.0387   7.2001   7.2865

     occupation numbers 
     1.0000   1.0000   1.0000   1.0000   1.0000   1.0000   1.0000   1.0000
     1.0000   1.0000   1.0000   1.0000   1.0000   1.0000   1.0000   1.0000
     1.0000   1.0000   1.0000   1.0000   1.0000   1.0000   1.0000   1.0000
     1.0000   1.0000   1.0000   1.0000   1.0000   1.0000   1.0000   1.0000
     1.0000   1.0000   1.0000   1.0000   1.0000   1.0000   1.0000   1.0000

          k = 0.1667 0.5214 0.1591 ( 11704 PWs)   bands (ev):

   -13.8119 -13.8068 -13.8035 -13.8007 -13.8000 -13.7988 -13.7982 -13.7964
   -13.7889 -13.7860 -13.7822 -13.7781 -13.7705 -13.7691 -13.7513 -13.7498
   -13.7472 -13.7441 -13.7356 -13.7318  -5.8536  -5.6016  -4.9973  -4.6872
     0.1902   0.9047   1.6569   1.7652   3.0902   4.0666   4.3613   4.6676
     4.9764   5.1610   5.4668   5.7945   6.0440   6.6562   6.9034   7.0056

     occupation numbers 
     1.0000   1.0000   1.0000   1.0000   1.0000   1.0000   1.0000   1.0000
     1.0000   1.0000   1.0000   1.0000   1.0000   1.0000   1.0000   1.0000
     1.0000   1.0000   1.0000   1.0000   1.0000   1.0000   1.0000   1.0000
     1.0000   1.0000   1.0000   1.0000   1.0000   1.0000   1.0000   1.0000
     1.0000   1.0000   1.0000   1.0000   1.0000   1.0000   1.0000   1.0000

          k = 0.1667 0.5214 0.4774 ( 11681 PWs)   bands (ev):

   -13.8118 -13.8067 -13.8050 -13.8012 -13.8002 -13.7991 -13.7978 -13.7971
   -13.7890 -13.7862 -13.7799 -13.7760 -13.7708 -13.7681 -13.7512 -13.7495
   -13.7474 -13.7449 -13.7353 -13.7321  -5.7455  -5.5036  -4.9900  -4.7079
     0.0293   0.8307   1.3119   1.6702   3.2222   3.6669   3.9447   4.7232
     4.9243   5.4739   5.7181   5.8564   6.4873   6.6129   6.9040   7.0807

     occupation numbers 
     1.0000   1.0000   1.0000   1.0000   1.0000   1.0000   1.0000   1.0000
     1.0000   1.0000   1.0000   1.0000   1.0000   1.0000   1.0000   1.0000
     1.0000   1.0000   1.0000   1.0000   1.0000   1.0000   1.0000   1.0000
     1.0000   1.0000   1.0000   1.0000   1.0000   1.0000   1.0000   1.0000
     1.0000   1.0000   1.0000   1.0000   1.0000   1.0000   1.0000   1.0000

          k = 0.1667 0.5214 0.7957 ( 11666 PWs)   bands (ev):

   -13.8116 -13.8077 -13.8060 -13.8024 -13.8007 -13.7992 -13.7983 -13.7974
   -13.7885 -13.7865 -13.7769 -13.7732 -13.7705 -13.7673 -13.7507 -13.7490
   -13.7478 -13.7461 -13.7347 -13.7325  -5.5538  -5.3316  -5.0110  -4.7723
    -0.1532   0.4958   1.0539   1.4398   3.4804   3.6186   3.8940   4.6480
     4.7528   5.5162   5.5758   6.1389   6.3529   6.5993   6.8006   7.0713

     occupation numbers 
     1.0000   1.0000   1.0000   1.0000   1.0000   1.0000   1.0000   1.0000
     1.0000   1.0000   1.0000   1.0000   1.0000   1.0000   1.0000   1.0000
     1.0000   1.0000   1.0000   1.0000   1.0000   1.0000   1.0000   1.0000
     1.0000   1.0000   1.0000   1.0000   1.0000   1.0000   1.0000   1.0000
     1.0000   1.0000   1.0000   1.0000   1.0000   1.0000   1.0000   1.0000

          k = 0.1667 0.5214 1.1140 ( 11646 PWs)   bands (ev):

   -13.8111 -13.8098 -13.8051 -13.8038 -13.8008 -13.8001 -13.7982 -13.7977
   -13.7877 -13.7870 -13.7742 -13.7726 -13.7688 -13.7674 -13.7498 -13.7488
   -13.7480 -13.7472 -13.7339 -13.7332  -5.3311  -5.1814  -5.0540  -4.9017
    -0.1724   0.0654   1.0275   1.1786   3.7982   3.8577   4.1210   4.3913
     4.6755   5.0068   5.6471   5.9322   6.2851   6.5278   6.7837   6.9678

     occupation numbers 
     1.0000   1.0000   1.0000   1.0000   1.0000   1.0000   1.0000   1.0000
     1.0000   1.0000   1.0000   1.0000   1.0000   1.0000   1.0000   1.0000
     1.0000   1.0000   1.0000   1.0000   1.0000   1.0000   1.0000   1.0000
     1.0000   1.0000   1.0000   1.0000   1.0000   1.0000   1.0000   1.0000
     1.0000   1.0000   1.0000   1.0000   1.0000   1.0000   1.0000   1.0000

          k = 0.1667 0.8690 0.1591 ( 11669 PWs)   bands (ev):

   -13.8094 -13.8073 -13.8050 -13.8045 -13.7989 -13.7954 -13.7949 -13.7936
   -13.7886 -13.7883 -13.7823 -13.7751 -13.7710 -13.7660 -13.7549 -13.7541
   -13.7449 -13.7410 -13.7349 -13.7333  -5.5656  -5.3639  -4.9213  -4.7308
    -0.0211   0.5665   0.9075   1.2000   3.4275   4.1856   4.5484   4.8746
     5.2461   5.3065   5.6175   5.7986   6.1778   6.6437   6.7468   7.0993

     occupation numbers 
     1.0000   1.0000   1.0000   1.0000   1.0000   1.0000   1.0000   1.0000
     1.0000   1.0000   1.0000   1.0000   1.0000   1.0000   1.0000   1.0000
     1.0000   1.0000   1.0000   1.0000   1.0000   1.0000   1.0000   1.0000
     1.0000   1.0000   1.0000   1.0000   1.0000   1.0000   1.0000   1.0000
     1.0000   1.0000   1.0000   1.0000   1.0000   1.0000   1.0000   1.0000

          k = 0.1667 0.8690 0.4774 ( 11672 PWs)   bands (ev):

   -13.8119 -13.8090 -13.8064 -13.8050 -13.7995 -13.7949 -13.7943 -13.7935
   -13.7883 -13.7880 -13.7805 -13.7745 -13.7700 -13.7654 -13.7544 -13.7536
   -13.7450 -13.7416 -13.7347 -13.7333  -5.4714  -5.2803  -4.9062  -4.7299
     0.0164   0.6596   0.9334   1.1414   3.4309   3.5465   3.8870   4.4585
     4.8867   5.4483   5.5489   5.9829   6.0839   6.3999   6.6410   6.8681

     occupation numbers 
     1.0000   1.0000   1.0000   1.0000   1.0000   1.0000   1.0000   1.0000
     1.0000   1.0000   1.0000   1.0000   1.0000   1.0000   1.0000   1.0000
     1.0000   1.0000   1.0000   1.0000   1.0000   1.0000   1.0000   1.0000
     1.0000   1.0000   1.0000   1.0000   1.0000   1.0000   1.0000   1.0000
     1.0000   1.0000   1.0000   1.0000   1.0000   1.0000   1.0000   1.0000

          k = 0.1667 0.8690 0.7957 ( 11673 PWs)   bands (ev):

   -13.8144 -13.8121 -13.8081 -13.8069 -13.7991 -13.7955 -13.7937 -13.7932
   -13.7877 -13.7875 -13.7781 -13.7741 -13.7678 -13.7647 -13.7535 -13.7529
   -13.7448 -13.7426 -13.7344 -13.7334  -5.3089  -5.1381  -4.9067  -4.7514
     0.0719   0.6185   0.9843   1.1501   3.0425   3.3738   3.8098   4.0548
     4.3434   4.9561   5.2629   5.6074   5.9054   6.1433   6.3460   6.8224

     occupation numbers 
     1.0000   1.0000   1.0000   1.0000   1.0000   1.0000   1.0000   1.0000
     1.0000   1.0000   1.0000   1.0000   1.0000   1.0000   1.0000   1.0000
     1.0000   1.0000   1.0000   1.0000   1.0000   1.0000   1.0000   1.0000
     1.0000   1.0000   1.0000   1.0000   1.0000   1.0000   1.0000   1.0000
     1.0000   1.0000   1.0000   1.0000   1.0000   1.0000   1.0000   1.0000

          k = 0.1667 0.8690 1.1140 ( 11668 PWs)   bands (ev):

   -13.8156 -13.8147 -13.8090 -13.8086 -13.7980 -13.7966 -13.7933 -13.7931
   -13.7871 -13.7871 -13.7760 -13.7745 -13.7656 -13.7646 -13.7527 -13.7525
   -13.7444 -13.7435 -13.7339 -13.7336  -5.1295  -5.0183  -4.9275  -4.8234
     0.1701   0.3685   1.1124   1.1689   3.0566   3.3959   3.4637   3.8440
     4.2252   4.6354   4.9550   5.3518   5.5533   5.8053   6.4226   6.5663

     occupation numbers 
     1.0000   1.0000   1.0000   1.0000   1.0000   1.0000   1.0000   1.0000
     1.0000   1.0000   1.0000   1.0000   1.0000   1.0000   1.0000   1.0000
     1.0000   1.0000   1.0000   1.0000   1.0000   1.0000   1.0000   1.0000
     1.0000   1.0000   1.0000   1.0000   1.0000   1.0000   1.0000   1.0000
     1.0000   1.0000   1.0000   1.0000   1.0000   1.0000   1.0000   1.0000

          k = 0.1667 1.2166 0.1591 ( 11663 PWs)   bands (ev):

   -13.8110 -13.8095 -13.8084 -13.8070 -13.7954 -13.7936 -13.7918 -13.7907
   -13.7868 -13.7845 -13.7834 -13.7782 -13.7669 -13.7629 -13.7608 -13.7589
   -13.7400 -13.7376 -13.7357 -13.7352  -5.2152  -5.1063  -4.9388  -4.9061
    -0.0622   0.2521   0.4591   0.7057   3.9462   4.3962   4.7649   5.0726
     5.2528   5.3112   5.7059   5.9624   6.3053   6.4919   6.5607   6.7209

     occupation numbers 
     1.0000   1.0000   1.0000   1.0000   1.0000   1.0000   1.0000   1.0000
     1.0000   1.0000   1.0000   1.0000   1.0000   1.0000   1.0000   1.0000
     1.0000   1.0000   1.0000   1.0000   1.0000   1.0000   1.0000   1.0000
     1.0000   1.0000   1.0000   1.0000   1.0000   1.0000   1.0000   1.0000
     1.0000   1.0000   1.0000   1.0000   1.0000   1.0000   1.0000   1.0000

          k = 0.1667 1.2166 0.4774 ( 11680 PWs)   bands (ev):

   -13.8135 -13.8120 -13.8100 -13.8089 -13.7956 -13.7937 -13.7908 -13.7901
   -13.7864 -13.7848 -13.7817 -13.7778 -13.7660 -13.7632 -13.7588 -13.7579
   -13.7401 -13.7383 -13.7353 -13.7351  -5.1459  -5.0461  -4.9054  -4.8714
     0.0830   0.3901   0.5875   0.7618   3.7032   3.8988   4.1590   4.4455
     4.6023   5.0595   5.4893   5.6737   5.7932   6.0802   6.5189   6.7905

     occupation numbers 
     1.0000   1.0000   1.0000   1.0000   1.0000   1.0000   1.0000   1.0000
     1.0000   1.0000   1.0000   1.0000   1.0000   1.0000   1.0000   1.0000
     1.0000   1.0000   1.0000   1.0000   1.0000   1.0000   1.0000   1.0000
     1.0000   1.0000   1.0000   1.0000   1.0000   1.0000   1.0000   1.0000
     1.0000   1.0000   1.0000   1.0000   1.0000   1.0000   1.0000   1.0000

          k = 0.1667 1.2166 0.7957 ( 11680 PWs)   bands (ev):

   -13.8167 -13.8156 -13.8123 -13.8115 -13.7956 -13.7941 -13.7899 -13.7895
   -13.7856 -13.7845 -13.7799 -13.7774 -13.7643 -13.7629 -13.7568 -13.7564
   -13.7403 -13.7391 -13.7350 -13.7349  -5.0342  -4.9514  -4.8653  -4.8278
     0.3284   0.6029   0.7906   0.8508   3.0573   3.5001   3.5979   3.9507
     4.1508   4.5217   4.8216   5.2859   5.3792   5.6491   6.3739   6.5205

     occupation numbers 
     1.0000   1.0000   1.0000   1.0000   1.0000   1.0000   1.0000   1.0000
     1.0000   1.0000   1.0000   1.0000   1.0000   1.0000   1.0000   1.0000
     1.0000   1.0000   1.0000   1.0000   1.0000   1.0000   1.0000   1.0000
     1.0000   1.0000   1.0000   1.0000   1.0000   1.0000   1.0000   1.0000
     1.0000   1.0000   1.0000   1.0000   1.0000   1.0000   1.0000   1.0000

          k = 0.1667 1.2166 1.1140 ( 11688 PWs)   bands (ev):

   -13.8187 -13.8183 -13.8138 -13.8135 -13.7953 -13.7947 -13.7895 -13.7893
   -13.7848 -13.7844 -13.7785 -13.7776 -13.7629 -13.7625 -13.7554 -13.7553
   -13.7401 -13.7397 -13.7348 -13.7348  -4.9273  -4.8792  -4.8456  -4.8138
     0.5671   0.6845   0.9579   0.9881   2.7995   3.0019   3.3757   3.5390
     3.9405   4.0097   4.4928   4.8098   5.3531   5.5449   6.2567   6.3015

     occupation numbers 
     1.0000   1.0000   1.0000   1.0000   1.0000   1.0000   1.0000   1.0000
     1.0000   1.0000   1.0000   1.0000   1.0000   1.0000   1.0000   1.0000
     1.0000   1.0000   1.0000   1.0000   1.0000   1.0000   1.0000   1.0000
     1.0000   1.0000   1.0000   1.0000   1.0000   1.0000   1.0000   1.0000
     1.0000   1.0000   1.0000   1.0000   1.0000   1.0000   1.0000   1.0000

          k =-0.5000 0.1738 0.1591 ( 11698 PWs)   bands (ev):

   -13.8137 -13.8137 -13.8032 -13.8032 -13.8001 -13.8001 -13.7942 -13.7942
   -13.7853 -13.7853 -13.7817 -13.7817 -13.7709 -13.7709 -13.7508 -13.7508
   -13.7447 -13.7447 -13.7333 -13.7333  -5.8999  -5.8999  -4.8568  -4.8568
     0.6336   0.6336   2.2691   2.2691   3.6067   3.6067   4.5048   4.5048
     4.9390   4.9390   5.5302   5.5302   5.8735   5.8735   6.9921   6.9921

     occupation numbers 
     1.0000   1.0000   1.0000   1.0000   1.0000   1.0000   1.0000   1.0000
     1.0000   1.0000   1.0000   1.0000   1.0000   1.0000   1.0000   1.0000
     1.0000   1.0000   1.0000   1.0000   1.0000   1.0000   1.0000   1.0000
     1.0000   1.0000   1.0000   1.0000   1.0000   1.0000   1.0000   1.0000
     1.0000   1.0000   1.0000   1.0000   1.0000   1.0000   1.0000   1.0000

          k =-0.5000 0.1738 0.4774 ( 11686 PWs)   bands (ev):

   -13.8129 -13.8129 -13.8031 -13.8031 -13.8009 -13.8009 -13.7948 -13.7948
   -13.7853 -13.7853 -13.7795 -13.7795 -13.7706 -13.7706 -13.7508 -13.7508
   -13.7452 -13.7452 -13.7333 -13.7333  -5.7909  -5.7909  -4.8692  -4.8692
     0.3383   0.3383   1.8124   1.8124   3.8157   3.8157   4.5624   4.5624
     5.2463   5.2463   5.6809   5.6809   6.3352   6.3352   6.8878   6.8878

     occupation numbers 
     1.0000   1.0000   1.0000   1.0000   1.0000   1.0000   1.0000   1.0000
     1.0000   1.0000   1.0000   1.0000   1.0000   1.0000   1.0000   1.0000
     1.0000   1.0000   1.0000   1.0000   1.0000   1.0000   1.0000   1.0000
     1.0000   1.0000   1.0000   1.0000   1.0000   1.0000   1.0000   1.0000
     1.0000   1.0000   1.0000   1.0000   1.0000   1.0000   1.0000   1.0000

          k =-0.5000 0.1738 0.7957 ( 11692 PWs)   bands (ev):

   -13.8115 -13.8115 -13.8040 -13.8040 -13.8015 -13.8015 -13.7958 -13.7958
   -13.7852 -13.7852 -13.7763 -13.7763 -13.7702 -13.7702 -13.7507 -13.7507
   -13.7459 -13.7459 -13.7334 -13.7334  -5.5980  -5.5980  -4.9235  -4.9235
    -0.0066  -0.0066   1.2737   1.2737   4.1314   4.1314   4.8413   4.8413
     5.3860   5.3860   5.9115   5.9115   6.5480   6.5480   7.0805   7.0805

     occupation numbers 
     1.0000   1.0000   1.0000   1.0000   1.0000   1.0000   1.0000   1.0000
     1.0000   1.0000   1.0000   1.0000   1.0000   1.0000   1.0000   1.0000
     1.0000   1.0000   1.0000   1.0000   1.0000   1.0000   1.0000   1.0000
     1.0000   1.0000   1.0000   1.0000   1.0000   1.0000   1.0000   1.0000
     1.0000   1.0000   1.0000   1.0000   1.0000   1.0000   1.0000   1.0000

          k =-0.5000 0.1738 1.1140 ( 11652 PWs)   bands (ev):

   -13.8102 -13.8102 -13.8051 -13.8051 -13.8018 -13.8018 -13.7965 -13.7965
   -13.7851 -13.7851 -13.7736 -13.7736 -13.7704 -13.7704 -13.7507 -13.7507
   -13.7463 -13.7463 -13.7334 -13.7334  -5.3894  -5.3894  -5.0336  -5.0336
    -0.2049  -0.2049   0.9219   0.9219   4.5413   4.5413   5.1413   5.1413
     5.2208   5.2208   5.7598   5.7598   6.9386   6.9386   7.2139   7.2139

     occupation numbers 
     1.0000   1.0000   1.0000   1.0000   1.0000   1.0000   1.0000   1.0000
     1.0000   1.0000   1.0000   1.0000   1.0000   1.0000   1.0000   1.0000
     1.0000   1.0000   1.0000   1.0000   1.0000   1.0000   1.0000   1.0000
     1.0000   1.0000   1.0000   1.0000   1.0000   1.0000   1.0000   1.0000
     1.0000   1.0000   1.0000   1.0000   1.0000   1.0000   1.0000   1.0000

          k =-0.5000 0.5214 0.1591 ( 11688 PWs)   bands (ev):

   -13.8094 -13.8094 -13.8024 -13.8024 -13.7997 -13.7997 -13.7969 -13.7969
   -13.7875 -13.7875 -13.7800 -13.7800 -13.7699 -13.7699 -13.7505 -13.7505
   -13.7457 -13.7457 -13.7336 -13.7336  -5.7494  -5.7494  -4.8200  -4.8200
     0.4594   0.4594   1.7621   1.7621   3.7348   3.7348   4.3815   4.3815
     5.2519   5.2519   5.4302   5.4302   6.1021   6.1021   7.0532   7.0532

     occupation numbers 
     1.0000   1.0000   1.0000   1.0000   1.0000   1.0000   1.0000   1.0000
     1.0000   1.0000   1.0000   1.0000   1.0000   1.0000   1.0000   1.0000
     1.0000   1.0000   1.0000   1.0000   1.0000   1.0000   1.0000   1.0000
     1.0000   1.0000   1.0000   1.0000   1.0000   1.0000   1.0000   1.0000
     1.0000   1.0000   1.0000   1.0000   1.0000   1.0000   1.0000   1.0000

          k =-0.5000 0.5214 0.4774 ( 11678 PWs)   bands (ev):

   -13.8094 -13.8094 -13.8036 -13.8036 -13.7995 -13.7995 -13.7972 -13.7972
   -13.7874 -13.7874 -13.7781 -13.7781 -13.7694 -13.7694 -13.7503 -13.7503
   -13.7462 -13.7462 -13.7335 -13.7335  -5.6463  -5.6463  -4.8269  -4.8269
     0.3268   0.3268   1.5490   1.5490   3.6861   3.6861   4.2385   4.2385
     4.9117   4.9117   5.8985   5.8985   6.4889   6.4889   6.9889   6.9889

     occupation numbers 
     1.0000   1.0000   1.0000   1.0000   1.0000   1.0000   1.0000   1.0000
     1.0000   1.0000   1.0000   1.0000   1.0000   1.0000   1.0000   1.0000
     1.0000   1.0000   1.0000   1.0000   1.0000   1.0000   1.0000   1.0000
     1.0000   1.0000   1.0000   1.0000   1.0000   1.0000   1.0000   1.0000
     1.0000   1.0000   1.0000   1.0000   1.0000   1.0000   1.0000   1.0000

          k =-0.5000 0.5214 0.7957 ( 11668 PWs)   bands (ev):

   -13.8096 -13.8096 -13.8053 -13.8053 -13.7994 -13.7994 -13.7974 -13.7974
   -13.7872 -13.7872 -13.7757 -13.7757 -13.7685 -13.7685 -13.7499 -13.7499
   -13.7471 -13.7471 -13.7334 -13.7334  -5.4660  -5.4660  -4.8684  -4.8684
     0.1204   0.1204   1.2491   1.2491   3.6804   3.6804   4.4102   4.4102
     4.7671   4.7671   5.9554   5.9554   6.3486   6.3486   6.9491   6.9491

     occupation numbers 
     1.0000   1.0000   1.0000   1.0000   1.0000   1.0000   1.0000   1.0000
     1.0000   1.0000   1.0000   1.0000   1.0000   1.0000   1.0000   1.0000
     1.0000   1.0000   1.0000   1.0000   1.0000   1.0000   1.0000   1.0000
     1.0000   1.0000   1.0000   1.0000   1.0000   1.0000   1.0000   1.0000
     1.0000   1.0000   1.0000   1.0000   1.0000   1.0000   1.0000   1.0000

          k =-0.5000 0.5214 1.1140 ( 11668 PWs)   bands (ev):

   -13.8098 -13.8098 -13.8064 -13.8064 -13.7994 -13.7994 -13.7975 -13.7975
   -13.7871 -13.7871 -13.7740 -13.7740 -13.7678 -13.7678 -13.7494 -13.7494
   -13.7478 -13.7478 -13.7333 -13.7333  -5.2745  -5.2745  -4.9601  -4.9601
    -0.0253  -0.0253   1.0259   1.0259   3.9186   3.9186   4.3146   4.3146
     5.0134   5.0134   5.5508   5.5508   6.2271   6.2271   6.7736   6.7736

     occupation numbers 
     1.0000   1.0000   1.0000   1.0000   1.0000   1.0000   1.0000   1.0000
     1.0000   1.0000   1.0000   1.0000   1.0000   1.0000   1.0000   1.0000
     1.0000   1.0000   1.0000   1.0000   1.0000   1.0000   1.0000   1.0000
     1.0000   1.0000   1.0000   1.0000   1.0000   1.0000   1.0000   1.0000
     1.0000   1.0000   1.0000   1.0000   1.0000   1.0000   1.0000   1.0000

          k =-0.5000 0.8690 0.1591 ( 11682 PWs)   bands (ev):

   -13.8088 -13.8088 -13.8041 -13.8041 -13.7971 -13.7971 -13.7950 -13.7950
   -13.7882 -13.7882 -13.7792 -13.7792 -13.7679 -13.7679 -13.7547 -13.7547
   -13.7428 -13.7428 -13.7341 -13.7341  -5.4809  -5.4809  -4.8094  -4.8094
     0.2218   0.2218   1.0607   1.0607   4.0224   4.0224   4.5586   4.5586
     5.4197   5.4197   5.5878   5.5878   6.1290   6.1290   6.9339   6.9339

     occupation numbers 
     1.0000   1.0000   1.0000   1.0000   1.0000   1.0000   1.0000   1.0000
     1.0000   1.0000   1.0000   1.0000   1.0000   1.0000   1.0000   1.0000
     1.0000   1.0000   1.0000   1.0000   1.0000   1.0000   1.0000   1.0000
     1.0000   1.0000   1.0000   1.0000   1.0000   1.0000   1.0000   1.0000
     1.0000   1.0000   1.0000   1.0000   1.0000   1.0000   1.0000   1.0000

          k =-0.5000 0.8690 0.4774 ( 11680 PWs)   bands (ev):

   -13.8106 -13.8106 -13.8058 -13.8058 -13.7972 -13.7972 -13.7942 -13.7942
   -13.7877 -13.7877 -13.7782 -13.7782 -13.7670 -13.7670 -13.7543 -13.7543
   -13.7431 -13.7431 -13.7340 -13.7340  -5.3918  -5.3918  -4.8018  -4.8018
     0.2771   0.2771   1.0593   1.0593   3.5792   3.5792   4.3551   4.3551
     4.8313   4.8313   5.8415   5.8415   6.0514   6.0514   6.8281   6.8281

     occupation numbers 
     1.0000   1.0000   1.0000   1.0000   1.0000   1.0000   1.0000   1.0000
     1.0000   1.0000   1.0000   1.0000   1.0000   1.0000   1.0000   1.0000
     1.0000   1.0000   1.0000   1.0000   1.0000   1.0000   1.0000   1.0000
     1.0000   1.0000   1.0000   1.0000   1.0000   1.0000   1.0000   1.0000
     1.0000   1.0000   1.0000   1.0000   1.0000   1.0000   1.0000   1.0000

          k =-0.5000 0.8690 0.7957 ( 11662 PWs)   bands (ev):

   -13.8129 -13.8129 -13.8081 -13.8081 -13.7971 -13.7971 -13.7935 -13.7935
   -13.7870 -13.7870 -13.7770 -13.7770 -13.7655 -13.7655 -13.7538 -13.7538
   -13.7434 -13.7434 -13.7338 -13.7338  -5.2402  -5.2402  -4.8123  -4.8123
     0.3108   0.3108   1.0696   1.0696   3.2297   3.2297   4.0252   4.0252
     4.6483   4.6483   5.3165   5.3165   5.8805   5.8805   6.6610   6.6610

     occupation numbers 
     1.0000   1.0000   1.0000   1.0000   1.0000   1.0000   1.0000   1.0000
     1.0000   1.0000   1.0000   1.0000   1.0000   1.0000   1.0000   1.0000
     1.0000   1.0000   1.0000   1.0000   1.0000   1.0000   1.0000   1.0000
     1.0000   1.0000   1.0000   1.0000   1.0000   1.0000   1.0000   1.0000
     1.0000   1.0000   1.0000   1.0000   1.0000   1.0000   1.0000   1.0000

          k =-0.5000 0.8690 1.1140 ( 11672 PWs)   bands (ev):

   -13.8145 -13.8145 -13.8098 -13.8098 -13.7970 -13.7970 -13.7933 -13.7933
   -13.7866 -13.7866 -13.7762 -13.7762 -13.7642 -13.7642 -13.7534 -13.7534
   -13.7436 -13.7436 -13.7337 -13.7337  -5.0870  -5.0870  -4.8626  -4.8626
     0.2875   0.2875   1.0985   1.0985   3.2419   3.2419   3.5948   3.5948
     4.6449   4.6449   4.9558   4.9558   5.8210   5.8210   6.3200   6.3200

     occupation numbers 
     1.0000   1.0000   1.0000   1.0000   1.0000   1.0000   1.0000   1.0000
     1.0000   1.0000   1.0000   1.0000   1.0000   1.0000   1.0000   1.0000
     1.0000   1.0000   1.0000   1.0000   1.0000   1.0000   1.0000   1.0000
     1.0000   1.0000   1.0000   1.0000   1.0000   1.0000   1.0000   1.0000
     1.0000   1.0000   1.0000   1.0000   1.0000   1.0000   1.0000   1.0000

          k =-0.5000 1.2166 0.1591 ( 11686 PWs)   bands (ev):

   -13.8099 -13.8099 -13.8082 -13.8082 -13.7934 -13.7934 -13.7927 -13.7927
   -13.7851 -13.7851 -13.7810 -13.7810 -13.7645 -13.7645 -13.7600 -13.7600
   -13.7387 -13.7387 -13.7355 -13.7355  -5.1672  -5.1672  -4.9164  -4.9164
     0.1691   0.1691   0.4653   0.4653   4.4882   4.4882   4.8343   4.8343
     5.3246   5.3246   5.5585   5.5585   6.2485   6.2485   6.5945   6.5945

     occupation numbers 
     1.0000   1.0000   1.0000   1.0000   1.0000   1.0000   1.0000   1.0000
     1.0000   1.0000   1.0000   1.0000   1.0000   1.0000   1.0000   1.0000
     1.0000   1.0000   1.0000   1.0000   1.0000   1.0000   1.0000   1.0000
     1.0000   1.0000   1.0000   1.0000   1.0000   1.0000   1.0000   1.0000
     1.0000   1.0000   1.0000   1.0000   1.0000   1.0000   1.0000   1.0000

          k =-0.5000 1.2166 0.4774 ( 11678 PWs)   bands (ev):

   -13.8121 -13.8121 -13.8103 -13.8103 -13.7935 -13.7935 -13.7923 -13.7923
   -13.7844 -13.7844 -13.7805 -13.7805 -13.7635 -13.7635 -13.7592 -13.7592
   -13.7388 -13.7388 -13.7355 -13.7355  -5.1022  -5.1022  -4.8824  -4.8824
     0.3029   0.3029   0.5734   0.5734   3.8660   3.8660   4.3839   4.3839
     4.9104   4.9104   5.3520   5.3520   5.9916   5.9916   6.4241   6.4241

     occupation numbers 
     1.0000   1.0000   1.0000   1.0000   1.0000   1.0000   1.0000   1.0000
     1.0000   1.0000   1.0000   1.0000   1.0000   1.0000   1.0000   1.0000
     1.0000   1.0000   1.0000   1.0000   1.0000   1.0000   1.0000   1.0000
     1.0000   1.0000   1.0000   1.0000   1.0000   1.0000   1.0000   1.0000
     1.0000   1.0000   1.0000   1.0000   1.0000   1.0000   1.0000   1.0000

          k =-0.5000 1.2166 0.7957 ( 11682 PWs)   bands (ev):

   -13.8150 -13.8150 -13.8132 -13.8132 -13.7936 -13.7936 -13.7920 -13.7920
   -13.7833 -13.7833 -13.7798 -13.7798 -13.7619 -13.7619 -13.7580 -13.7580
   -13.7389 -13.7389 -13.7355 -13.7355  -4.9992  -4.9992  -4.8404  -4.8404
     0.5042   0.5042   0.7596   0.7596   3.2941   3.2941   3.8040   3.8040
     4.3543   4.3543   4.8091   4.8091   5.8740   5.8740   6.2430   6.2430

     occupation numbers 
     1.0000   1.0000   1.0000   1.0000   1.0000   1.0000   1.0000   1.0000
     1.0000   1.0000   1.0000   1.0000   1.0000   1.0000   1.0000   1.0000
     1.0000   1.0000   1.0000   1.0000   1.0000   1.0000   1.0000   1.0000
     1.0000   1.0000   1.0000   1.0000   1.0000   1.0000   1.0000   1.0000
     1.0000   1.0000   1.0000   1.0000   1.0000   1.0000   1.0000   1.0000

          k =-0.5000 1.2166 1.1140 ( 11660 PWs)   bands (ev):

   -13.8169 -13.8169 -13.8152 -13.8152 -13.7938 -13.7938 -13.7919 -13.7919
   -13.7827 -13.7827 -13.7792 -13.7792 -13.7606 -13.7606 -13.7571 -13.7571
   -13.7390 -13.7390 -13.7354 -13.7354  -4.9080  -4.9080  -4.8250  -4.8250
     0.6384   0.6384   0.9450   0.9450   3.0890   3.0890   3.3371   3.3371
     3.9871   3.9871   4.2910   4.2910   5.9682   5.9682   6.1527   6.1527

     occupation numbers 
     1.0000   1.0000   1.0000   1.0000   1.0000   1.0000   1.0000   1.0000
     1.0000   1.0000   1.0000   1.0000   1.0000   1.0000   1.0000   1.0000
     1.0000   1.0000   1.0000   1.0000   1.0000   1.0000   1.0000   1.0000
     1.0000   1.0000   1.0000   1.0000   1.0000   1.0000   1.0000   1.0000
     1.0000   1.0000   1.0000   1.0000   1.0000   1.0000   1.0000   1.0000

     highest occupied level (ev):     7.3375

!    total energy              =    -827.75041865 Ry
     estimated scf accuracy    <          5.0E-10 Ry

     The total energy is the sum of the following terms:
     one-electron contribution =    -267.42672603 Ry
     hartree contribution      =     182.73483526 Ry
     xc contribution           =    -308.96582811 Ry
     ewald contribution        =    -433.97327859 Ry
     DFT-D3 Dispersion         =      -0.11942118 Ry

     convergence has been achieved in  12 iterations

     Forces acting on atoms (cartesian axes, Ry/au):

     atom    1 type  2   force =    -0.00131684    0.00000000   -0.00049370
     atom    2 type  1   force =     0.00127832    0.00000000    0.00009638
     atom    3 type  2   force =     0.00131684    0.00000000   -0.00049370
     atom    4 type  1   force =    -0.00127832    0.00000000    0.00009638
     atom    5 type  2   force =    -0.00131684    0.00000000    0.00049370
     atom    6 type  1   force =     0.00127832   -0.00000000   -0.00009638
     atom    7 type  2   force =     0.00131684   -0.00000000    0.00049370
     atom    8 type  1   force =    -0.00127832    0.00000000   -0.00009638
     The non-local contrib.  to forces
     atom    1 type  2   force =    -0.10224294    0.00000000    0.11379263
     atom    2 type  1   force =     0.34466699    0.00000000    0.30325419
     atom    3 type  2   force =     0.10224294    0.00000000    0.11379263
     atom    4 type  1   force =    -0.34466699    0.00000000    0.30325419
     atom    5 type  2   force =    -0.10224294    0.00000000   -0.11379263
     atom    6 type  1   force =     0.34466699    0.00000000   -0.30325419
     atom    7 type  2   force =     0.10224294    0.00000000   -0.11379263
     atom    8 type  1   force =    -0.34466699    0.00000000   -0.30325419
     The ionic contribution  to forces
     atom    1 type  2   force =     1.11565546    0.00000000   -1.32705986
     atom    2 type  1   force =    -0.60298677    0.00000000   -0.76554762
     atom    3 type  2   force =    -1.11565546    0.00000000   -1.32705986
     atom    4 type  1   force =     0.60298677   -0.00000000   -0.76554762
     atom    5 type  2   force =     1.11565546    0.00000000    1.32705986
     atom    6 type  1   force =    -0.60298677    0.00000000    0.76554762
     atom    7 type  2   force =    -1.11565546   -0.00000000    1.32705986
     atom    8 type  1   force =     0.60298677   -0.00000000    0.76554762
     The local contribution  to forces
     atom    1 type  2   force =    -1.02558197    0.00000000    1.22367205
     atom    2 type  1   force =     0.26660639   -0.00000000    0.46634366
     atom    3 type  2   force =     1.02558197   -0.00000000    1.22367205
     atom    4 type  1   force =    -0.26660639   -0.00000000    0.46634366
     atom    5 type  2   force =    -1.02558197   -0.00000000   -1.22367205
     atom    6 type  1   force =     0.26660639   -0.00000000   -0.46634366
     atom    7 type  2   force =     1.02558197   -0.00000000   -1.22367205
     atom    8 type  1   force =    -0.26660639   -0.00000000   -0.46634366
     The core correction contribution to forces
     atom    1 type  2   force =     0.01150712   -0.00000000   -0.01258826
     atom    2 type  1   force =    -0.00642967   -0.00000000   -0.00494149
     atom    3 type  2   force =    -0.01150712   -0.00000000   -0.01258826
     atom    4 type  1   force =     0.00642967    0.00000000   -0.00494149
     atom    5 type  2   force =     0.01150712   -0.00000000    0.01258826
     atom    6 type  1   force =    -0.00642967   -0.00000000    0.00494149
     atom    7 type  2   force =    -0.01150712    0.00000000    0.01258826
     atom    8 type  1   force =     0.00642967   -0.00000000    0.00494149
     The Hubbard contrib.    to forces
     atom    1 type  2   force =     0.00000000    0.00000000    0.00000000
     atom    2 type  1   force =     0.00000000    0.00000000    0.00000000
     atom    3 type  2   force =     0.00000000    0.00000000    0.00000000
     atom    4 type  1   force =     0.00000000    0.00000000    0.00000000
     atom    5 type  2   force =     0.00000000    0.00000000    0.00000000
     atom    6 type  1   force =     0.00000000    0.00000000    0.00000000
     atom    7 type  2   force =     0.00000000    0.00000000    0.00000000
     atom    8 type  1   force =     0.00000000    0.00000000    0.00000000
     The SCF correction term to forces
     atom    1 type  2   force =    -0.00000123    0.00000000   -0.00000104
     atom    2 type  1   force =     0.00002053    0.00000000    0.00001125
     atom    3 type  2   force =     0.00000123   -0.00000000   -0.00000104
     atom    4 type  1   force =    -0.00002053    0.00000000    0.00001125
     atom    5 type  2   force =    -0.00000123   -0.00000000    0.00000104
     atom    6 type  1   force =     0.00002053   -0.00000000   -0.00001125
     atom    7 type  2   force =     0.00000123    0.00000000    0.00000104
     atom    8 type  1   force =    -0.00002053   -0.00000000   -0.00001125

     DFT-D3 dispersion contribution to forces:
     atom    1 type  2   force =    -0.00065327    0.00000000    0.00169077
     atom    2 type  1   force =    -0.00059914   -0.00000000    0.00097639
     atom    3 type  2   force =     0.00065327    0.00000000    0.00169077
     atom    4 type  1   force =     0.00059914    0.00000000    0.00097639
     atom    5 type  2   force =    -0.00065327   -0.00000000   -0.00169077
     atom    6 type  1   force =    -0.00059914   -0.00000000   -0.00097639
     atom    7 type  2   force =     0.00065327    0.00000000   -0.00169077
     atom    8 type  1   force =     0.00059914   -0.00000000   -0.00097639

     Total force =     0.003806     Total SCF correction =     0.000047

     DFT-D3 dispersion Force =     0.004288

     Writing all to output data dir ./tmp/SnSe_pnma.save/ :
     XML data file, charge density, pseudopotentials, collected wavefunctions
 
     init_run     :      3.51s CPU      3.85s WALL (       1 calls)
     electrons    :     92.05s CPU     97.01s WALL (       1 calls)
     forces       :      1.28s CPU      1.50s WALL (       1 calls)
     force_dftd3  :      0.05s CPU      0.05s WALL (       1 calls)

     Called by init_run:
     wfcinit      :      2.32s CPU      2.38s WALL (       1 calls)
     wfcinit:atom :      0.03s CPU      0.03s WALL (      11 calls)
     wfcinit:wfcr :      2.06s CPU      2.08s WALL (      11 calls)
     potinit      :      0.29s CPU      0.33s WALL (       1 calls)
     hinit0       :      0.29s CPU      0.32s WALL (       1 calls)

     Called by electrons:
     c_bands      :     68.82s CPU     69.19s WALL (      12 calls)
     sum_band     :     16.36s CPU     18.58s WALL (      12 calls)
     v_of_rho     :      2.58s CPU      2.79s WALL (      13 calls)
     v_h          :      0.19s CPU      0.21s WALL (      13 calls)
     v_xc         :      2.58s CPU      2.78s WALL (      14 calls)
     newd         :      4.38s CPU      6.69s WALL (      13 calls)
     mix_rho      :      0.30s CPU      0.31s WALL (      12 calls)
     energy_dftd3 :      0.04s CPU      0.04s WALL (       1 calls)

     Called by c_bands:
     init_us_2    :      1.79s CPU      1.81s WALL (     286 calls)
     cegterg      :     62.32s CPU     62.52s WALL (     132 calls)

     Called by sum_band:
     sum_band:wei :      0.00s CPU      0.00s WALL (      12 calls)
     sum_band:loo :     11.55s CPU     11.58s WALL (      12 calls)
     sum_band:buf :      0.11s CPU      0.11s WALL (     132 calls)
     sum_band:ini :      0.80s CPU      0.80s WALL (     132 calls)
     sum_band:cal :      1.04s CPU      1.04s WALL (     132 calls)
     sum_band:bec :      0.01s CPU      0.01s WALL (     132 calls)
     addusdens    :      4.32s CPU      6.45s WALL (      12 calls)
                                        0.00s GPU  (      12 calls)
     addusd:skk   :      0.03s CPU      0.04s WALL (      24 calls)
                                        0.00s GPU  (      24 calls)

     Called by *egterg:
     cdiaghg      :      1.00s CPU      1.00s WALL (     610 calls)
     cegterg:over :      2.61s CPU      2.62s WALL (     478 calls)
     cegterg:upda :      1.55s CPU      1.56s WALL (     478 calls)
     cegterg:last :      4.11s CPU      4.12s WALL (     349 calls)
     h_psi        :     49.53s CPU     49.72s WALL (     621 calls)
     s_psi        :      3.97s CPU      3.98s WALL (     621 calls)
     g_psi        :      0.17s CPU      0.17s WALL (     478 calls)

     Called by h_psi:
     h_psi:calbec :      3.55s CPU      3.56s WALL (     621 calls)
     vloc_psi     :     41.71s CPU     41.87s WALL (     621 calls)
     add_vuspsi   :      3.95s CPU      3.96s WALL (     621 calls)

     General routines
     calbec       :      4.93s CPU      4.94s WALL (     797 calls)
     fft          :      1.41s CPU      1.45s WALL (     178 calls)
     ffts         :      0.04s CPU      0.05s WALL (      25 calls)
     fftw         :     27.98s CPU     28.07s WALL (   39040 calls)
     interpolate  :      0.15s CPU      0.15s WALL (      13 calls)
 
     Parallel routines
 
     PWSCF        :   1m37.11s CPU   1m43.52s WALL

 
   This run was terminated on:  22:42: 2  19May2026            

=------------------------------------------------------------------------------=
   JOB DONE.
=------------------------------------------------------------------------------=
