
     Program PWSCF v.7.3.1 starts on 20May2026 at 17:16:27 

     This program is part of the open-source Quantum ESPRESSO suite
     for quantum simulation of materials; please cite
         "P. Giannozzi et al., J. Phys.:Condens. Matter 21 395502 (2009);
         "P. Giannozzi et al., J. Phys.:Condens. Matter 29 465901 (2017);
         "P. Giannozzi et al., J. Chem. Phys. 152 154105 (2020);
          URL http://www.quantum-espresso.org", 
     in publications or presentations arising from this work. More details at
     http://www.quantum-espresso.org/quote

     Parallel version (MPI & OpenMP), running on       6 processor cores
     Number of MPI processes:                 6
     Threads/MPI process:                     1

     MPI processes distributed on     1 nodes
     10632 MiB available memory on the printing compute node when the environment starts
 
     Waiting for input...
     Reading input from standard input

     Current dimensions of program PWSCF are:
     Max number of different atomic species (ntypx) = 10
     Max number of k-points (npk) =  40000
     Max angular momentum in pseudopotentials (lmaxx) =  4
 
     K-points division:     npool     =       3
     R & G space division:  proc/nbgrp/npool/nimage =       2
     Subspace diagonalization in iterative solution of the eigenvalue problem:
     a serial algorithm will be used

 
     Parallelization info
     --------------------
     sticks:   dense  smooth     PW     G-vecs:    dense   smooth      PW
     Min        3415    1365    393               139403    35252    5397
     Max        3416    1366    394               139404    35253    5398
     Sum        6831    2731    787               278807    70505   10795
 
     Using Slab Decomposition
 


     bravais-lattice index     =            8
     lattice parameter (alat)  =      21.7507  a.u.
     unit-cell volume          =    1476.0117 (a.u.)^3
     number of atoms/cell      =            8
     number of atomic types    =            2
     number of electrons       =        80.00
     number of Kohn-Sham states=           40
     kinetic-energy cutoff     =      50.0000  Ry
     charge density cutoff     =     500.0000  Ry
     scf convergence threshold =      1.0E-08
     mixing beta               =       0.7000
     number of iterations used =            8  plain     mixing
     Exchange-correlation= SLA  PW   PBE  PBE
                           (   1   4   3   4   0   0   0)

     celldm(1)=  21.750748  celldm(2)=   0.362415  celldm(3)=   0.395786
     celldm(4)=   0.000000  celldm(5)=   0.000000  celldm(6)=   0.000000

     crystal axes: (cart. coord. in units of alat)
               a(1) = (   1.000000   0.000000   0.000000 )  
               a(2) = (   0.000000   0.362415   0.000000 )  
               a(3) = (   0.000000   0.000000   0.395786 )  

     reciprocal axes: (cart. coord. in units 2 pi/alat)
               b(1) = (  1.000000  0.000000  0.000000 )  
               b(2) = (  0.000000  2.759265  0.000000 )  
               b(3) = (  0.000000  0.000000  2.526616 )  


     PseudoPot. # 1 for Sn read from file:
     ../pseudo/Sn_pbe_v1.uspp.F.UPF
     MD5 check sum: 4cf58ce39ec5d5d420df3dd08604eb00
     Pseudo is Ultrasoft + core correction, Zval = 14.0
     Generated by new atomic code, or converted to UPF format
     Using radial grid of  891 points,  6 beta functions with: 
                l(1) =   0
                l(2) =   0
                l(3) =   1
                l(4) =   1
                l(5) =   2
                l(6) =   2
     Q(r) pseudized with  6 coefficients,  rinner =    1.200   1.200   1.200
                                                       1.200   1.200

     PseudoPot. # 2 for Se read from file:
     ../pseudo/Se_pbe_v1.uspp.F.UPF
     MD5 check sum: 1b3568f3a8ae88f9a2a0ad0698632c85
     Pseudo is Ultrasoft + core correction, Zval =  6.0
     Generated by new atomic code, or converted to UPF format
     Using radial grid of  877 points,  6 beta functions with: 
                l(1) =   0
                l(2) =   0
                l(3) =   1
                l(4) =   1
                l(5) =   2
                l(6) =   2
     Q(r) pseudized with  8 coefficients,  rinner =    1.300   1.300   1.300
                                                       1.300   1.300

     atomic species   valence    mass     pseudopotential
     Sn               14.00   118.71000     Sn( 1.00)
     Se                6.00    78.97100     Se( 1.00)

      8 Sym. Ops., with inversion, found ( 6 have fractional translation)


                                    s                        frac. trans.

      isym =  1     identity                                     

 cryst.   s( 1) = (     1          0          0      )
                  (     0          1          0      )
                  (     0          0          1      )

 cart.    s( 1) = (  1.0000000  0.0000000  0.0000000 )
                  (  0.0000000  1.0000000  0.0000000 )
                  (  0.0000000  0.0000000  1.0000000 )


      isym =  2     180 deg rotation - cart. axis [0,0,1]        

 cryst.   s( 2) = (    -1          0          0      )    f =(  0.5000000 )
                  (     0         -1          0      )       (  0.0000000 )
                  (     0          0          1      )       ( -0.5000000 )

 cart.    s( 2) = ( -1.0000000  0.0000000  0.0000000 )    f =(  0.5000000 )
                  (  0.0000000 -1.0000000  0.0000000 )       (  0.0000000 )
                  (  0.0000000  0.0000000  1.0000000 )       ( -0.1978931 )


      isym =  3     180 deg rotation - cart. axis [0,1,0]        

 cryst.   s( 3) = (    -1          0          0      )    f =( -0.0000000 )
                  (     0          1          0      )       ( -0.5000000 )
                  (     0          0         -1      )       (  0.0000000 )

 cart.    s( 3) = ( -1.0000000  0.0000000  0.0000000 )    f =( -0.0000000 )
                  (  0.0000000  1.0000000  0.0000000 )       ( -0.1812076 )
                  (  0.0000000  0.0000000 -1.0000000 )       (  0.0000000 )


      isym =  4     180 deg rotation - cart. axis [1,0,0]        

 cryst.   s( 4) = (     1          0          0      )    f =(  0.5000000 )
                  (     0         -1          0      )       (  0.5000000 )
                  (     0          0         -1      )       ( -0.5000000 )

 cart.    s( 4) = (  1.0000000  0.0000000  0.0000000 )    f =(  0.5000000 )
                  (  0.0000000 -1.0000000  0.0000000 )       (  0.1812076 )
                  (  0.0000000  0.0000000 -1.0000000 )       ( -0.1978931 )


      isym =  5     inversion                                    

 cryst.   s( 5) = (    -1          0          0      )
                  (     0         -1          0      )
                  (     0          0         -1      )

 cart.    s( 5) = ( -1.0000000  0.0000000  0.0000000 )
                  (  0.0000000 -1.0000000  0.0000000 )
                  (  0.0000000  0.0000000 -1.0000000 )


      isym =  6     inv. 180 deg rotation - cart. axis [0,0,1]   

 cryst.   s( 6) = (     1          0          0      )    f =(  0.5000000 )
                  (     0          1          0      )       (  0.0000000 )
                  (     0          0         -1      )       ( -0.5000000 )

 cart.    s( 6) = (  1.0000000  0.0000000  0.0000000 )    f =(  0.5000000 )
                  (  0.0000000  1.0000000  0.0000000 )       (  0.0000000 )
                  (  0.0000000  0.0000000 -1.0000000 )       ( -0.1978931 )


      isym =  7     inv. 180 deg rotation - cart. axis [0,1,0]   

 cryst.   s( 7) = (     1          0          0      )    f =(  0.0000000 )
                  (     0         -1          0      )       (  0.5000000 )
                  (     0          0          1      )       (  0.0000000 )

 cart.    s( 7) = (  1.0000000  0.0000000  0.0000000 )    f =(  0.0000000 )
                  (  0.0000000 -1.0000000  0.0000000 )       (  0.1812076 )
                  (  0.0000000  0.0000000  1.0000000 )       (  0.0000000 )


      isym =  8     inv. 180 deg rotation - cart. axis [1,0,0]   

 cryst.   s( 8) = (    -1          0          0      )    f =(  0.5000000 )
                  (     0          1          0      )       ( -0.5000000 )
                  (     0          0          1      )       ( -0.5000000 )

 cart.    s( 8) = ( -1.0000000  0.0000000  0.0000000 )    f =(  0.5000000 )
                  (  0.0000000  1.0000000  0.0000000 )       ( -0.1812076 )
                  (  0.0000000  0.0000000  1.0000000 )       ( -0.1978931 )


     point group D_2h (mmm) 
     there are  8 classes
     the character table:

       E     C2    C2'   C2''  i     s_v   s_v'  s_v''
A_g    1.00  1.00  1.00  1.00  1.00  1.00  1.00  1.00
B_1g   1.00  1.00 -1.00 -1.00  1.00  1.00 -1.00 -1.00
B_2g   1.00 -1.00  1.00 -1.00  1.00 -1.00  1.00 -1.00
B_3g   1.00 -1.00 -1.00  1.00  1.00 -1.00 -1.00  1.00
A_u    1.00  1.00  1.00  1.00 -1.00 -1.00 -1.00 -1.00
B_1u   1.00  1.00 -1.00 -1.00 -1.00 -1.00  1.00  1.00
B_2u   1.00 -1.00  1.00 -1.00 -1.00  1.00 -1.00  1.00
B_3u   1.00 -1.00 -1.00  1.00 -1.00  1.00  1.00 -1.00

     the symmetry operations in each class and the name of the first element:

     E        1
          identity                                               
     C2       2
          180 deg rotation - cart. axis [0,0,1]                  
     C2'      4
          180 deg rotation - cart. axis [1,0,0]                  
     C2''     3
          180 deg rotation - cart. axis [0,1,0]                  
     i        5
          inversion                                              
     s_v      6
          inv. 180 deg rotation - cart. axis [0,0,1]             
     s_v'     8
          inv. 180 deg rotation - cart. axis [1,0,0]             
     s_v''    7
          inv. 180 deg rotation - cart. axis [0,1,0]             

   Cartesian axes

     site n.     atom                  positions (alat units)
         1        Se     tau(   1) = (   0.8549563   0.0906038   0.1912630  )
         2        Sn     tau(   2) = (   0.1165395   0.0906038   0.0444417  )
         3        Se     tau(   3) = (   0.6450437   0.2718115   0.3891561  )
         4        Sn     tau(   4) = (   0.3834605   0.2718115   0.2423348  )
         5        Se     tau(   5) = (   0.3549563   0.0906038   0.0066302  )
         6        Sn     tau(   6) = (   0.6165395   0.0906038   0.1534515  )
         7        Se     tau(   7) = (   0.1450437   0.2718115   0.2045233  )
         8        Sn     tau(   8) = (   0.8834605   0.2718115   0.3513446  )

     --------------------------------------------
     DFT-D3 Dispersion Correction (3-body terms):
     --------------------------------------------
       Reference C6 values for interpolation: 

         atom   Coordination number   C6
         Se         0.000           427.35
         Se         0.990           427.57
         Se         1.981           421.05
         Sn         0.000          1255.14
         Sn         0.951          1084.09
         Sn         1.950          1010.83
         Sn         2.926           818.29
         Sn         3.912           672.20

       Values used:

         atom   Coordination number  R0_AB[au]  C6      C8
         Se         3.426            3.332    421.05  29958.36
         Sn         4.133            3.957    672.69  84429.86
         Se         3.426            3.332    421.05  29958.36
         Sn         4.133            3.957    672.69  84429.86
         Se         3.426            3.332    421.05  29958.36
         Sn         4.133            3.957    672.69  84429.86
         Se         3.426            3.332    421.05  29958.36
         Sn         4.133            3.957    672.69  84429.86

         Molecular C6 ( Ry / a.u.^6 ) =     34509.97


   Crystallographic axes

     site n.     atom                  positions (cryst. coord.)
         1        Se     tau(   1) = (  0.8549563  0.2500000  0.4832481  )
         2        Sn     tau(   2) = (  0.1165395  0.2500000  0.1122870  )
         3        Se     tau(   3) = (  0.6450437  0.7500000  0.9832481  )
         4        Sn     tau(   4) = (  0.3834605  0.7500000  0.6122870  )
         5        Se     tau(   5) = (  0.3549563  0.2500000  0.0167519  )
         6        Sn     tau(   6) = (  0.6165395  0.2500000  0.3877130  )
         7        Se     tau(   7) = (  0.1450437  0.7500000  0.5167519  )
         8        Sn     tau(   8) = (  0.8834605  0.7500000  0.8877130  )

     number of k points=    32
                       cart. coord. in units 2pi/alat
        k(    1) = (   0.1666667   0.1724541   0.1579135), wk =   0.0833333
        k(    2) = (   0.1666667   0.1724541   0.4737405), wk =   0.0833333
        k(    3) = (   0.1666667   0.1724541   0.7895676), wk =   0.0833333
        k(    4) = (   0.1666667   0.1724541   1.1053946), wk =   0.0833333
        k(    5) = (   0.1666667   0.5173623   0.1579135), wk =   0.0833333
        k(    6) = (   0.1666667   0.5173623   0.4737405), wk =   0.0833333
        k(    7) = (   0.1666667   0.5173623   0.7895676), wk =   0.0833333
        k(    8) = (   0.1666667   0.5173623   1.1053946), wk =   0.0833333
        k(    9) = (   0.1666667   0.8622705   0.1579135), wk =   0.0833333
        k(   10) = (   0.1666667   0.8622705   0.4737405), wk =   0.0833333
        k(   11) = (   0.1666667   0.8622705   0.7895676), wk =   0.0833333
        k(   12) = (   0.1666667   0.8622705   1.1053946), wk =   0.0833333
        k(   13) = (   0.1666667   1.2071786   0.1579135), wk =   0.0833333
        k(   14) = (   0.1666667   1.2071786   0.4737405), wk =   0.0833333
        k(   15) = (   0.1666667   1.2071786   0.7895676), wk =   0.0833333
        k(   16) = (   0.1666667   1.2071786   1.1053946), wk =   0.0833333
        k(   17) = (  -0.5000000   0.1724541   0.1579135), wk =   0.0416667
        k(   18) = (  -0.5000000   0.1724541   0.4737405), wk =   0.0416667
        k(   19) = (  -0.5000000   0.1724541   0.7895676), wk =   0.0416667
        k(   20) = (  -0.5000000   0.1724541   1.1053946), wk =   0.0416667
        k(   21) = (  -0.5000000   0.5173623   0.1579135), wk =   0.0416667
        k(   22) = (  -0.5000000   0.5173623   0.4737405), wk =   0.0416667
        k(   23) = (  -0.5000000   0.5173623   0.7895676), wk =   0.0416667
        k(   24) = (  -0.5000000   0.5173623   1.1053946), wk =   0.0416667
        k(   25) = (  -0.5000000   0.8622705   0.1579135), wk =   0.0416667
        k(   26) = (  -0.5000000   0.8622705   0.4737405), wk =   0.0416667
        k(   27) = (  -0.5000000   0.8622705   0.7895676), wk =   0.0416667
        k(   28) = (  -0.5000000   0.8622705   1.1053946), wk =   0.0416667
        k(   29) = (  -0.5000000   1.2071786   0.1579135), wk =   0.0416667
        k(   30) = (  -0.5000000   1.2071786   0.4737405), wk =   0.0416667
        k(   31) = (  -0.5000000   1.2071786   0.7895676), wk =   0.0416667
        k(   32) = (  -0.5000000   1.2071786   1.1053946), wk =   0.0416667

                       cryst. coord.
        k(    1) = (   0.1666667   0.0625000   0.0625000), wk =   0.0833333
        k(    2) = (   0.1666667   0.0625000   0.1875000), wk =   0.0833333
        k(    3) = (   0.1666667   0.0625000   0.3125000), wk =   0.0833333
        k(    4) = (   0.1666667   0.0625000   0.4375000), wk =   0.0833333
        k(    5) = (   0.1666667   0.1875000   0.0625000), wk =   0.0833333
        k(    6) = (   0.1666667   0.1875000   0.1875000), wk =   0.0833333
        k(    7) = (   0.1666667   0.1875000   0.3125000), wk =   0.0833333
        k(    8) = (   0.1666667   0.1875000   0.4375000), wk =   0.0833333
        k(    9) = (   0.1666667   0.3125000   0.0625000), wk =   0.0833333
        k(   10) = (   0.1666667   0.3125000   0.1875000), wk =   0.0833333
        k(   11) = (   0.1666667   0.3125000   0.3125000), wk =   0.0833333
        k(   12) = (   0.1666667   0.3125000   0.4375000), wk =   0.0833333
        k(   13) = (   0.1666667   0.4375000   0.0625000), wk =   0.0833333
        k(   14) = (   0.1666667   0.4375000   0.1875000), wk =   0.0833333
        k(   15) = (   0.1666667   0.4375000   0.3125000), wk =   0.0833333
        k(   16) = (   0.1666667   0.4375000   0.4375000), wk =   0.0833333
        k(   17) = (  -0.5000000   0.0625000   0.0625000), wk =   0.0416667
        k(   18) = (  -0.5000000   0.0625000   0.1875000), wk =   0.0416667
        k(   19) = (  -0.5000000   0.0625000   0.3125000), wk =   0.0416667
        k(   20) = (  -0.5000000   0.0625000   0.4375000), wk =   0.0416667
        k(   21) = (  -0.5000000   0.1875000   0.0625000), wk =   0.0416667
        k(   22) = (  -0.5000000   0.1875000   0.1875000), wk =   0.0416667
        k(   23) = (  -0.5000000   0.1875000   0.3125000), wk =   0.0416667
        k(   24) = (  -0.5000000   0.1875000   0.4375000), wk =   0.0416667
        k(   25) = (  -0.5000000   0.3125000   0.0625000), wk =   0.0416667
        k(   26) = (  -0.5000000   0.3125000   0.1875000), wk =   0.0416667
        k(   27) = (  -0.5000000   0.3125000   0.3125000), wk =   0.0416667
        k(   28) = (  -0.5000000   0.3125000   0.4375000), wk =   0.0416667
        k(   29) = (  -0.5000000   0.4375000   0.0625000), wk =   0.0416667
        k(   30) = (  -0.5000000   0.4375000   0.1875000), wk =   0.0416667
        k(   31) = (  -0.5000000   0.4375000   0.3125000), wk =   0.0416667
        k(   32) = (  -0.5000000   0.4375000   0.4375000), wk =   0.0416667

     Dense  grid:   278807 G-vectors     FFT dimensions: ( 160,  60,  64)

     Smooth grid:    70505 G-vectors     FFT dimensions: ( 100,  36,  40)

     Dynamical RAM for                 wfc:       2.69 MB

     Dynamical RAM for     wfc (w. buffer):      32.27 MB

     Dynamical RAM for           str. fact:       4.25 MB

     Dynamical RAM for           local pot:       0.00 MB

     Dynamical RAM for          nlocal pot:       9.68 MB

     Dynamical RAM for                qrad:       3.59 MB

     Dynamical RAM for          rho,v,vnew:      13.41 MB

     Dynamical RAM for               rhoin:       4.47 MB

     Dynamical RAM for            rho*nmix:      34.03 MB

     Dynamical RAM for           G-vectors:       8.25 MB

     Dynamical RAM for          h,s,v(r/c):       0.29 MB

     Dynamical RAM for          <psi|beta>:       0.09 MB

     Dynamical RAM for                 psi:       5.38 MB

     Dynamical RAM for                hpsi:       5.38 MB

     Dynamical RAM for                spsi:       5.38 MB

     Dynamical RAM for      wfcinit/wfcrot:       7.05 MB

     Dynamical RAM for           addusdens:     136.14 MB

     Dynamical RAM for          addusforce:     140.05 MB

     Estimated static dynamical RAM per process >      94.02 MB

     Estimated max dynamical RAM per process >     268.11 MB

     Estimated total dynamical RAM >       1.44 GB

     Initial potential from superposition of free atoms

     starting charge      75.9995, renormalised to      80.0000
     Starting wfcs are   52 randomized atomic wfcs

     total cpu time spent up to now is        3.0 secs

     Self-consistent Calculation

     iteration #  1     ecut=    50.00 Ry     beta= 0.70
     Davidson diagonalization with overlap

---- Real-time Memory Report at c_bands before calling an iterative solver
           326 MiB given to the printing process from OS
             0 MiB allocation reported by mallinfo(arena+hblkhd)
          9819 MiB available memory on the node where the printing process lives
------------------
     ethr =  1.00E-02,  avg # of iterations =  2.0

     total cpu time spent up to now is        7.9 secs

     total energy              =    -826.63267364 Ry
     estimated scf accuracy    <       2.68602521 Ry

     iteration #  2     ecut=    50.00 Ry     beta= 0.70
     Davidson diagonalization with overlap

---- Real-time Memory Report at c_bands before calling an iterative solver
           417 MiB given to the printing process from OS
             0 MiB allocation reported by mallinfo(arena+hblkhd)
          9515 MiB available memory on the node where the printing process lives
------------------
     ethr =  3.36E-03,  avg # of iterations =  3.0

     total cpu time spent up to now is       13.2 secs

     total energy              =    -827.53908209 Ry
     estimated scf accuracy    <       0.99085532 Ry

     iteration #  3     ecut=    50.00 Ry     beta= 0.70
     Davidson diagonalization with overlap

---- Real-time Memory Report at c_bands before calling an iterative solver
           427 MiB given to the printing process from OS
             0 MiB allocation reported by mallinfo(arena+hblkhd)
          9430 MiB available memory on the node where the printing process lives
------------------
     ethr =  1.24E-03,  avg # of iterations =  2.6

     total cpu time spent up to now is       17.8 secs

     total energy              =    -827.73964484 Ry
     estimated scf accuracy    <       0.01036955 Ry

     iteration #  4     ecut=    50.00 Ry     beta= 0.70
     Davidson diagonalization with overlap

---- Real-time Memory Report at c_bands before calling an iterative solver
           448 MiB given to the printing process from OS
             0 MiB allocation reported by mallinfo(arena+hblkhd)
          9390 MiB available memory on the node where the printing process lives
------------------
     ethr =  1.30E-05,  avg # of iterations =  4.9

     total cpu time spent up to now is       23.5 secs

     total energy              =    -827.74624124 Ry
     estimated scf accuracy    <       0.00514041 Ry

     iteration #  5     ecut=    50.00 Ry     beta= 0.70
     Davidson diagonalization with overlap

---- Real-time Memory Report at c_bands before calling an iterative solver
           451 MiB given to the printing process from OS
             0 MiB allocation reported by mallinfo(arena+hblkhd)
          9384 MiB available memory on the node where the printing process lives
------------------
     ethr =  6.43E-06,  avg # of iterations =  3.0

     total cpu time spent up to now is       28.1 secs

     total energy              =    -827.74785319 Ry
     estimated scf accuracy    <       0.00065187 Ry

     iteration #  6     ecut=    50.00 Ry     beta= 0.70
     Davidson diagonalization with overlap

---- Real-time Memory Report at c_bands before calling an iterative solver
           452 MiB given to the printing process from OS
             0 MiB allocation reported by mallinfo(arena+hblkhd)
          9383 MiB available memory on the node where the printing process lives
------------------
     ethr =  8.15E-07,  avg # of iterations =  2.2

     total cpu time spent up to now is       32.3 secs

     total energy              =    -827.74781586 Ry
     estimated scf accuracy    <       0.00029454 Ry

     iteration #  7     ecut=    50.00 Ry     beta= 0.70
     Davidson diagonalization with overlap

---- Real-time Memory Report at c_bands before calling an iterative solver
           453 MiB given to the printing process from OS
             0 MiB allocation reported by mallinfo(arena+hblkhd)
          9382 MiB available memory on the node where the printing process lives
------------------
     ethr =  3.68E-07,  avg # of iterations =  2.0

     total cpu time spent up to now is       36.8 secs

     total energy              =    -827.74785368 Ry
     estimated scf accuracy    <       0.00001257 Ry

     iteration #  8     ecut=    50.00 Ry     beta= 0.70
     Davidson diagonalization with overlap

---- Real-time Memory Report at c_bands before calling an iterative solver
           455 MiB given to the printing process from OS
             0 MiB allocation reported by mallinfo(arena+hblkhd)
          9378 MiB available memory on the node where the printing process lives
------------------
     ethr =  1.57E-08,  avg # of iterations =  5.6

     total cpu time spent up to now is       43.4 secs

     total energy              =    -827.74786603 Ry
     estimated scf accuracy    <       0.00001336 Ry

     iteration #  9     ecut=    50.00 Ry     beta= 0.70
     Davidson diagonalization with overlap

---- Real-time Memory Report at c_bands before calling an iterative solver
           458 MiB given to the printing process from OS
             0 MiB allocation reported by mallinfo(arena+hblkhd)
          9377 MiB available memory on the node where the printing process lives
------------------
     ethr =  1.57E-08,  avg # of iterations =  2.1

     total cpu time spent up to now is       47.8 secs

     total energy              =    -827.74786774 Ry
     estimated scf accuracy    <       0.00000058 Ry

     iteration # 10     ecut=    50.00 Ry     beta= 0.70
     Davidson diagonalization with overlap

---- Real-time Memory Report at c_bands before calling an iterative solver
           460 MiB given to the printing process from OS
             0 MiB allocation reported by mallinfo(arena+hblkhd)
          9374 MiB available memory on the node where the printing process lives
------------------
     ethr =  7.23E-10,  avg # of iterations =  5.1

     total cpu time spent up to now is       53.8 secs

     total energy              =    -827.74786813 Ry
     estimated scf accuracy    <       0.00000004 Ry

     iteration # 11     ecut=    50.00 Ry     beta= 0.70
     Davidson diagonalization with overlap

---- Real-time Memory Report at c_bands before calling an iterative solver
           463 MiB given to the printing process from OS
             0 MiB allocation reported by mallinfo(arena+hblkhd)
          9361 MiB available memory on the node where the printing process lives
------------------
     ethr =  4.42E-11,  avg # of iterations =  5.0

     total cpu time spent up to now is       60.3 secs

     total energy              =    -827.74786814 Ry
     estimated scf accuracy    <       0.00000001 Ry

     iteration # 12     ecut=    50.00 Ry     beta= 0.70
     Davidson diagonalization with overlap

---- Real-time Memory Report at c_bands before calling an iterative solver
           464 MiB given to the printing process from OS
             0 MiB allocation reported by mallinfo(arena+hblkhd)
          9360 MiB available memory on the node where the printing process lives
------------------
     ethr =  1.84E-11,  avg # of iterations =  3.4

     total cpu time spent up to now is       64.9 secs

     End of self-consistent calculation

          k = 0.1667 0.1725 0.1579 (  8798 PWs)   bands (ev):

   -13.7155 -13.7064 -13.7026 -13.6995 -13.6990 -13.6968 -13.6928 -13.6909
   -13.6855 -13.6808 -13.6800 -13.6793 -13.6689 -13.6655 -13.6483 -13.6459
   -13.6412 -13.6398 -13.6311 -13.6256  -5.9609  -5.6785  -4.9849  -4.6019
     0.3919   1.2324   2.0750   2.4491   3.0305   4.2530   4.3932   4.6636
     4.9183   4.9747   5.5415   5.8528   6.0925   6.4800   6.8848   7.1794

     occupation numbers 
     1.0000   1.0000   1.0000   1.0000   1.0000   1.0000   1.0000   1.0000
     1.0000   1.0000   1.0000   1.0000   1.0000   1.0000   1.0000   1.0000
     1.0000   1.0000   1.0000   1.0000   1.0000   1.0000   1.0000   1.0000
     1.0000   1.0000   1.0000   1.0000   1.0000   1.0000   1.0000   1.0000
     1.0000   1.0000   1.0000   1.0000   1.0000   1.0000   1.0000   1.0000

          k = 0.1667 0.1725 0.4737 (  8804 PWs)   bands (ev):

   -13.7141 -13.7059 -13.7026 -13.7005 -13.6989 -13.6981 -13.6933 -13.6914
   -13.6854 -13.6811 -13.6779 -13.6767 -13.6683 -13.6657 -13.6485 -13.6452
   -13.6421 -13.6403 -13.6307 -13.6261  -5.8457  -5.5730  -4.9819  -4.6356
     0.0755   0.9717   1.5468   2.1193   3.1259   4.2989   4.5100   5.0358
     5.2451   5.5007   5.5496   5.9608   6.3513   6.6551   6.9432   7.1914

     occupation numbers 
     1.0000   1.0000   1.0000   1.0000   1.0000   1.0000   1.0000   1.0000
     1.0000   1.0000   1.0000   1.0000   1.0000   1.0000   1.0000   1.0000
     1.0000   1.0000   1.0000   1.0000   1.0000   1.0000   1.0000   1.0000
     1.0000   1.0000   1.0000   1.0000   1.0000   1.0000   1.0000   1.0000
     1.0000   1.0000   1.0000   1.0000   1.0000   1.0000   1.0000   1.0000

          k = 0.1667 0.1725 0.7896 (  8795 PWs)   bands (ev):

   -13.7118 -13.7056 -13.7028 -13.7018 -13.6996 -13.6989 -13.6939 -13.6924
   -13.6847 -13.6817 -13.6745 -13.6729 -13.6679 -13.6661 -13.6482 -13.6446
   -13.6432 -13.6411 -13.6300 -13.6268  -5.6387  -5.3851  -5.0148  -4.7257
    -0.2367   0.4679   1.1082   1.6363   3.4280   4.5298   4.7309   5.3089
     5.5253   5.6681   5.9165   6.0383   6.5199   6.9891   7.0140   7.4418

     occupation numbers 
     1.0000   1.0000   1.0000   1.0000   1.0000   1.0000   1.0000   1.0000
     1.0000   1.0000   1.0000   1.0000   1.0000   1.0000   1.0000   1.0000
     1.0000   1.0000   1.0000   1.0000   1.0000   1.0000   1.0000   1.0000
     1.0000   1.0000   1.0000   1.0000   1.0000   1.0000   1.0000   1.0000
     1.0000   1.0000   1.0000   1.0000   1.0000   1.0000   1.0000   1.0000

          k = 0.1667 0.1725 1.1054 (  8801 PWs)   bands (ev):

   -13.7091 -13.7067 -13.7030 -13.7027 -13.7001 -13.6995 -13.6941 -13.6935
   -13.6836 -13.6826 -13.6710 -13.6696 -13.6686 -13.6672 -13.6473 -13.6458
   -13.6428 -13.6420 -13.6289 -13.6278  -5.3922  -5.2199  -5.0699  -4.8893
    -0.3012  -0.0405   1.0115   1.2142   3.8987   4.4087   5.1019   5.3655
     5.5788   5.7024   5.9537   6.2391   6.8079   7.1228   7.2912   7.3767

     occupation numbers 
     1.0000   1.0000   1.0000   1.0000   1.0000   1.0000   1.0000   1.0000
     1.0000   1.0000   1.0000   1.0000   1.0000   1.0000   1.0000   1.0000
     1.0000   1.0000   1.0000   1.0000   1.0000   1.0000   1.0000   1.0000
     1.0000   1.0000   1.0000   1.0000   1.0000   1.0000   1.0000   1.0000
     1.0000   1.0000   1.0000   1.0000   1.0000   1.0000   1.0000   1.0000

          k = 0.1667 0.5174 0.1579 (  8813 PWs)   bands (ev):

   -13.7098 -13.7046 -13.7017 -13.6984 -13.6978 -13.6966 -13.6959 -13.6935
   -13.6870 -13.6833 -13.6788 -13.6762 -13.6669 -13.6660 -13.6479 -13.6458
   -13.6433 -13.6395 -13.6308 -13.6268  -5.8010  -5.5406  -4.9180  -4.5970
     0.2414   0.9770   1.7524   1.8599   3.1455   4.1254   4.4264   4.7445
     5.0503   5.2247   5.5619   5.8981   6.1316   6.7566   7.0117   7.1128

     occupation numbers 
     1.0000   1.0000   1.0000   1.0000   1.0000   1.0000   1.0000   1.0000
     1.0000   1.0000   1.0000   1.0000   1.0000   1.0000   1.0000   1.0000
     1.0000   1.0000   1.0000   1.0000   1.0000   1.0000   1.0000   1.0000
     1.0000   1.0000   1.0000   1.0000   1.0000   1.0000   1.0000   1.0000
     1.0000   1.0000   1.0000   1.0000   1.0000   1.0000   1.0000   1.0000

          k = 0.1667 0.5174 0.4737 (  8802 PWs)   bands (ev):

   -13.7097 -13.7045 -13.7031 -13.6990 -13.6979 -13.6969 -13.6954 -13.6946
   -13.6868 -13.6835 -13.6766 -13.6740 -13.6673 -13.6651 -13.6477 -13.6455
   -13.6436 -13.6404 -13.6305 -13.6270  -5.6916  -5.4414  -4.9127  -4.6207
     0.0818   0.9082   1.4013   1.7627   3.2781   3.7252   4.0111   4.8171
     5.0157   5.5678   5.7818   5.9418   6.5664   6.6976   7.0057   7.1837

     occupation numbers 
     1.0000   1.0000   1.0000   1.0000   1.0000   1.0000   1.0000   1.0000
     1.0000   1.0000   1.0000   1.0000   1.0000   1.0000   1.0000   1.0000
     1.0000   1.0000   1.0000   1.0000   1.0000   1.0000   1.0000   1.0000
     1.0000   1.0000   1.0000   1.0000   1.0000   1.0000   1.0000   1.0000
     1.0000   1.0000   1.0000   1.0000   1.0000   1.0000   1.0000   1.0000

          k = 0.1667 0.5174 0.7896 (  8800 PWs)   bands (ev):

   -13.7097 -13.7058 -13.7037 -13.7002 -13.6985 -13.6967 -13.6961 -13.6949
   -13.6860 -13.6839 -13.6735 -13.6707 -13.6674 -13.6646 -13.6471 -13.6451
   -13.6440 -13.6417 -13.6298 -13.6275  -5.4972  -5.2670  -4.9375  -4.6902
    -0.0967   0.5747   1.1396   1.5342   3.5361   3.6773   3.9608   4.7331
     4.8438   5.5967   5.6601   6.2180   6.4362   6.6912   6.8956   7.1796

     occupation numbers 
     1.0000   1.0000   1.0000   1.0000   1.0000   1.0000   1.0000   1.0000
     1.0000   1.0000   1.0000   1.0000   1.0000   1.0000   1.0000   1.0000
     1.0000   1.0000   1.0000   1.0000   1.0000   1.0000   1.0000   1.0000
     1.0000   1.0000   1.0000   1.0000   1.0000   1.0000   1.0000   1.0000
     1.0000   1.0000   1.0000   1.0000   1.0000   1.0000   1.0000   1.0000

          k = 0.1667 0.5174 1.1054 (  8820 PWs)   bands (ev):

   -13.7093 -13.7080 -13.7029 -13.7017 -13.6986 -13.6978 -13.6958 -13.6951
   -13.6851 -13.6844 -13.6707 -13.6691 -13.6666 -13.6651 -13.6462 -13.6453
   -13.6438 -13.6429 -13.6290 -13.6282  -5.2702  -5.1156  -4.9832  -4.8260
    -0.1090   0.1369   1.1184   1.2730   3.8542   3.9160   4.1860   4.4622
     4.7568   5.0829   5.7310   6.0157   6.3817   6.6290   6.8924   7.0800

     occupation numbers 
     1.0000   1.0000   1.0000   1.0000   1.0000   1.0000   1.0000   1.0000
     1.0000   1.0000   1.0000   1.0000   1.0000   1.0000   1.0000   1.0000
     1.0000   1.0000   1.0000   1.0000   1.0000   1.0000   1.0000   1.0000
     1.0000   1.0000   1.0000   1.0000   1.0000   1.0000   1.0000   1.0000
     1.0000   1.0000   1.0000   1.0000   1.0000   1.0000   1.0000   1.0000

          k = 0.1667 0.8623 0.1579 (  8830 PWs)   bands (ev):

   -13.7076 -13.7055 -13.7034 -13.7028 -13.6961 -13.6932 -13.6924 -13.6909
   -13.6860 -13.6854 -13.6788 -13.6722 -13.6680 -13.6633 -13.6518 -13.6508
   -13.6406 -13.6364 -13.6303 -13.6285  -5.5100  -5.3012  -4.8453  -4.6495
     0.0369   0.6488   0.9876   1.3063   3.4841   4.2433   4.6104   4.9519
     5.3088   5.3783   5.7074   5.8897   6.2589   6.7365   6.8441   7.2084

     occupation numbers 
     1.0000   1.0000   1.0000   1.0000   1.0000   1.0000   1.0000   1.0000
     1.0000   1.0000   1.0000   1.0000   1.0000   1.0000   1.0000   1.0000
     1.0000   1.0000   1.0000   1.0000   1.0000   1.0000   1.0000   1.0000
     1.0000   1.0000   1.0000   1.0000   1.0000   1.0000   1.0000   1.0000
     1.0000   1.0000   1.0000   1.0000   1.0000   1.0000   1.0000   1.0000

          k = 0.1667 0.8623 0.4737 (  8825 PWs)   bands (ev):

   -13.7102 -13.7073 -13.7048 -13.7033 -13.6967 -13.6924 -13.6919 -13.6908
   -13.6855 -13.6851 -13.6770 -13.6712 -13.6674 -13.6627 -13.6512 -13.6503
   -13.6406 -13.6371 -13.6300 -13.6285  -5.4146  -5.2166  -4.8316  -4.6500
     0.0751   0.7423   1.0162   1.2383   3.4867   3.6019   3.9533   4.5436
     4.9745   5.5279   5.6162   6.0657   6.1600   6.5074   6.7339   6.9717

     occupation numbers 
     1.0000   1.0000   1.0000   1.0000   1.0000   1.0000   1.0000   1.0000
     1.0000   1.0000   1.0000   1.0000   1.0000   1.0000   1.0000   1.0000
     1.0000   1.0000   1.0000   1.0000   1.0000   1.0000   1.0000   1.0000
     1.0000   1.0000   1.0000   1.0000   1.0000   1.0000   1.0000   1.0000
     1.0000   1.0000   1.0000   1.0000   1.0000   1.0000   1.0000   1.0000

          k = 0.1667 0.8623 0.7896 (  8818 PWs)   bands (ev):

   -13.7128 -13.7105 -13.7065 -13.7052 -13.6963 -13.6927 -13.6912 -13.6905
   -13.6848 -13.6846 -13.6745 -13.6704 -13.6655 -13.6622 -13.6504 -13.6496
   -13.6405 -13.6381 -13.6296 -13.6285  -5.2498  -5.0725  -4.8348  -4.6745
     0.1326   0.6990   1.0701   1.2374   3.1001   3.4376   3.8706   4.1298
     4.4349   5.0247   5.3348   5.6896   5.9912   6.2498   6.4635   6.9333

     occupation numbers 
     1.0000   1.0000   1.0000   1.0000   1.0000   1.0000   1.0000   1.0000
     1.0000   1.0000   1.0000   1.0000   1.0000   1.0000   1.0000   1.0000
     1.0000   1.0000   1.0000   1.0000   1.0000   1.0000   1.0000   1.0000
     1.0000   1.0000   1.0000   1.0000   1.0000   1.0000   1.0000   1.0000
     1.0000   1.0000   1.0000   1.0000   1.0000   1.0000   1.0000   1.0000

          k = 0.1667 0.8623 1.1054 (  8811 PWs)   bands (ev):

   -13.7140 -13.7132 -13.7074 -13.7069 -13.6952 -13.6938 -13.6907 -13.6904
   -13.6843 -13.6842 -13.6723 -13.6708 -13.6634 -13.6623 -13.6496 -13.6493
   -13.6400 -13.6391 -13.6291 -13.6287  -5.0668  -4.9519  -4.8575  -4.7502
     0.2354   0.4410   1.1993   1.2556   3.1156   3.4571   3.5353   3.9153
     4.2954   4.6998   5.0419   5.4358   5.6489   5.9072   6.5451   6.6847

     occupation numbers 
     1.0000   1.0000   1.0000   1.0000   1.0000   1.0000   1.0000   1.0000
     1.0000   1.0000   1.0000   1.0000   1.0000   1.0000   1.0000   1.0000
     1.0000   1.0000   1.0000   1.0000   1.0000   1.0000   1.0000   1.0000
     1.0000   1.0000   1.0000   1.0000   1.0000   1.0000   1.0000   1.0000
     1.0000   1.0000   1.0000   1.0000   1.0000   1.0000   1.0000   1.0000

          k = 0.1667 1.2072 0.1579 (  8839 PWs)   bands (ev):

   -13.7094 -13.7080 -13.7067 -13.7054 -13.6926 -13.6910 -13.6894 -13.6881
   -13.6835 -13.6812 -13.6800 -13.6747 -13.6645 -13.6601 -13.6578 -13.6559
   -13.6356 -13.6331 -13.6312 -13.6307  -5.1539  -5.0402  -4.8678  -4.8358
     0.0042   0.3261   0.5531   0.8085   4.0011   4.4482   4.8257   5.1442
     5.3276   5.3798   5.7833   6.0513   6.3847   6.5849   6.6485   6.8133

     occupation numbers 
     1.0000   1.0000   1.0000   1.0000   1.0000   1.0000   1.0000   1.0000
     1.0000   1.0000   1.0000   1.0000   1.0000   1.0000   1.0000   1.0000
     1.0000   1.0000   1.0000   1.0000   1.0000   1.0000   1.0000   1.0000
     1.0000   1.0000   1.0000   1.0000   1.0000   1.0000   1.0000   1.0000
     1.0000   1.0000   1.0000   1.0000   1.0000   1.0000   1.0000   1.0000

          k = 0.1667 1.2072 0.4737 (  8841 PWs)   bands (ev):

   -13.7120 -13.7106 -13.7083 -13.7072 -13.6929 -13.6911 -13.6882 -13.6874
   -13.6830 -13.6814 -13.6782 -13.6742 -13.6635 -13.6606 -13.6559 -13.6549
   -13.6358 -13.6339 -13.6307 -13.6305  -5.0838  -4.9795  -4.8348  -4.8011
     0.1496   0.4641   0.6793   0.8599   3.7586   3.9518   4.2185   4.5035
     4.6802   5.1297   5.5774   5.7637   5.8841   6.1702   6.6378   6.9017

     occupation numbers 
     1.0000   1.0000   1.0000   1.0000   1.0000   1.0000   1.0000   1.0000
     1.0000   1.0000   1.0000   1.0000   1.0000   1.0000   1.0000   1.0000
     1.0000   1.0000   1.0000   1.0000   1.0000   1.0000   1.0000   1.0000
     1.0000   1.0000   1.0000   1.0000   1.0000   1.0000   1.0000   1.0000
     1.0000   1.0000   1.0000   1.0000   1.0000   1.0000   1.0000   1.0000

          k = 0.1667 1.2072 0.7896 (  8809 PWs)   bands (ev):

   -13.7153 -13.7143 -13.7105 -13.7098 -13.6929 -13.6915 -13.6872 -13.6868
   -13.6822 -13.6811 -13.6764 -13.6738 -13.6619 -13.6603 -13.6538 -13.6534
   -13.6359 -13.6346 -13.6303 -13.6302  -4.9706  -4.8841  -4.7957  -4.7577
     0.3957   0.6773   0.8774   0.9393   3.1136   3.5603   3.6608   3.9990
     4.2365   4.5925   4.9150   5.3779   5.4754   5.7408   6.4958   6.6391

     occupation numbers 
     1.0000   1.0000   1.0000   1.0000   1.0000   1.0000   1.0000   1.0000
     1.0000   1.0000   1.0000   1.0000   1.0000   1.0000   1.0000   1.0000
     1.0000   1.0000   1.0000   1.0000   1.0000   1.0000   1.0000   1.0000
     1.0000   1.0000   1.0000   1.0000   1.0000   1.0000   1.0000   1.0000
     1.0000   1.0000   1.0000   1.0000   1.0000   1.0000   1.0000   1.0000

          k = 0.1667 1.2072 1.1054 (  8815 PWs)   bands (ev):

   -13.7174 -13.7170 -13.7120 -13.7118 -13.6927 -13.6921 -13.6867 -13.6865
   -13.6814 -13.6810 -13.6750 -13.6740 -13.6605 -13.6600 -13.6525 -13.6524
   -13.6357 -13.6352 -13.6301 -13.6300  -4.8617  -4.8118  -4.7767  -4.7442
     0.6363   0.7581   1.0374   1.0694   2.8573   3.0607   3.4418   3.5942
     4.0360   4.0887   4.5831   4.9035   5.4462   5.6365   6.3699   6.4168

     occupation numbers 
     1.0000   1.0000   1.0000   1.0000   1.0000   1.0000   1.0000   1.0000
     1.0000   1.0000   1.0000   1.0000   1.0000   1.0000   1.0000   1.0000
     1.0000   1.0000   1.0000   1.0000   1.0000   1.0000   1.0000   1.0000
     1.0000   1.0000   1.0000   1.0000   1.0000   1.0000   1.0000   1.0000
     1.0000   1.0000   1.0000   1.0000   1.0000   1.0000   1.0000   1.0000

          k =-0.5000 0.1725 0.1579 (  8804 PWs)   bands (ev):

   -13.7115 -13.7115 -13.7008 -13.7008 -13.6983 -13.6983 -13.6915 -13.6915
   -13.6834 -13.6834 -13.6793 -13.6793 -13.6673 -13.6673 -13.6468 -13.6468
   -13.6407 -13.6407 -13.6282 -13.6282  -5.8449  -5.8449  -4.7682  -4.7682
     0.6883   0.6883   2.3618   2.3618   3.6776   3.6776   4.5704   4.5704
     5.0219   5.0219   5.6218   5.6218   5.9680   5.9680   7.0873   7.0873

     occupation numbers 
     1.0000   1.0000   1.0000   1.0000   1.0000   1.0000   1.0000   1.0000
     1.0000   1.0000   1.0000   1.0000   1.0000   1.0000   1.0000   1.0000
     1.0000   1.0000   1.0000   1.0000   1.0000   1.0000   1.0000   1.0000
     1.0000   1.0000   1.0000   1.0000   1.0000   1.0000   1.0000   1.0000
     1.0000   1.0000   1.0000   1.0000   1.0000   1.0000   1.0000   1.0000

          k =-0.5000 0.1725 0.4737 (  8796 PWs)   bands (ev):

   -13.7106 -13.7106 -13.7008 -13.7008 -13.6991 -13.6991 -13.6923 -13.6923
   -13.6833 -13.6833 -13.6770 -13.6770 -13.6672 -13.6672 -13.6467 -13.6467
   -13.6413 -13.6413 -13.6283 -13.6283  -5.7347  -5.7347  -4.7834  -4.7834
     0.3971   0.3971   1.9019   1.9019   3.8949   3.8949   4.6315   4.6315
     5.3169   5.3169   5.7724   5.7724   6.4235   6.4235   6.9874   6.9874

     occupation numbers 
     1.0000   1.0000   1.0000   1.0000   1.0000   1.0000   1.0000   1.0000
     1.0000   1.0000   1.0000   1.0000   1.0000   1.0000   1.0000   1.0000
     1.0000   1.0000   1.0000   1.0000   1.0000   1.0000   1.0000   1.0000
     1.0000   1.0000   1.0000   1.0000   1.0000   1.0000   1.0000   1.0000
     1.0000   1.0000   1.0000   1.0000   1.0000   1.0000   1.0000   1.0000

          k =-0.5000 0.1725 0.7896 (  8810 PWs)   bands (ev):

   -13.7091 -13.7091 -13.7018 -13.7018 -13.6994 -13.6994 -13.6934 -13.6934
   -13.6830 -13.6830 -13.6735 -13.6735 -13.6672 -13.6672 -13.6465 -13.6465
   -13.6421 -13.6421 -13.6283 -13.6283  -5.5393  -5.5393  -4.8431  -4.8431
     0.0584   0.0584   1.3610   1.3610   4.2127   4.2127   4.9116   4.9116
     5.4567   5.4567   5.9975   5.9975   6.6363   6.6363   7.1720   7.1720

     occupation numbers 
     1.0000   1.0000   1.0000   1.0000   1.0000   1.0000   1.0000   1.0000
     1.0000   1.0000   1.0000   1.0000   1.0000   1.0000   1.0000   1.0000
     1.0000   1.0000   1.0000   1.0000   1.0000   1.0000   1.0000   1.0000
     1.0000   1.0000   1.0000   1.0000   1.0000   1.0000   1.0000   1.0000
     1.0000   1.0000   1.0000   1.0000   1.0000   1.0000   1.0000   1.0000

          k =-0.5000 0.1725 1.1054 (  8806 PWs)   bands (ev):

   -13.7078 -13.7078 -13.7030 -13.7030 -13.6995 -13.6995 -13.6943 -13.6943
   -13.6827 -13.6827 -13.6703 -13.6703 -13.6679 -13.6679 -13.6463 -13.6463
   -13.6427 -13.6427 -13.6283 -13.6283  -5.3272  -5.3272  -4.9591  -4.9591
    -0.1346  -0.1346   1.0072   1.0072   4.6224   4.6224   5.2120   5.2120
     5.2928   5.2928   5.8477   5.8477   7.0203   7.0203   7.2979   7.2979

     occupation numbers 
     1.0000   1.0000   1.0000   1.0000   1.0000   1.0000   1.0000   1.0000
     1.0000   1.0000   1.0000   1.0000   1.0000   1.0000   1.0000   1.0000
     1.0000   1.0000   1.0000   1.0000   1.0000   1.0000   1.0000   1.0000
     1.0000   1.0000   1.0000   1.0000   1.0000   1.0000   1.0000   1.0000
     1.0000   1.0000   1.0000   1.0000   1.0000   1.0000   1.0000   1.0000

          k =-0.5000 0.5174 0.1579 (  8800 PWs)   bands (ev):

   -13.7072 -13.7072 -13.7005 -13.7005 -13.6974 -13.6974 -13.6944 -13.6944
   -13.6851 -13.6851 -13.6772 -13.6772 -13.6666 -13.6666 -13.6469 -13.6469
   -13.6413 -13.6413 -13.6287 -13.6287  -5.6933  -5.6933  -4.7344  -4.7344
     0.5182   0.5182   1.8550   1.8550   3.8053   3.8053   4.4519   4.4519
     5.3322   5.3322   5.5152   5.5152   6.1846   6.1846   7.1600   7.1600

     occupation numbers 
     1.0000   1.0000   1.0000   1.0000   1.0000   1.0000   1.0000   1.0000
     1.0000   1.0000   1.0000   1.0000   1.0000   1.0000   1.0000   1.0000
     1.0000   1.0000   1.0000   1.0000   1.0000   1.0000   1.0000   1.0000
     1.0000   1.0000   1.0000   1.0000   1.0000   1.0000   1.0000   1.0000
     1.0000   1.0000   1.0000   1.0000   1.0000   1.0000   1.0000   1.0000

          k =-0.5000 0.5174 0.4737 (  8806 PWs)   bands (ev):

   -13.7073 -13.7073 -13.7016 -13.7016 -13.6972 -13.6972 -13.6947 -13.6947
   -13.6850 -13.6850 -13.6752 -13.6752 -13.6663 -13.6663 -13.6467 -13.6467
   -13.6419 -13.6419 -13.6286 -13.6286  -5.5891  -5.5891  -4.7437  -4.7437
     0.3886   0.3886   1.6378   1.6378   3.7517   3.7517   4.3225   4.3225
     4.9982   4.9982   5.9726   5.9726   6.5669   6.5669   7.0898   7.0898

     occupation numbers 
     1.0000   1.0000   1.0000   1.0000   1.0000   1.0000   1.0000   1.0000
     1.0000   1.0000   1.0000   1.0000   1.0000   1.0000   1.0000   1.0000
     1.0000   1.0000   1.0000   1.0000   1.0000   1.0000   1.0000   1.0000
     1.0000   1.0000   1.0000   1.0000   1.0000   1.0000   1.0000   1.0000
     1.0000   1.0000   1.0000   1.0000   1.0000   1.0000   1.0000   1.0000

          k =-0.5000 0.5174 0.7896 (  8804 PWs)   bands (ev):

   -13.7076 -13.7076 -13.7033 -13.7033 -13.6971 -13.6971 -13.6949 -13.6949
   -13.6847 -13.6847 -13.6724 -13.6724 -13.6659 -13.6659 -13.6463 -13.6463
   -13.6428 -13.6428 -13.6284 -13.6284  -5.4064  -5.4064  -4.7897  -4.7897
     0.1869   0.1869   1.3352   1.3352   3.7446   3.7446   4.4937   4.4937
     4.8496   4.8496   6.0388   6.0388   6.4257   6.4257   7.0484   7.0484

     occupation numbers 
     1.0000   1.0000   1.0000   1.0000   1.0000   1.0000   1.0000   1.0000
     1.0000   1.0000   1.0000   1.0000   1.0000   1.0000   1.0000   1.0000
     1.0000   1.0000   1.0000   1.0000   1.0000   1.0000   1.0000   1.0000
     1.0000   1.0000   1.0000   1.0000   1.0000   1.0000   1.0000   1.0000
     1.0000   1.0000   1.0000   1.0000   1.0000   1.0000   1.0000   1.0000

          k =-0.5000 0.5174 1.1054 (  8804 PWs)   bands (ev):

   -13.7079 -13.7079 -13.7044 -13.7044 -13.6969 -13.6969 -13.6951 -13.6951
   -13.6846 -13.6846 -13.6704 -13.6704 -13.6655 -13.6655 -13.6460 -13.6460
   -13.6434 -13.6434 -13.6283 -13.6283  -5.2116  -5.2116  -4.8864  -4.8864
     0.0451   0.0451   1.1107   1.1107   3.9832   3.9832   4.3853   4.3853
     5.0918   5.0918   5.6421   5.6421   6.3157   6.3157   6.8759   6.8759

     occupation numbers 
     1.0000   1.0000   1.0000   1.0000   1.0000   1.0000   1.0000   1.0000
     1.0000   1.0000   1.0000   1.0000   1.0000   1.0000   1.0000   1.0000
     1.0000   1.0000   1.0000   1.0000   1.0000   1.0000   1.0000   1.0000
     1.0000   1.0000   1.0000   1.0000   1.0000   1.0000   1.0000   1.0000
     1.0000   1.0000   1.0000   1.0000   1.0000   1.0000   1.0000   1.0000

          k =-0.5000 0.8623 0.1579 (  8816 PWs)   bands (ev):

   -13.7070 -13.7070 -13.7024 -13.7024 -13.6943 -13.6943 -13.6926 -13.6926
   -13.6854 -13.6854 -13.6758 -13.6758 -13.6650 -13.6650 -13.6514 -13.6514
   -13.6384 -13.6384 -13.6293 -13.6293  -5.4223  -5.4223  -4.7301  -4.7301
     0.2891   0.2891   1.1519   1.1519   4.0917   4.0917   4.6299   4.6299
     5.4988   5.4988   5.6632   5.6632   6.2048   6.2048   7.0346   7.0346

     occupation numbers 
     1.0000   1.0000   1.0000   1.0000   1.0000   1.0000   1.0000   1.0000
     1.0000   1.0000   1.0000   1.0000   1.0000   1.0000   1.0000   1.0000
     1.0000   1.0000   1.0000   1.0000   1.0000   1.0000   1.0000   1.0000
     1.0000   1.0000   1.0000   1.0000   1.0000   1.0000   1.0000   1.0000
     1.0000   1.0000   1.0000   1.0000   1.0000   1.0000   1.0000   1.0000

          k =-0.5000 0.8623 0.4737 (  8828 PWs)   bands (ev):

   -13.7088 -13.7088 -13.7041 -13.7041 -13.6944 -13.6944 -13.6917 -13.6917
   -13.6849 -13.6849 -13.6747 -13.6747 -13.6643 -13.6643 -13.6511 -13.6511
   -13.6387 -13.6387 -13.6292 -13.6292  -5.3322  -5.3322  -4.7239  -4.7239
     0.3455   0.3455   1.1471   1.1471   3.6417   3.6417   4.4354   4.4354
     4.9128   4.9128   5.9159   5.9159   6.1314   6.1314   6.9297   6.9297

     occupation numbers 
     1.0000   1.0000   1.0000   1.0000   1.0000   1.0000   1.0000   1.0000
     1.0000   1.0000   1.0000   1.0000   1.0000   1.0000   1.0000   1.0000
     1.0000   1.0000   1.0000   1.0000   1.0000   1.0000   1.0000   1.0000
     1.0000   1.0000   1.0000   1.0000   1.0000   1.0000   1.0000   1.0000
     1.0000   1.0000   1.0000   1.0000   1.0000   1.0000   1.0000   1.0000

          k =-0.5000 0.8623 0.7896 (  8812 PWs)   bands (ev):

   -13.7112 -13.7112 -13.7066 -13.7066 -13.6942 -13.6942 -13.6910 -13.6910
   -13.6842 -13.6842 -13.6734 -13.6734 -13.6630 -13.6630 -13.6506 -13.6506
   -13.6390 -13.6390 -13.6290 -13.6290  -5.1786  -5.1786  -4.7372  -4.7372
     0.3809   0.3809   1.1531   1.1531   3.2948   3.2948   4.1032   4.1032
     4.7173   4.7173   5.3930   5.3930   5.9787   5.9787   6.7742   6.7742

     occupation numbers 
     1.0000   1.0000   1.0000   1.0000   1.0000   1.0000   1.0000   1.0000
     1.0000   1.0000   1.0000   1.0000   1.0000   1.0000   1.0000   1.0000
     1.0000   1.0000   1.0000   1.0000   1.0000   1.0000   1.0000   1.0000
     1.0000   1.0000   1.0000   1.0000   1.0000   1.0000   1.0000   1.0000
     1.0000   1.0000   1.0000   1.0000   1.0000   1.0000   1.0000   1.0000

          k =-0.5000 0.8623 1.1054 (  8810 PWs)   bands (ev):

   -13.7129 -13.7129 -13.7083 -13.7083 -13.6940 -13.6940 -13.6907 -13.6907
   -13.6838 -13.6838 -13.6725 -13.6725 -13.6618 -13.6618 -13.6503 -13.6503
   -13.6392 -13.6392 -13.6289 -13.6289  -5.0228  -5.0228  -4.7907  -4.7907
     0.3584   0.3584   1.1809   1.1809   3.3076   3.3076   3.6646   3.6646
     4.7165   4.7165   5.0258   5.0258   5.9329   5.9329   6.4384   6.4384

     occupation numbers 
     1.0000   1.0000   1.0000   1.0000   1.0000   1.0000   1.0000   1.0000
     1.0000   1.0000   1.0000   1.0000   1.0000   1.0000   1.0000   1.0000
     1.0000   1.0000   1.0000   1.0000   1.0000   1.0000   1.0000   1.0000
     1.0000   1.0000   1.0000   1.0000   1.0000   1.0000   1.0000   1.0000
     1.0000   1.0000   1.0000   1.0000   1.0000   1.0000   1.0000   1.0000

          k =-0.5000 1.2072 0.1579 (  8834 PWs)   bands (ev):

   -13.7083 -13.7083 -13.7066 -13.7066 -13.6908 -13.6908 -13.6901 -13.6901
   -13.6818 -13.6818 -13.6775 -13.6775 -13.6618 -13.6618 -13.6571 -13.6571
   -13.6343 -13.6343 -13.6310 -13.6310  -5.1038  -5.1038  -4.8455  -4.8455
     0.2468   0.2468   0.5516   0.5516   4.5561   4.5561   4.9035   4.9035
     5.3969   5.3969   5.6356   5.6356   6.3251   6.3251   6.6802   6.6802

     occupation numbers 
     1.0000   1.0000   1.0000   1.0000   1.0000   1.0000   1.0000   1.0000
     1.0000   1.0000   1.0000   1.0000   1.0000   1.0000   1.0000   1.0000
     1.0000   1.0000   1.0000   1.0000   1.0000   1.0000   1.0000   1.0000
     1.0000   1.0000   1.0000   1.0000   1.0000   1.0000   1.0000   1.0000
     1.0000   1.0000   1.0000   1.0000   1.0000   1.0000   1.0000   1.0000

          k =-0.5000 1.2072 0.4737 (  8814 PWs)   bands (ev):

   -13.7105 -13.7105 -13.7087 -13.7087 -13.6907 -13.6907 -13.6897 -13.6897
   -13.6811 -13.6811 -13.6770 -13.6770 -13.6608 -13.6608 -13.6563 -13.6563
   -13.6343 -13.6343 -13.6309 -13.6309  -5.0382  -5.0382  -4.8118  -4.8118
     0.3801   0.3801   0.6576   0.6576   3.9269   3.9269   4.4502   4.4502
     4.9825   4.9825   5.4245   5.4245   6.0957   6.0957   6.5298   6.5298

     occupation numbers 
     1.0000   1.0000   1.0000   1.0000   1.0000   1.0000   1.0000   1.0000
     1.0000   1.0000   1.0000   1.0000   1.0000   1.0000   1.0000   1.0000
     1.0000   1.0000   1.0000   1.0000   1.0000   1.0000   1.0000   1.0000
     1.0000   1.0000   1.0000   1.0000   1.0000   1.0000   1.0000   1.0000
     1.0000   1.0000   1.0000   1.0000   1.0000   1.0000   1.0000   1.0000

          k =-0.5000 1.2072 0.7896 (  8794 PWs)   bands (ev):

   -13.7134 -13.7134 -13.7116 -13.7116 -13.6908 -13.6908 -13.6893 -13.6893
   -13.6801 -13.6801 -13.6762 -13.6762 -13.6592 -13.6592 -13.6551 -13.6551
   -13.6344 -13.6344 -13.6308 -13.6308  -4.9340  -4.9340  -4.7703  -4.7703
     0.5797   0.5797   0.8399   0.8399   3.3582   3.3582   3.8704   3.8704
     4.4240   4.4240   4.8805   4.8805   5.9893   5.9893   6.3595   6.3595

     occupation numbers 
     1.0000   1.0000   1.0000   1.0000   1.0000   1.0000   1.0000   1.0000
     1.0000   1.0000   1.0000   1.0000   1.0000   1.0000   1.0000   1.0000
     1.0000   1.0000   1.0000   1.0000   1.0000   1.0000   1.0000   1.0000
     1.0000   1.0000   1.0000   1.0000   1.0000   1.0000   1.0000   1.0000
     1.0000   1.0000   1.0000   1.0000   1.0000   1.0000   1.0000   1.0000

          k =-0.5000 1.2072 1.1054 (  8810 PWs)   bands (ev):

   -13.7154 -13.7154 -13.7137 -13.7137 -13.6909 -13.6909 -13.6892 -13.6892
   -13.6795 -13.6795 -13.6757 -13.6757 -13.6580 -13.6580 -13.6543 -13.6543
   -13.6345 -13.6345 -13.6308 -13.6308  -4.8416  -4.8416  -4.7557  -4.7557
     0.7111   0.7111   1.0221   1.0221   3.1581   3.1581   3.4055   3.4055
     4.0615   4.0615   4.3603   4.3603   6.0844   6.0844   6.2701   6.2701

     occupation numbers 
     1.0000   1.0000   1.0000   1.0000   1.0000   1.0000   1.0000   1.0000
     1.0000   1.0000   1.0000   1.0000   1.0000   1.0000   1.0000   1.0000
     1.0000   1.0000   1.0000   1.0000   1.0000   1.0000   1.0000   1.0000
     1.0000   1.0000   1.0000   1.0000   1.0000   1.0000   1.0000   1.0000
     1.0000   1.0000   1.0000   1.0000   1.0000   1.0000   1.0000   1.0000

     highest occupied level (ev):     7.4418

!    total energy              =    -827.74786815 Ry
     estimated scf accuracy    <          3.3E-10 Ry

     The total energy is the sum of the following terms:
     one-electron contribution =    -265.75485260 Ry
     hartree contribution      =     182.18700485 Ry
     xc contribution           =    -308.99789125 Ry
     ewald contribution        =    -435.06207962 Ry
     DFT-D3 Dispersion         =      -0.12004954 Ry

     convergence has been achieved in  12 iterations

     Forces acting on atoms (cartesian axes, Ry/au):

     atom    1 type  2   force =     0.00099834   -0.00000000   -0.00031667
     atom    2 type  1   force =    -0.00116691    0.00000000   -0.00013003
     atom    3 type  2   force =    -0.00099834    0.00000000   -0.00031667
     atom    4 type  1   force =     0.00116691    0.00000000   -0.00013003
     atom    5 type  2   force =     0.00099834    0.00000000    0.00031667
     atom    6 type  1   force =    -0.00116691    0.00000000    0.00013003
     atom    7 type  2   force =    -0.00099834    0.00000000    0.00031667
     atom    8 type  1   force =     0.00116691   -0.00000000    0.00013003
     The non-local contrib.  to forces
     atom    1 type  2   force =    -0.10363835    0.00000000    0.11333218
     atom    2 type  1   force =     0.34665178    0.00000000    0.30349961
     atom    3 type  2   force =     0.10363835    0.00000000    0.11333218
     atom    4 type  1   force =    -0.34665178    0.00000000    0.30349961
     atom    5 type  2   force =    -0.10363835    0.00000000   -0.11333218
     atom    6 type  1   force =     0.34665178    0.00000000   -0.30349961
     atom    7 type  2   force =     0.10363835    0.00000000   -0.11333218
     atom    8 type  1   force =    -0.34665178    0.00000000   -0.30349961
     The ionic contribution  to forces
     atom    1 type  2   force =     1.17086170   -0.00000000   -1.29921806
     atom    2 type  1   force =    -0.61378762    0.00000000   -0.73119397
     atom    3 type  2   force =    -1.17086170    0.00000000   -1.29921806
     atom    4 type  1   force =     0.61378762    0.00000000   -0.73119397
     atom    5 type  2   force =     1.17086170    0.00000000    1.29921806
     atom    6 type  1   force =    -0.61378762   -0.00000000    0.73119397
     atom    7 type  2   force =    -1.17086170   -0.00000000    1.29921806
     atom    8 type  1   force =     0.61378762    0.00000000    0.73119397
     The local contribution  to forces
     atom    1 type  2   force =    -1.07711223    0.00000000    1.19647769
     atom    2 type  1   force =     0.27279633    0.00000000    0.43165675
     atom    3 type  2   force =     1.07711223   -0.00000000    1.19647769
     atom    4 type  1   force =    -0.27279633    0.00000000    0.43165675
     atom    5 type  2   force =    -1.07711223   -0.00000000   -1.19647769
     atom    6 type  1   force =     0.27279633    0.00000000   -0.43165675
     atom    7 type  2   force =     1.07711223    0.00000000   -1.19647769
     atom    8 type  1   force =    -0.27279633   -0.00000000   -0.43165675
     The core correction contribution to forces
     atom    1 type  2   force =     0.01158259    0.00000000   -0.01254509
     atom    2 type  1   force =    -0.00614341   -0.00000000   -0.00504177
     atom    3 type  2   force =    -0.01158259   -0.00000000   -0.01254509
     atom    4 type  1   force =     0.00614341   -0.00000000   -0.00504177
     atom    5 type  2   force =     0.01158259   -0.00000000    0.01254509
     atom    6 type  1   force =    -0.00614341    0.00000000    0.00504177
     atom    7 type  2   force =    -0.01158259    0.00000000    0.01254509
     atom    8 type  1   force =     0.00614341   -0.00000000    0.00504177
     The Hubbard contrib.    to forces
     atom    1 type  2   force =     0.00000000    0.00000000    0.00000000
     atom    2 type  1   force =     0.00000000    0.00000000    0.00000000
     atom    3 type  2   force =     0.00000000    0.00000000    0.00000000
     atom    4 type  1   force =     0.00000000    0.00000000    0.00000000
     atom    5 type  2   force =     0.00000000    0.00000000    0.00000000
     atom    6 type  1   force =     0.00000000    0.00000000    0.00000000
     atom    7 type  2   force =     0.00000000    0.00000000    0.00000000
     atom    8 type  1   force =     0.00000000    0.00000000    0.00000000
     The SCF correction term to forces
     atom    1 type  2   force =     0.00000270    0.00000000   -0.00000043
     atom    2 type  1   force =    -0.00003883    0.00000000   -0.00002048
     atom    3 type  2   force =    -0.00000270   -0.00000000   -0.00000043
     atom    4 type  1   force =     0.00003883    0.00000000   -0.00002048
     atom    5 type  2   force =     0.00000270   -0.00000000    0.00000043
     atom    6 type  1   force =    -0.00003883    0.00000000    0.00002048
     atom    7 type  2   force =    -0.00000270   -0.00000000    0.00000043
     atom    8 type  1   force =     0.00003883    0.00000000    0.00002048

     DFT-D3 dispersion contribution to forces:
     atom    1 type  2   force =    -0.00069806    0.00000000    0.00163704
     atom    2 type  1   force =    -0.00064517   -0.00000000    0.00096984
     atom    3 type  2   force =     0.00069806    0.00000000    0.00163704
     atom    4 type  1   force =     0.00064517   -0.00000000    0.00096984
     atom    5 type  2   force =    -0.00069806    0.00000000   -0.00163704
     atom    6 type  1   force =    -0.00064517    0.00000000   -0.00096984
     atom    7 type  2   force =     0.00069806   -0.00000000   -0.00163704
     atom    8 type  1   force =     0.00064517   -0.00000000   -0.00096984

     Total force =     0.003147     Total SCF correction =     0.000088

     DFT-D3 dispersion Force =     0.004254

     Writing all to output data dir ./tmp/SnSe_pnma.save/ :
     XML data file, charge density, pseudopotentials, collected wavefunctions
 
     init_run     :      2.41s CPU      2.74s WALL (       1 calls)
     electrons    :     58.19s CPU     61.96s WALL (       1 calls)
     forces       :      0.95s CPU      1.11s WALL (       1 calls)
     force_dftd3  :      0.05s CPU      0.06s WALL (       1 calls)

     Called by init_run:
     wfcinit      :      1.52s CPU      1.59s WALL (       1 calls)
     wfcinit:atom :      0.02s CPU      0.02s WALL (      11 calls)
     wfcinit:wfcr :      1.34s CPU      1.40s WALL (      11 calls)
     potinit      :      0.22s CPU      0.25s WALL (       1 calls)
     hinit0       :      0.26s CPU      0.27s WALL (       1 calls)

     Called by electrons:
     c_bands      :     42.83s CPU     43.26s WALL (      12 calls)
     sum_band     :     10.36s CPU     11.99s WALL (      12 calls)
     v_of_rho     :      1.84s CPU      1.90s WALL (      13 calls)
     v_h          :      0.15s CPU      0.15s WALL (      13 calls)
     v_xc         :      1.83s CPU      1.89s WALL (      14 calls)
     newd         :      3.23s CPU      5.02s WALL (      13 calls)
     mix_rho      :      0.21s CPU      0.21s WALL (      12 calls)
     energy_dftd3 :      0.04s CPU      0.04s WALL (       1 calls)

     Called by c_bands:
     init_us_2    :      1.29s CPU      1.30s WALL (     286 calls)
     cegterg      :     38.24s CPU     38.56s WALL (     132 calls)

     Called by sum_band:
     sum_band:wei :      0.00s CPU      0.00s WALL (      12 calls)
     sum_band:loo :      6.66s CPU      6.72s WALL (      12 calls)
     sum_band:buf :      0.08s CPU      0.08s WALL (     132 calls)
     sum_band:ini :      0.56s CPU      0.56s WALL (     132 calls)
     sum_band:cal :      0.76s CPU      0.77s WALL (     132 calls)
     sum_band:bec :      0.01s CPU      0.01s WALL (     132 calls)
     addusdens    :      3.25s CPU      4.80s WALL (      12 calls)
                                        0.00s GPU  (      12 calls)
     addusd:skk   :      0.02s CPU      0.02s WALL (      24 calls)
                                        0.00s GPU  (      24 calls)

     Called by *egterg:
     cdiaghg      :      0.91s CPU      0.92s WALL (     592 calls)
     cegterg:over :      1.90s CPU      1.91s WALL (     460 calls)
     cegterg:upda :      1.16s CPU      1.17s WALL (     460 calls)
     cegterg:last :      2.66s CPU      2.67s WALL (     339 calls)
     h_psi        :     28.85s CPU     29.16s WALL (     603 calls)
     s_psi        :      2.75s CPU      2.77s WALL (     603 calls)
     g_psi        :      0.11s CPU      0.11s WALL (     460 calls)

     Called by h_psi:
     h_psi:calbec :      2.57s CPU      2.58s WALL (     603 calls)
     vloc_psi     :     23.25s CPU     23.54s WALL (     603 calls)
     add_vuspsi   :      2.79s CPU      2.80s WALL (     603 calls)

     General routines
     calbec       :      3.58s CPU      3.60s WALL (     779 calls)
     fft          :      0.96s CPU      0.99s WALL (     178 calls)
     ffts         :      0.02s CPU      0.02s WALL (      25 calls)
     fftw         :     15.51s CPU     15.72s WALL (   38394 calls)
     interpolate  :      0.10s CPU      0.10s WALL (      13 calls)
 
     Parallel routines
 
     PWSCF        :   1m 1.82s CPU   1m 6.80s WALL

 
   This run was terminated on:  17:17:34  20May2026            

=------------------------------------------------------------------------------=
   JOB DONE.
=------------------------------------------------------------------------------=
