
     Program PWSCF v.7.3.1 starts on 20May2026 at 15:15:49 

     This program is part of the open-source Quantum ESPRESSO suite
     for quantum simulation of materials; please cite
         "P. Giannozzi et al., J. Phys.:Condens. Matter 21 395502 (2009);
         "P. Giannozzi et al., J. Phys.:Condens. Matter 29 465901 (2017);
         "P. Giannozzi et al., J. Chem. Phys. 152 154105 (2020);
          URL http://www.quantum-espresso.org", 
     in publications or presentations arising from this work. More details at
     http://www.quantum-espresso.org/quote

     Parallel version (MPI & OpenMP), running on       6 processor cores
     Number of MPI processes:                 6
     Threads/MPI process:                     1

     MPI processes distributed on     1 nodes
     10755 MiB available memory on the printing compute node when the environment starts
 
     Waiting for input...
     Reading input from standard input

     Current dimensions of program PWSCF are:
     Max number of different atomic species (ntypx) = 10
     Max number of k-points (npk) =  40000
     Max angular momentum in pseudopotentials (lmaxx) =  4
 
     K-points division:     npool     =       3
     R & G space division:  proc/nbgrp/npool/nimage =       2
     Subspace diagonalization in iterative solution of the eigenvalue problem:
     a serial algorithm will be used

 
     Parallelization info
     --------------------
     sticks:   dense  smooth     PW     G-vecs:    dense   smooth      PW
     Min        2841    1132    328               103622    26239    4115
     Max        2842    1133    329               103623    26240    4116
     Sum        5683    2265    657               207245    52479    8231
 
     Using Slab Decomposition
 


     bravais-lattice index     =            8
     lattice parameter (alat)  =      22.6200  a.u.
     unit-cell volume          =    1535.0009 (a.u.)^3
     number of atoms/cell      =            8
     number of atomic types    =            2
     number of electrons       =        80.00
     number of Kohn-Sham states=           40
     kinetic-energy cutoff     =      40.0000  Ry
     charge density cutoff     =     400.0000  Ry
     scf convergence threshold =      1.0E-08
     mixing beta               =       0.7000
     number of iterations used =            8  plain     mixing
     Exchange-correlation= SLA  PW   PBE  PBE
                           (   1   4   3   4   0   0   0)

     celldm(1)=  22.620022  celldm(2)=   0.348488  celldm(3)=   0.380576
     celldm(4)=   0.000000  celldm(5)=   0.000000  celldm(6)=   0.000000

     crystal axes: (cart. coord. in units of alat)
               a(1) = (   1.000000   0.000000   0.000000 )  
               a(2) = (   0.000000   0.348488   0.000000 )  
               a(3) = (   0.000000   0.000000   0.380576 )  

     reciprocal axes: (cart. coord. in units 2 pi/alat)
               b(1) = (  1.000000  0.000000  0.000000 )  
               b(2) = (  0.000000  2.869540  0.000000 )  
               b(3) = (  0.000000  0.000000  2.627593 )  


     PseudoPot. # 1 for Sn read from file:
     ../pseudo/Sn_pbe_v1.uspp.F.UPF
     MD5 check sum: 4cf58ce39ec5d5d420df3dd08604eb00
     Pseudo is Ultrasoft + core correction, Zval = 14.0
     Generated by new atomic code, or converted to UPF format
     Using radial grid of  891 points,  6 beta functions with: 
                l(1) =   0
                l(2) =   0
                l(3) =   1
                l(4) =   1
                l(5) =   2
                l(6) =   2
     Q(r) pseudized with  6 coefficients,  rinner =    1.200   1.200   1.200
                                                       1.200   1.200

     PseudoPot. # 2 for Se read from file:
     ../pseudo/Se_pbe_v1.uspp.F.UPF
     MD5 check sum: 1b3568f3a8ae88f9a2a0ad0698632c85
     Pseudo is Ultrasoft + core correction, Zval =  6.0
     Generated by new atomic code, or converted to UPF format
     Using radial grid of  877 points,  6 beta functions with: 
                l(1) =   0
                l(2) =   0
                l(3) =   1
                l(4) =   1
                l(5) =   2
                l(6) =   2
     Q(r) pseudized with  8 coefficients,  rinner =    1.300   1.300   1.300
                                                       1.300   1.300

     atomic species   valence    mass     pseudopotential
     Sn               14.00   118.71000     Sn( 1.00)
     Se                6.00    78.97100     Se( 1.00)

      8 Sym. Ops., with inversion, found ( 6 have fractional translation)


                                    s                        frac. trans.

      isym =  1     identity                                     

 cryst.   s( 1) = (     1          0          0      )
                  (     0          1          0      )
                  (     0          0          1      )

 cart.    s( 1) = (  1.0000000  0.0000000  0.0000000 )
                  (  0.0000000  1.0000000  0.0000000 )
                  (  0.0000000  0.0000000  1.0000000 )


      isym =  2     180 deg rotation - cart. axis [0,0,1]        

 cryst.   s( 2) = (    -1          0          0      )    f =(  0.5000000 )
                  (     0         -1          0      )       (  0.0000000 )
                  (     0          0          1      )       ( -0.5000000 )

 cart.    s( 2) = ( -1.0000000  0.0000000  0.0000000 )    f =(  0.5000000 )
                  (  0.0000000 -1.0000000  0.0000000 )       (  0.0000000 )
                  (  0.0000000  0.0000000  1.0000000 )       ( -0.1902882 )


      isym =  3     180 deg rotation - cart. axis [0,1,0]        

 cryst.   s( 3) = (    -1          0          0      )    f =( -0.0000000 )
                  (     0          1          0      )       (  0.5000000 )
                  (     0          0         -1      )       (  0.0000000 )

 cart.    s( 3) = ( -1.0000000  0.0000000  0.0000000 )    f =( -0.0000000 )
                  (  0.0000000  1.0000000  0.0000000 )       (  0.1742439 )
                  (  0.0000000  0.0000000 -1.0000000 )       (  0.0000000 )


      isym =  4     180 deg rotation - cart. axis [1,0,0]        

 cryst.   s( 4) = (     1          0          0      )    f =(  0.5000000 )
                  (     0         -1          0      )       (  0.5000000 )
                  (     0          0         -1      )       (  0.5000000 )

 cart.    s( 4) = (  1.0000000  0.0000000  0.0000000 )    f =(  0.5000000 )
                  (  0.0000000 -1.0000000  0.0000000 )       (  0.1742439 )
                  (  0.0000000  0.0000000 -1.0000000 )       (  0.1902882 )


      isym =  5     inversion                                    

 cryst.   s( 5) = (    -1          0          0      )
                  (     0         -1          0      )
                  (     0          0         -1      )

 cart.    s( 5) = ( -1.0000000  0.0000000  0.0000000 )
                  (  0.0000000 -1.0000000  0.0000000 )
                  (  0.0000000  0.0000000 -1.0000000 )


      isym =  6     inv. 180 deg rotation - cart. axis [0,0,1]   

 cryst.   s( 6) = (     1          0          0      )    f =(  0.5000000 )
                  (     0          1          0      )       (  0.0000000 )
                  (     0          0         -1      )       (  0.5000000 )

 cart.    s( 6) = (  1.0000000  0.0000000  0.0000000 )    f =(  0.5000000 )
                  (  0.0000000  1.0000000  0.0000000 )       (  0.0000000 )
                  (  0.0000000  0.0000000 -1.0000000 )       (  0.1902882 )


      isym =  7     inv. 180 deg rotation - cart. axis [0,1,0]   

 cryst.   s( 7) = (     1          0          0      )    f =(  0.0000000 )
                  (     0         -1          0      )       (  0.5000000 )
                  (     0          0          1      )       (  0.0000000 )

 cart.    s( 7) = (  1.0000000  0.0000000  0.0000000 )    f =(  0.0000000 )
                  (  0.0000000 -1.0000000  0.0000000 )       (  0.1742439 )
                  (  0.0000000  0.0000000  1.0000000 )       (  0.0000000 )


      isym =  8     inv. 180 deg rotation - cart. axis [1,0,0]   

 cryst.   s( 8) = (    -1          0          0      )    f =(  0.5000000 )
                  (     0          1          0      )       (  0.5000000 )
                  (     0          0          1      )       ( -0.5000000 )

 cart.    s( 8) = ( -1.0000000  0.0000000  0.0000000 )    f =(  0.5000000 )
                  (  0.0000000  1.0000000  0.0000000 )       (  0.1742439 )
                  (  0.0000000  0.0000000  1.0000000 )       ( -0.1902882 )


     point group D_2h (mmm) 
     there are  8 classes
     the character table:

       E     C2    C2'   C2''  i     s_v   s_v'  s_v''
A_g    1.00  1.00  1.00  1.00  1.00  1.00  1.00  1.00
B_1g   1.00  1.00 -1.00 -1.00  1.00  1.00 -1.00 -1.00
B_2g   1.00 -1.00  1.00 -1.00  1.00 -1.00  1.00 -1.00
B_3g   1.00 -1.00 -1.00  1.00  1.00 -1.00 -1.00  1.00
A_u    1.00  1.00  1.00  1.00 -1.00 -1.00 -1.00 -1.00
B_1u   1.00  1.00 -1.00 -1.00 -1.00 -1.00  1.00  1.00
B_2u   1.00 -1.00  1.00 -1.00 -1.00  1.00 -1.00  1.00
B_3u   1.00 -1.00 -1.00  1.00 -1.00  1.00  1.00 -1.00

     the symmetry operations in each class and the name of the first element:

     E        1
          identity                                               
     C2       2
          180 deg rotation - cart. axis [0,0,1]                  
     C2'      4
          180 deg rotation - cart. axis [1,0,0]                  
     C2''     3
          180 deg rotation - cart. axis [0,1,0]                  
     i        5
          inversion                                              
     s_v      6
          inv. 180 deg rotation - cart. axis [0,0,1]             
     s_v'     8
          inv. 180 deg rotation - cart. axis [1,0,0]             
     s_v''    7
          inv. 180 deg rotation - cart. axis [0,1,0]             

   Cartesian axes

     site n.     atom                  positions (alat units)
         1        Se     tau(   1) = (   0.8549563   0.0871220   0.1839128  )
         2        Sn     tau(   2) = (   0.1165395   0.0871220   0.0427338  )
         3        Se     tau(   3) = (   0.6450437   0.2613659   0.3742011  )
         4        Sn     tau(   4) = (   0.3834605   0.2613659   0.2330220  )
         5        Se     tau(   5) = (   0.3549563   0.0871220   0.0063754  )
         6        Sn     tau(   6) = (   0.6165395   0.0871220   0.1475544  )
         7        Se     tau(   7) = (   0.1450437   0.2613659   0.1966636  )
         8        Sn     tau(   8) = (   0.8834605   0.2613659   0.3378426  )

     --------------------------------------------
     DFT-D3 Dispersion Correction (3-body terms):
     --------------------------------------------
       Reference C6 values for interpolation: 

         atom   Coordination number   C6
         Se         0.000           427.35
         Se         0.990           427.57
         Se         1.981           421.05
         Sn         0.000          1255.14
         Sn         0.951          1084.09
         Sn         1.950          1010.83
         Sn         2.926           818.29
         Sn         3.912           672.20

       Values used:

         atom   Coordination number  R0_AB[au]  C6      C8
         Se         3.251            3.332    421.05  29958.36
         Sn         3.823            3.957    677.64  85051.44
         Se         3.251            3.332    421.05  29958.36
         Sn         3.823            3.957    677.64  85051.44
         Se         3.251            3.332    421.05  29958.36
         Sn         3.823            3.957    677.64  85051.44
         Se         3.251            3.332    421.05  29958.36
         Sn         3.823            3.957    677.64  85051.44

         Molecular C6 ( Ry / a.u.^6 ) =     34650.39


   Crystallographic axes

     site n.     atom                  positions (cryst. coord.)
         1        Se     tau(   1) = (  0.8549563  0.2500000  0.4832481  )
         2        Sn     tau(   2) = (  0.1165395  0.2500000  0.1122870  )
         3        Se     tau(   3) = (  0.6450437  0.7500000  0.9832481  )
         4        Sn     tau(   4) = (  0.3834605  0.7500000  0.6122870  )
         5        Se     tau(   5) = (  0.3549563  0.2500000  0.0167519  )
         6        Sn     tau(   6) = (  0.6165395  0.2500000  0.3877130  )
         7        Se     tau(   7) = (  0.1450437  0.7500000  0.5167519  )
         8        Sn     tau(   8) = (  0.8834605  0.7500000  0.8877130  )

     number of k points=    32
                       cart. coord. in units 2pi/alat
        k(    1) = (   0.1666667   0.1793463   0.1642246), wk =   0.0833333
        k(    2) = (   0.1666667   0.1793463   0.4926737), wk =   0.0833333
        k(    3) = (   0.1666667   0.1793463   0.8211228), wk =   0.0833333
        k(    4) = (   0.1666667   0.1793463   1.1495719), wk =   0.0833333
        k(    5) = (   0.1666667   0.5380388   0.1642246), wk =   0.0833333
        k(    6) = (   0.1666667   0.5380388   0.4926737), wk =   0.0833333
        k(    7) = (   0.1666667   0.5380388   0.8211228), wk =   0.0833333
        k(    8) = (   0.1666667   0.5380388   1.1495719), wk =   0.0833333
        k(    9) = (   0.1666667   0.8967313   0.1642246), wk =   0.0833333
        k(   10) = (   0.1666667   0.8967313   0.4926737), wk =   0.0833333
        k(   11) = (   0.1666667   0.8967313   0.8211228), wk =   0.0833333
        k(   12) = (   0.1666667   0.8967313   1.1495719), wk =   0.0833333
        k(   13) = (   0.1666667   1.2554238   0.1642246), wk =   0.0833333
        k(   14) = (   0.1666667   1.2554238   0.4926737), wk =   0.0833333
        k(   15) = (   0.1666667   1.2554238   0.8211228), wk =   0.0833333
        k(   16) = (   0.1666667   1.2554238   1.1495719), wk =   0.0833333
        k(   17) = (  -0.5000000   0.1793463   0.1642246), wk =   0.0416667
        k(   18) = (  -0.5000000   0.1793463   0.4926737), wk =   0.0416667
        k(   19) = (  -0.5000000   0.1793463   0.8211228), wk =   0.0416667
        k(   20) = (  -0.5000000   0.1793463   1.1495719), wk =   0.0416667
        k(   21) = (  -0.5000000   0.5380388   0.1642246), wk =   0.0416667
        k(   22) = (  -0.5000000   0.5380388   0.4926737), wk =   0.0416667
        k(   23) = (  -0.5000000   0.5380388   0.8211228), wk =   0.0416667
        k(   24) = (  -0.5000000   0.5380388   1.1495719), wk =   0.0416667
        k(   25) = (  -0.5000000   0.8967313   0.1642246), wk =   0.0416667
        k(   26) = (  -0.5000000   0.8967313   0.4926737), wk =   0.0416667
        k(   27) = (  -0.5000000   0.8967313   0.8211228), wk =   0.0416667
        k(   28) = (  -0.5000000   0.8967313   1.1495719), wk =   0.0416667
        k(   29) = (  -0.5000000   1.2554238   0.1642246), wk =   0.0416667
        k(   30) = (  -0.5000000   1.2554238   0.4926737), wk =   0.0416667
        k(   31) = (  -0.5000000   1.2554238   0.8211228), wk =   0.0416667
        k(   32) = (  -0.5000000   1.2554238   1.1495719), wk =   0.0416667

                       cryst. coord.
        k(    1) = (   0.1666667   0.0625000   0.0625000), wk =   0.0833333
        k(    2) = (   0.1666667   0.0625000   0.1875000), wk =   0.0833333
        k(    3) = (   0.1666667   0.0625000   0.3125000), wk =   0.0833333
        k(    4) = (   0.1666667   0.0625000   0.4375000), wk =   0.0833333
        k(    5) = (   0.1666667   0.1875000   0.0625000), wk =   0.0833333
        k(    6) = (   0.1666667   0.1875000   0.1875000), wk =   0.0833333
        k(    7) = (   0.1666667   0.1875000   0.3125000), wk =   0.0833333
        k(    8) = (   0.1666667   0.1875000   0.4375000), wk =   0.0833333
        k(    9) = (   0.1666667   0.3125000   0.0625000), wk =   0.0833333
        k(   10) = (   0.1666667   0.3125000   0.1875000), wk =   0.0833333
        k(   11) = (   0.1666667   0.3125000   0.3125000), wk =   0.0833333
        k(   12) = (   0.1666667   0.3125000   0.4375000), wk =   0.0833333
        k(   13) = (   0.1666667   0.4375000   0.0625000), wk =   0.0833333
        k(   14) = (   0.1666667   0.4375000   0.1875000), wk =   0.0833333
        k(   15) = (   0.1666667   0.4375000   0.3125000), wk =   0.0833333
        k(   16) = (   0.1666667   0.4375000   0.4375000), wk =   0.0833333
        k(   17) = (  -0.5000000   0.0625000   0.0625000), wk =   0.0416667
        k(   18) = (  -0.5000000   0.0625000   0.1875000), wk =   0.0416667
        k(   19) = (  -0.5000000   0.0625000   0.3125000), wk =   0.0416667
        k(   20) = (  -0.5000000   0.0625000   0.4375000), wk =   0.0416667
        k(   21) = (  -0.5000000   0.1875000   0.0625000), wk =   0.0416667
        k(   22) = (  -0.5000000   0.1875000   0.1875000), wk =   0.0416667
        k(   23) = (  -0.5000000   0.1875000   0.3125000), wk =   0.0416667
        k(   24) = (  -0.5000000   0.1875000   0.4375000), wk =   0.0416667
        k(   25) = (  -0.5000000   0.3125000   0.0625000), wk =   0.0416667
        k(   26) = (  -0.5000000   0.3125000   0.1875000), wk =   0.0416667
        k(   27) = (  -0.5000000   0.3125000   0.3125000), wk =   0.0416667
        k(   28) = (  -0.5000000   0.3125000   0.4375000), wk =   0.0416667
        k(   29) = (  -0.5000000   0.4375000   0.0625000), wk =   0.0416667
        k(   30) = (  -0.5000000   0.4375000   0.1875000), wk =   0.0416667
        k(   31) = (  -0.5000000   0.4375000   0.3125000), wk =   0.0416667
        k(   32) = (  -0.5000000   0.4375000   0.4375000), wk =   0.0416667

     Dense  grid:   207245 G-vectors     FFT dimensions: ( 150,  54,  60)

     Smooth grid:    52479 G-vectors     FFT dimensions: (  96,  32,  36)

     Dynamical RAM for                 wfc:       2.00 MB

     Dynamical RAM for     wfc (w. buffer):      24.02 MB

     Dynamical RAM for           str. fact:       3.16 MB

     Dynamical RAM for           local pot:       0.00 MB

     Dynamical RAM for          nlocal pot:       7.20 MB

     Dynamical RAM for                qrad:       3.21 MB

     Dynamical RAM for          rho,v,vnew:      10.31 MB

     Dynamical RAM for               rhoin:       3.44 MB

     Dynamical RAM for            rho*nmix:      25.30 MB

     Dynamical RAM for           G-vectors:       6.13 MB

     Dynamical RAM for          h,s,v(r/c):       0.29 MB

     Dynamical RAM for          <psi|beta>:       0.09 MB

     Dynamical RAM for                 psi:       4.00 MB

     Dynamical RAM for                hpsi:       4.00 MB

     Dynamical RAM for                spsi:       4.00 MB

     Dynamical RAM for      wfcinit/wfcrot:       5.27 MB

     Dynamical RAM for           addusdens:     101.19 MB

     Dynamical RAM for          addusforce:     104.11 MB

     Estimated static dynamical RAM per process >      71.48 MB

     Estimated max dynamical RAM per process >     200.88 MB

     Estimated total dynamical RAM >       1.08 GB

     Initial potential from superposition of free atoms

     starting charge      75.9995, renormalised to      80.0000
     Starting wfcs are   52 randomized atomic wfcs

     total cpu time spent up to now is        2.3 secs

     Self-consistent Calculation

     iteration #  1     ecut=    40.00 Ry     beta= 0.70
     Davidson diagonalization with overlap

---- Real-time Memory Report at c_bands before calling an iterative solver
           268 MiB given to the printing process from OS
             0 MiB allocation reported by mallinfo(arena+hblkhd)
         10114 MiB available memory on the node where the printing process lives
------------------
     ethr =  1.00E-02,  avg # of iterations =  2.0

     total cpu time spent up to now is        5.8 secs

     total energy              =    -826.60362677 Ry
     estimated scf accuracy    <       2.72555929 Ry

     iteration #  2     ecut=    40.00 Ry     beta= 0.70
     Davidson diagonalization with overlap

---- Real-time Memory Report at c_bands before calling an iterative solver
           338 MiB given to the printing process from OS
             0 MiB allocation reported by mallinfo(arena+hblkhd)
          9869 MiB available memory on the node where the printing process lives
------------------
     ethr =  3.41E-03,  avg # of iterations =  3.0

     total cpu time spent up to now is        9.4 secs

     total energy              =    -827.50771326 Ry
     estimated scf accuracy    <       1.07905479 Ry

     iteration #  3     ecut=    40.00 Ry     beta= 0.70
     Davidson diagonalization with overlap

---- Real-time Memory Report at c_bands before calling an iterative solver
           357 MiB given to the printing process from OS
             0 MiB allocation reported by mallinfo(arena+hblkhd)
          9748 MiB available memory on the node where the printing process lives
------------------
     ethr =  1.35E-03,  avg # of iterations =  2.8

     total cpu time spent up to now is       12.5 secs

     total energy              =    -827.73031197 Ry
     estimated scf accuracy    <       0.01325659 Ry

     iteration #  4     ecut=    40.00 Ry     beta= 0.70
     Davidson diagonalization with overlap

---- Real-time Memory Report at c_bands before calling an iterative solver
           361 MiB given to the printing process from OS
             0 MiB allocation reported by mallinfo(arena+hblkhd)
          9743 MiB available memory on the node where the printing process lives
------------------
     ethr =  1.66E-05,  avg # of iterations =  4.9

     total cpu time spent up to now is       16.6 secs

     total energy              =    -827.73800651 Ry
     estimated scf accuracy    <       0.00556959 Ry

     iteration #  5     ecut=    40.00 Ry     beta= 0.70
     Davidson diagonalization with overlap

---- Real-time Memory Report at c_bands before calling an iterative solver
           364 MiB given to the printing process from OS
             0 MiB allocation reported by mallinfo(arena+hblkhd)
          9733 MiB available memory on the node where the printing process lives
------------------
     ethr =  6.96E-06,  avg # of iterations =  2.5

     total cpu time spent up to now is       19.7 secs

     total energy              =    -827.73909839 Ry
     estimated scf accuracy    <       0.00058219 Ry

     iteration #  6     ecut=    40.00 Ry     beta= 0.70
     Davidson diagonalization with overlap

---- Real-time Memory Report at c_bands before calling an iterative solver
           365 MiB given to the printing process from OS
             0 MiB allocation reported by mallinfo(arena+hblkhd)
          9731 MiB available memory on the node where the printing process lives
------------------
     ethr =  7.28E-07,  avg # of iterations =  4.3

     total cpu time spent up to now is       23.3 secs

     total energy              =    -827.73915178 Ry
     estimated scf accuracy    <       0.00095230 Ry

     iteration #  7     ecut=    40.00 Ry     beta= 0.70
     Davidson diagonalization with overlap

---- Real-time Memory Report at c_bands before calling an iterative solver
           366 MiB given to the printing process from OS
             0 MiB allocation reported by mallinfo(arena+hblkhd)
          9731 MiB available memory on the node where the printing process lives
------------------
     ethr =  7.28E-07,  avg # of iterations =  3.0

     total cpu time spent up to now is       26.3 secs

     total energy              =    -827.73928316 Ry
     estimated scf accuracy    <       0.00002306 Ry

     iteration #  8     ecut=    40.00 Ry     beta= 0.70
     Davidson diagonalization with overlap

---- Real-time Memory Report at c_bands before calling an iterative solver
           366 MiB given to the printing process from OS
             0 MiB allocation reported by mallinfo(arena+hblkhd)
          9730 MiB available memory on the node where the printing process lives
------------------
     ethr =  2.88E-08,  avg # of iterations =  4.9

     total cpu time spent up to now is       30.2 secs

     total energy              =    -827.73930119 Ry
     estimated scf accuracy    <       0.00002026 Ry

     iteration #  9     ecut=    40.00 Ry     beta= 0.70
     Davidson diagonalization with overlap

---- Real-time Memory Report at c_bands before calling an iterative solver
           367 MiB given to the printing process from OS
             0 MiB allocation reported by mallinfo(arena+hblkhd)
          9729 MiB available memory on the node where the printing process lives
------------------
     ethr =  2.53E-08,  avg # of iterations =  2.0

     total cpu time spent up to now is       33.1 secs

     total energy              =    -827.73930320 Ry
     estimated scf accuracy    <       0.00000139 Ry

     iteration # 10     ecut=    40.00 Ry     beta= 0.70
     Davidson diagonalization with overlap

---- Real-time Memory Report at c_bands before calling an iterative solver
           370 MiB given to the printing process from OS
             0 MiB allocation reported by mallinfo(arena+hblkhd)
          9724 MiB available memory on the node where the printing process lives
------------------
     ethr =  1.74E-09,  avg # of iterations =  5.0

     total cpu time spent up to now is       37.6 secs

     total energy              =    -827.73930416 Ry
     estimated scf accuracy    <       0.00000012 Ry

     iteration # 11     ecut=    40.00 Ry     beta= 0.70
     Davidson diagonalization with overlap

---- Real-time Memory Report at c_bands before calling an iterative solver
           371 MiB given to the printing process from OS
             0 MiB allocation reported by mallinfo(arena+hblkhd)
          9721 MiB available memory on the node where the printing process lives
------------------
     ethr =  1.51E-10,  avg # of iterations =  4.0

     total cpu time spent up to now is       41.7 secs

     total energy              =    -827.73930417 Ry
     estimated scf accuracy    <       0.00000006 Ry

     iteration # 12     ecut=    40.00 Ry     beta= 0.70
     Davidson diagonalization with overlap

---- Real-time Memory Report at c_bands before calling an iterative solver
           372 MiB given to the printing process from OS
             0 MiB allocation reported by mallinfo(arena+hblkhd)
          9721 MiB available memory on the node where the printing process lives
------------------
     ethr =  7.45E-11,  avg # of iterations =  2.8

     total cpu time spent up to now is       44.7 secs

     End of self-consistent calculation

          k = 0.1667 0.1793 0.1642 (  6542 PWs)   bands (ev):

   -14.2223 -14.2144 -14.2105 -14.2067 -14.2031 -14.2027 -14.2018 -14.2013
   -14.1920 -14.1863 -14.1851 -14.1844 -14.1812 -14.1774 -14.1635 -14.1593
   -14.1565 -14.1531 -14.1487 -14.1450  -6.2215  -5.9821  -5.3876  -5.0715
     0.1470   0.8906   1.5747   1.9977   2.7629   3.9277   4.0945   4.3277
     4.5454   4.5954   5.0911   5.3590   5.5694   5.8523   6.4389   6.7228

     occupation numbers 
     1.0000   1.0000   1.0000   1.0000   1.0000   1.0000   1.0000   1.0000
     1.0000   1.0000   1.0000   1.0000   1.0000   1.0000   1.0000   1.0000
     1.0000   1.0000   1.0000   1.0000   1.0000   1.0000   1.0000   1.0000
     1.0000   1.0000   1.0000   1.0000   1.0000   1.0000   1.0000   1.0000
     1.0000   1.0000   1.0000   1.0000   1.0000   1.0000   1.0000   1.0000

          k = 0.1667 0.1793 0.4927 (  6546 PWs)   bands (ev):

   -14.2212 -14.2142 -14.2106 -14.2070 -14.2040 -14.2030 -14.2024 -14.2013
   -14.1903 -14.1862 -14.1856 -14.1835 -14.1799 -14.1760 -14.1637 -14.1599
   -14.1562 -14.1533 -14.1485 -14.1454  -6.1126  -5.8827  -5.3746  -5.0883
    -0.1784   0.5927   1.1069   1.6357   2.8429   3.9927   4.2013   4.6266
     4.8721   5.1093   5.1212   5.4628   5.9156   6.2208   6.3839   6.6850

     occupation numbers 
     1.0000   1.0000   1.0000   1.0000   1.0000   1.0000   1.0000   1.0000
     1.0000   1.0000   1.0000   1.0000   1.0000   1.0000   1.0000   1.0000
     1.0000   1.0000   1.0000   1.0000   1.0000   1.0000   1.0000   1.0000
     1.0000   1.0000   1.0000   1.0000   1.0000   1.0000   1.0000   1.0000
     1.0000   1.0000   1.0000   1.0000   1.0000   1.0000   1.0000   1.0000

          k = 0.1667 0.1793 0.8211 (  6535 PWs)   bands (ev):

   -14.2194 -14.2143 -14.2106 -14.2078 -14.2050 -14.2043 -14.2024 -14.2016
   -14.1882 -14.1864 -14.1859 -14.1826 -14.1771 -14.1742 -14.1637 -14.1611
   -14.1556 -14.1537 -14.1481 -14.1460  -5.9194  -5.7076  -5.3865  -5.1473
    -0.5147   0.0798   0.6795   1.1379   3.1379   4.2249   4.4339   4.9592
     5.0385   5.2604   5.4605   5.6652   6.0711   6.5175   6.5663   6.9295

     occupation numbers 
     1.0000   1.0000   1.0000   1.0000   1.0000   1.0000   1.0000   1.0000
     1.0000   1.0000   1.0000   1.0000   1.0000   1.0000   1.0000   1.0000
     1.0000   1.0000   1.0000   1.0000   1.0000   1.0000   1.0000   1.0000
     1.0000   1.0000   1.0000   1.0000   1.0000   1.0000   1.0000   1.0000
     1.0000   1.0000   1.0000   1.0000   1.0000   1.0000   1.0000   1.0000

          k = 0.1667 0.1793 1.1496 (  6536 PWs)   bands (ev):

   -14.2172 -14.2153 -14.2101 -14.2090 -14.2055 -14.2053 -14.2023 -14.2020
   -14.1875 -14.1871 -14.1840 -14.1827 -14.1744 -14.1733 -14.1633 -14.1623
   -14.1548 -14.1542 -14.1476 -14.1468  -5.6954  -5.5492  -5.4268  -5.2743
    -0.6164  -0.3963   0.5499   0.7249   3.6105   4.1272   4.7854   5.0008
     5.1928   5.2840   5.4616   5.7880   6.3572   6.7077   6.8461   6.9323

     occupation numbers 
     1.0000   1.0000   1.0000   1.0000   1.0000   1.0000   1.0000   1.0000
     1.0000   1.0000   1.0000   1.0000   1.0000   1.0000   1.0000   1.0000
     1.0000   1.0000   1.0000   1.0000   1.0000   1.0000   1.0000   1.0000
     1.0000   1.0000   1.0000   1.0000   1.0000   1.0000   1.0000   1.0000
     1.0000   1.0000   1.0000   1.0000   1.0000   1.0000   1.0000   1.0000

          k = 0.1667 0.5380 0.1642 (  6567 PWs)   bands (ev):

   -14.2169 -14.2116 -14.2071 -14.2063 -14.2041 -14.2038 -14.2028 -14.2022
   -14.1923 -14.1897 -14.1895 -14.1843 -14.1789 -14.1744 -14.1607 -14.1588
   -14.1565 -14.1562 -14.1482 -14.1455  -6.0676  -5.8477  -5.3136  -5.0458
    -0.0211   0.6142   1.2612   1.3996   2.8759   3.8305   4.1008   4.3527
     4.6799   4.9170   5.0932   5.3840   5.6983   6.2456   6.4863   6.6049

     occupation numbers 
     1.0000   1.0000   1.0000   1.0000   1.0000   1.0000   1.0000   1.0000
     1.0000   1.0000   1.0000   1.0000   1.0000   1.0000   1.0000   1.0000
     1.0000   1.0000   1.0000   1.0000   1.0000   1.0000   1.0000   1.0000
     1.0000   1.0000   1.0000   1.0000   1.0000   1.0000   1.0000   1.0000
     1.0000   1.0000   1.0000   1.0000   1.0000   1.0000   1.0000   1.0000

          k = 0.1667 0.5380 0.4927 (  6561 PWs)   bands (ev):

   -14.2165 -14.2115 -14.2080 -14.2075 -14.2046 -14.2042 -14.2026 -14.2023
   -14.1922 -14.1898 -14.1882 -14.1837 -14.1773 -14.1733 -14.1609 -14.1584
   -14.1572 -14.1561 -14.1481 -14.1458  -5.9644  -5.7542  -5.2993  -5.0557
    -0.1861   0.5198   0.9520   1.2992   3.0062   3.4340   3.6811   4.3523
     4.5608   5.0886   5.4553   5.5360   6.1725   6.2814   6.5119   6.6807

     occupation numbers 
     1.0000   1.0000   1.0000   1.0000   1.0000   1.0000   1.0000   1.0000
     1.0000   1.0000   1.0000   1.0000   1.0000   1.0000   1.0000   1.0000
     1.0000   1.0000   1.0000   1.0000   1.0000   1.0000   1.0000   1.0000
     1.0000   1.0000   1.0000   1.0000   1.0000   1.0000   1.0000   1.0000
     1.0000   1.0000   1.0000   1.0000   1.0000   1.0000   1.0000   1.0000

          k = 0.1667 0.5380 0.8211 (  6552 PWs)   bands (ev):

   -14.2157 -14.2113 -14.2103 -14.2085 -14.2051 -14.2049 -14.2028 -14.2024
   -14.1918 -14.1903 -14.1862 -14.1831 -14.1745 -14.1718 -14.1610 -14.1587
   -14.1573 -14.1561 -14.1478 -14.1462  -5.7832  -5.5915  -5.3056  -5.1000
    -0.3831   0.1806   0.7085   1.0603   3.2630   3.3846   3.6290   4.3086
     4.3919   5.1679   5.2678   5.8268   6.0278   6.2452   6.4279   6.6504

     occupation numbers 
     1.0000   1.0000   1.0000   1.0000   1.0000   1.0000   1.0000   1.0000
     1.0000   1.0000   1.0000   1.0000   1.0000   1.0000   1.0000   1.0000
     1.0000   1.0000   1.0000   1.0000   1.0000   1.0000   1.0000   1.0000
     1.0000   1.0000   1.0000   1.0000   1.0000   1.0000   1.0000   1.0000
     1.0000   1.0000   1.0000   1.0000   1.0000   1.0000   1.0000   1.0000

          k = 0.1667 0.5380 1.1496 (  6537 PWs)   bands (ev):

   -14.2145 -14.2127 -14.2106 -14.2096 -14.2055 -14.2054 -14.2029 -14.2027
   -14.1913 -14.1909 -14.1842 -14.1831 -14.1721 -14.1711 -14.1606 -14.1598
   -14.1567 -14.1562 -14.1473 -14.1468  -5.5772  -5.4464  -5.3383  -5.2051
    -0.4281  -0.2215   0.6627   0.7995   3.5734   3.6262   3.8610   4.1082
     4.3547   4.7100   5.3172   5.6043   5.9085   6.1356   6.3582   6.5295

     occupation numbers 
     1.0000   1.0000   1.0000   1.0000   1.0000   1.0000   1.0000   1.0000
     1.0000   1.0000   1.0000   1.0000   1.0000   1.0000   1.0000   1.0000
     1.0000   1.0000   1.0000   1.0000   1.0000   1.0000   1.0000   1.0000
     1.0000   1.0000   1.0000   1.0000   1.0000   1.0000   1.0000   1.0000
     1.0000   1.0000   1.0000   1.0000   1.0000   1.0000   1.0000   1.0000

          k = 0.1667 0.8967 0.1642 (  6572 PWs)   bands (ev):

   -14.2122 -14.2101 -14.2080 -14.2076 -14.2061 -14.2014 -14.2000 -14.1996
   -14.1942 -14.1931 -14.1920 -14.1858 -14.1753 -14.1713 -14.1619 -14.1617
   -14.1560 -14.1530 -14.1471 -14.1459  -5.7911  -5.6169  -5.2249  -5.0565
    -0.2588   0.2397   0.5828   0.7803   3.2078   3.9534   4.2988   4.5602
     4.9795   5.0443   5.2599   5.4392   5.8577   6.2819   6.3642   6.6662

     occupation numbers 
     1.0000   1.0000   1.0000   1.0000   1.0000   1.0000   1.0000   1.0000
     1.0000   1.0000   1.0000   1.0000   1.0000   1.0000   1.0000   1.0000
     1.0000   1.0000   1.0000   1.0000   1.0000   1.0000   1.0000   1.0000
     1.0000   1.0000   1.0000   1.0000   1.0000   1.0000   1.0000   1.0000
     1.0000   1.0000   1.0000   1.0000   1.0000   1.0000   1.0000   1.0000

          k = 0.1667 0.8967 0.4927 (  6571 PWs)   bands (ev):

   -14.2142 -14.2111 -14.2090 -14.2080 -14.2066 -14.2018 -14.1998 -14.1991
   -14.1943 -14.1932 -14.1900 -14.1854 -14.1739 -14.1705 -14.1614 -14.1612
   -14.1561 -14.1536 -14.1471 -14.1460  -5.7013  -5.5368  -5.2050  -5.0496
    -0.2234   0.3297   0.5965   0.7588   3.2076   3.3287   3.6244   4.1208
     4.5329   5.1266   5.2900   5.6530   5.7830   5.9850   6.2748   6.4705

     occupation numbers 
     1.0000   1.0000   1.0000   1.0000   1.0000   1.0000   1.0000   1.0000
     1.0000   1.0000   1.0000   1.0000   1.0000   1.0000   1.0000   1.0000
     1.0000   1.0000   1.0000   1.0000   1.0000   1.0000   1.0000   1.0000
     1.0000   1.0000   1.0000   1.0000   1.0000   1.0000   1.0000   1.0000
     1.0000   1.0000   1.0000   1.0000   1.0000   1.0000   1.0000   1.0000

          k = 0.1667 0.8967 0.8211 (  6552 PWs)   bands (ev):

   -14.2162 -14.2138 -14.2104 -14.2097 -14.2060 -14.2026 -14.1997 -14.1991
   -14.1936 -14.1931 -14.1879 -14.1850 -14.1715 -14.1692 -14.1606 -14.1604
   -14.1561 -14.1545 -14.1469 -14.1462  -5.5481  -5.4018  -5.1953  -5.0597
    -0.1751   0.2955   0.6393   0.7988   2.8121   3.1162   3.5637   3.7611
     3.9832   4.6890   4.9852   5.2851   5.5718   5.7165   5.9020   6.3852

     occupation numbers 
     1.0000   1.0000   1.0000   1.0000   1.0000   1.0000   1.0000   1.0000
     1.0000   1.0000   1.0000   1.0000   1.0000   1.0000   1.0000   1.0000
     1.0000   1.0000   1.0000   1.0000   1.0000   1.0000   1.0000   1.0000
     1.0000   1.0000   1.0000   1.0000   1.0000   1.0000   1.0000   1.0000
     1.0000   1.0000   1.0000   1.0000   1.0000   1.0000   1.0000   1.0000

          k = 0.1667 0.8967 1.1496 (  6555 PWs)   bands (ev):

   -14.2171 -14.2162 -14.2113 -14.2111 -14.2050 -14.2038 -14.1996 -14.1994
   -14.1931 -14.1929 -14.1862 -14.1852 -14.1694 -14.1686 -14.1598 -14.1598
   -14.1559 -14.1553 -14.1467 -14.1465  -5.3825  -5.2858  -5.2087  -5.1171
    -0.0942   0.0765   0.7618   0.8181   2.8201   3.1439   3.1812   3.5439
     3.9682   4.3831   4.6210   5.0265   5.1807   5.4082   5.9473   6.1059

     occupation numbers 
     1.0000   1.0000   1.0000   1.0000   1.0000   1.0000   1.0000   1.0000
     1.0000   1.0000   1.0000   1.0000   1.0000   1.0000   1.0000   1.0000
     1.0000   1.0000   1.0000   1.0000   1.0000   1.0000   1.0000   1.0000
     1.0000   1.0000   1.0000   1.0000   1.0000   1.0000   1.0000   1.0000
     1.0000   1.0000   1.0000   1.0000   1.0000   1.0000   1.0000   1.0000

          k = 0.1667 1.2554 0.1642 (  6577 PWs)   bands (ev):

   -14.2129 -14.2114 -14.2105 -14.2095 -14.2018 -14.1993 -14.1976 -14.1968
   -14.1954 -14.1938 -14.1920 -14.1888 -14.1715 -14.1686 -14.1670 -14.1654
   -14.1511 -14.1493 -14.1474 -14.1470  -5.4629  -5.3721  -5.2235  -5.1897
    -0.3323  -0.0482   0.0882   0.3008   3.7312   4.1884   4.5211   4.7852
     4.9575   5.0355   5.3929   5.6141   5.9908   6.1288   6.2151   6.3564

     occupation numbers 
     1.0000   1.0000   1.0000   1.0000   1.0000   1.0000   1.0000   1.0000
     1.0000   1.0000   1.0000   1.0000   1.0000   1.0000   1.0000   1.0000
     1.0000   1.0000   1.0000   1.0000   1.0000   1.0000   1.0000   1.0000
     1.0000   1.0000   1.0000   1.0000   1.0000   1.0000   1.0000   1.0000
     1.0000   1.0000   1.0000   1.0000   1.0000   1.0000   1.0000   1.0000

          k = 0.1667 1.2554 0.4927 (  6565 PWs)   bands (ev):

   -14.2149 -14.2133 -14.2123 -14.2112 -14.2018 -14.1995 -14.1974 -14.1968
   -14.1945 -14.1936 -14.1907 -14.1882 -14.1705 -14.1685 -14.1654 -14.1644
   -14.1512 -14.1498 -14.1473 -14.1470  -5.3967  -5.3135  -5.1885  -5.1546
    -0.1880   0.0897   0.2244   0.3738   3.4808   3.6863   3.9196   4.2131
     4.2947   4.7887   5.1464   5.3206   5.4382   5.7263   6.0488   6.3526

     occupation numbers 
     1.0000   1.0000   1.0000   1.0000   1.0000   1.0000   1.0000   1.0000
     1.0000   1.0000   1.0000   1.0000   1.0000   1.0000   1.0000   1.0000
     1.0000   1.0000   1.0000   1.0000   1.0000   1.0000   1.0000   1.0000
     1.0000   1.0000   1.0000   1.0000   1.0000   1.0000   1.0000   1.0000
     1.0000   1.0000   1.0000   1.0000   1.0000   1.0000   1.0000   1.0000

          k = 0.1667 1.2554 0.8211 (  6566 PWs)   bands (ev):

   -14.2176 -14.2163 -14.2145 -14.2138 -14.2017 -14.2000 -14.1972 -14.1969
   -14.1934 -14.1930 -14.1893 -14.1877 -14.1689 -14.1678 -14.1634 -14.1630
   -14.1513 -14.1504 -14.1471 -14.1470  -5.2909  -5.2219  -5.1450  -5.1098
     0.0547   0.2996   0.4452   0.4973   2.8318   3.2539   3.3459   3.7543
     3.8166   4.2481   4.4570   4.9249   5.0047   5.2952   5.9030   6.0605

     occupation numbers 
     1.0000   1.0000   1.0000   1.0000   1.0000   1.0000   1.0000   1.0000
     1.0000   1.0000   1.0000   1.0000   1.0000   1.0000   1.0000   1.0000
     1.0000   1.0000   1.0000   1.0000   1.0000   1.0000   1.0000   1.0000
     1.0000   1.0000   1.0000   1.0000   1.0000   1.0000   1.0000   1.0000
     1.0000   1.0000   1.0000   1.0000   1.0000   1.0000   1.0000   1.0000

          k = 0.1667 1.2554 1.1496 (  6573 PWs)   bands (ev):

   -14.2192 -14.2187 -14.2159 -14.2156 -14.2014 -14.2007 -14.1971 -14.1970
   -14.1927 -14.1926 -14.1883 -14.1877 -14.1675 -14.1671 -14.1620 -14.1619
   -14.1513 -14.1510 -14.1471 -14.1470  -5.1917  -5.1507  -5.1222  -5.0933
     0.2858   0.3859   0.6371   0.6600   2.5682   2.7659   3.1040   3.3136
     3.5687   3.7034   4.1398   4.4401   4.9968   5.1958   5.8213   5.8585

     occupation numbers 
     1.0000   1.0000   1.0000   1.0000   1.0000   1.0000   1.0000   1.0000
     1.0000   1.0000   1.0000   1.0000   1.0000   1.0000   1.0000   1.0000
     1.0000   1.0000   1.0000   1.0000   1.0000   1.0000   1.0000   1.0000
     1.0000   1.0000   1.0000   1.0000   1.0000   1.0000   1.0000   1.0000
     1.0000   1.0000   1.0000   1.0000   1.0000   1.0000   1.0000   1.0000

          k =-0.5000 0.1793 0.1642 (  6544 PWs)   bands (ev):

   -14.2191 -14.2191 -14.2081 -14.2081 -14.2025 -14.2025 -14.2019 -14.2019
   -14.1887 -14.1887 -14.1856 -14.1856 -14.1788 -14.1788 -14.1617 -14.1617
   -14.1544 -14.1544 -14.1468 -14.1468  -6.1226  -6.1226  -5.2089  -5.2089
     0.4085   0.4085   1.8923   1.8923   3.3295   3.3295   4.2412   4.2412
     4.6231   4.6231   5.1656   5.1656   5.5003   5.5003   6.6207   6.6207

     occupation numbers 
     1.0000   1.0000   1.0000   1.0000   1.0000   1.0000   1.0000   1.0000
     1.0000   1.0000   1.0000   1.0000   1.0000   1.0000   1.0000   1.0000
     1.0000   1.0000   1.0000   1.0000   1.0000   1.0000   1.0000   1.0000
     1.0000   1.0000   1.0000   1.0000   1.0000   1.0000   1.0000   1.0000
     1.0000   1.0000   1.0000   1.0000   1.0000   1.0000   1.0000   1.0000

          k =-0.5000 0.1793 0.4927 (  6546 PWs)   bands (ev):

   -14.2184 -14.2184 -14.2083 -14.2083 -14.2034 -14.2034 -14.2020 -14.2020
   -14.1873 -14.1873 -14.1859 -14.1859 -14.1774 -14.1774 -14.1620 -14.1620
   -14.1545 -14.1545 -14.1469 -14.1469  -6.0184  -6.0184  -5.2107  -5.2107
     0.0990   0.0990   1.4485   1.4485   3.5073   3.5073   4.2904   4.2904
     4.9639   4.9639   5.3235   5.3235   5.9875   5.9875   6.4984   6.4984

     occupation numbers 
     1.0000   1.0000   1.0000   1.0000   1.0000   1.0000   1.0000   1.0000
     1.0000   1.0000   1.0000   1.0000   1.0000   1.0000   1.0000   1.0000
     1.0000   1.0000   1.0000   1.0000   1.0000   1.0000   1.0000   1.0000
     1.0000   1.0000   1.0000   1.0000   1.0000   1.0000   1.0000   1.0000
     1.0000   1.0000   1.0000   1.0000   1.0000   1.0000   1.0000   1.0000

          k =-0.5000 0.1793 0.8211 (  6550 PWs)   bands (ev):

   -14.2173 -14.2173 -14.2089 -14.2089 -14.2044 -14.2044 -14.2023 -14.2023
   -14.1866 -14.1866 -14.1850 -14.1850 -14.1754 -14.1754 -14.1624 -14.1624
   -14.1546 -14.1546 -14.1470 -14.1470  -5.8357  -5.8357  -5.2448  -5.2448
    -0.2679  -0.2679   0.9185   0.9185   3.8150   3.8150   4.5647   4.5647
     5.1025   5.1025   5.5741   5.5741   6.2040   6.2040   6.7177   6.7177

     occupation numbers 
     1.0000   1.0000   1.0000   1.0000   1.0000   1.0000   1.0000   1.0000
     1.0000   1.0000   1.0000   1.0000   1.0000   1.0000   1.0000   1.0000
     1.0000   1.0000   1.0000   1.0000   1.0000   1.0000   1.0000   1.0000
     1.0000   1.0000   1.0000   1.0000   1.0000   1.0000   1.0000   1.0000
     1.0000   1.0000   1.0000   1.0000   1.0000   1.0000   1.0000   1.0000

          k =-0.5000 0.1793 1.1496 (  6546 PWs)   bands (ev):

   -14.2163 -14.2163 -14.2097 -14.2097 -14.2051 -14.2051 -14.2025 -14.2025
   -14.1870 -14.1870 -14.1836 -14.1836 -14.1739 -14.1739 -14.1627 -14.1627
   -14.1546 -14.1546 -14.1471 -14.1471  -5.6408  -5.6408  -5.3324  -5.3324
    -0.4851  -0.4851   0.5742   0.5742   4.2254   4.2254   4.8643   4.8643
     4.9356   4.9356   5.4137   5.4137   6.6125   6.6125   6.8813   6.8813

     occupation numbers 
     1.0000   1.0000   1.0000   1.0000   1.0000   1.0000   1.0000   1.0000
     1.0000   1.0000   1.0000   1.0000   1.0000   1.0000   1.0000   1.0000
     1.0000   1.0000   1.0000   1.0000   1.0000   1.0000   1.0000   1.0000
     1.0000   1.0000   1.0000   1.0000   1.0000   1.0000   1.0000   1.0000
     1.0000   1.0000   1.0000   1.0000   1.0000   1.0000   1.0000   1.0000

          k =-0.5000 0.5380 0.1642 (  6538 PWs)   bands (ev):

   -14.2146 -14.2146 -14.2065 -14.2065 -14.2039 -14.2039 -14.2028 -14.2028
   -14.1898 -14.1898 -14.1885 -14.1885 -14.1761 -14.1761 -14.1596 -14.1596
   -14.1565 -14.1565 -14.1468 -14.1468  -5.9762  -5.9762  -5.1609  -5.1609
     0.2187   0.2187   1.3876   1.3876   3.4581   3.4581   4.1041   4.1041
     4.9317   4.9317   5.0991   5.0991   5.7752   5.7752   6.6377   6.6377

     occupation numbers 
     1.0000   1.0000   1.0000   1.0000   1.0000   1.0000   1.0000   1.0000
     1.0000   1.0000   1.0000   1.0000   1.0000   1.0000   1.0000   1.0000
     1.0000   1.0000   1.0000   1.0000   1.0000   1.0000   1.0000   1.0000
     1.0000   1.0000   1.0000   1.0000   1.0000   1.0000   1.0000   1.0000
     1.0000   1.0000   1.0000   1.0000   1.0000   1.0000   1.0000   1.0000

          k =-0.5000 0.5380 0.4927 (  6576 PWs)   bands (ev):

   -14.2143 -14.2143 -14.2076 -14.2076 -14.2043 -14.2043 -14.2026 -14.2026
   -14.1899 -14.1899 -14.1873 -14.1873 -14.1749 -14.1749 -14.1596 -14.1596
   -14.1567 -14.1567 -14.1468 -14.1468  -5.8778  -5.8778  -5.1589  -5.1589
     0.0758   0.0758   1.1887   1.1887   3.4284   3.4284   3.9123   3.9123
     4.5664   4.5664   5.6071   5.6071   6.1793   6.1793   6.5961   6.5961

     occupation numbers 
     1.0000   1.0000   1.0000   1.0000   1.0000   1.0000   1.0000   1.0000
     1.0000   1.0000   1.0000   1.0000   1.0000   1.0000   1.0000   1.0000
     1.0000   1.0000   1.0000   1.0000   1.0000   1.0000   1.0000   1.0000
     1.0000   1.0000   1.0000   1.0000   1.0000   1.0000   1.0000   1.0000
     1.0000   1.0000   1.0000   1.0000   1.0000   1.0000   1.0000   1.0000

          k =-0.5000 0.5380 0.8211 (  6540 PWs)   bands (ev):

   -14.2138 -14.2138 -14.2095 -14.2095 -14.2048 -14.2048 -14.2025 -14.2025
   -14.1902 -14.1902 -14.1857 -14.1857 -14.1729 -14.1729 -14.1598 -14.1598
   -14.1569 -14.1569 -14.1468 -14.1468  -5.7070  -5.7070  -5.1832  -5.1832
    -0.1471  -0.1471   0.8986   0.8986   3.4271   3.4271   4.0818   4.0818
     4.4407   4.4407   5.6304   5.6304   6.0454   6.0454   6.5609   6.5609

     occupation numbers 
     1.0000   1.0000   1.0000   1.0000   1.0000   1.0000   1.0000   1.0000
     1.0000   1.0000   1.0000   1.0000   1.0000   1.0000   1.0000   1.0000
     1.0000   1.0000   1.0000   1.0000   1.0000   1.0000   1.0000   1.0000
     1.0000   1.0000   1.0000   1.0000   1.0000   1.0000   1.0000   1.0000
     1.0000   1.0000   1.0000   1.0000   1.0000   1.0000   1.0000   1.0000

          k =-0.5000 0.5380 1.1496 (  6548 PWs)   bands (ev):

   -14.2129 -14.2129 -14.2114 -14.2114 -14.2053 -14.2053 -14.2024 -14.2024
   -14.1904 -14.1904 -14.1845 -14.1845 -14.1714 -14.1714 -14.1600 -14.1600
   -14.1569 -14.1569 -14.1468 -14.1468  -5.5282  -5.5282  -5.2556  -5.2556
    -0.3065  -0.3065   0.6804   0.6804   3.6627   3.6627   4.0319   4.0319
     4.7011   4.7011   5.2033   5.2033   5.8821   5.8821   6.3716   6.3716

     occupation numbers 
     1.0000   1.0000   1.0000   1.0000   1.0000   1.0000   1.0000   1.0000
     1.0000   1.0000   1.0000   1.0000   1.0000   1.0000   1.0000   1.0000
     1.0000   1.0000   1.0000   1.0000   1.0000   1.0000   1.0000   1.0000
     1.0000   1.0000   1.0000   1.0000   1.0000   1.0000   1.0000   1.0000
     1.0000   1.0000   1.0000   1.0000   1.0000   1.0000   1.0000   1.0000

          k =-0.5000 0.8967 0.1642 (  6586 PWs)   bands (ev):

   -14.2115 -14.2115 -14.2073 -14.2073 -14.2040 -14.2040 -14.2002 -14.2002
   -14.1932 -14.1932 -14.1892 -14.1892 -14.1730 -14.1730 -14.1619 -14.1619
   -14.1545 -14.1545 -14.1465 -14.1465  -5.7176  -5.7176  -5.1267  -5.1267
    -0.0506  -0.0506   0.6947   0.6947   3.7488   3.7488   4.2790   4.2790
     5.0992   5.0992   5.2966   5.2966   5.8306   5.8306   6.5346   6.5346

     occupation numbers 
     1.0000   1.0000   1.0000   1.0000   1.0000   1.0000   1.0000   1.0000
     1.0000   1.0000   1.0000   1.0000   1.0000   1.0000   1.0000   1.0000
     1.0000   1.0000   1.0000   1.0000   1.0000   1.0000   1.0000   1.0000
     1.0000   1.0000   1.0000   1.0000   1.0000   1.0000   1.0000   1.0000
     1.0000   1.0000   1.0000   1.0000   1.0000   1.0000   1.0000   1.0000

          k =-0.5000 0.8967 0.4927 (  6568 PWs)   bands (ev):

   -14.2130 -14.2130 -14.2085 -14.2085 -14.2043 -14.2043 -14.1997 -14.1997
   -14.1928 -14.1928 -14.1885 -14.1885 -14.1718 -14.1718 -14.1615 -14.1615
   -14.1548 -14.1548 -14.1465 -14.1465  -5.6325  -5.6325  -5.1136  -5.1136
     0.0004   0.0004   0.7055   0.7055   3.3320   3.3320   4.0398   4.0398
     4.5066   4.5066   5.5487   5.5487   5.7389   5.7389   6.4315   6.4315

     occupation numbers 
     1.0000   1.0000   1.0000   1.0000   1.0000   1.0000   1.0000   1.0000
     1.0000   1.0000   1.0000   1.0000   1.0000   1.0000   1.0000   1.0000
     1.0000   1.0000   1.0000   1.0000   1.0000   1.0000   1.0000   1.0000
     1.0000   1.0000   1.0000   1.0000   1.0000   1.0000   1.0000   1.0000
     1.0000   1.0000   1.0000   1.0000   1.0000   1.0000   1.0000   1.0000

          k =-0.5000 0.8967 0.8211 (  6554 PWs)   bands (ev):

   -14.2149 -14.2149 -14.2104 -14.2104 -14.2046 -14.2046 -14.1992 -14.1992
   -14.1924 -14.1924 -14.1875 -14.1875 -14.1699 -14.1699 -14.1608 -14.1608
   -14.1552 -14.1552 -14.1465 -14.1465  -5.4891  -5.4891  -5.1134  -5.1134
     0.0283   0.0283   0.7303   0.7303   2.9719   2.9719   3.7132   3.7132
     4.3747   4.3747   5.0173   5.0173   5.5051   5.5051   6.2196   6.2196

     occupation numbers 
     1.0000   1.0000   1.0000   1.0000   1.0000   1.0000   1.0000   1.0000
     1.0000   1.0000   1.0000   1.0000   1.0000   1.0000   1.0000   1.0000
     1.0000   1.0000   1.0000   1.0000   1.0000   1.0000   1.0000   1.0000
     1.0000   1.0000   1.0000   1.0000   1.0000   1.0000   1.0000   1.0000
     1.0000   1.0000   1.0000   1.0000   1.0000   1.0000   1.0000   1.0000

          k =-0.5000 0.8967 1.1496 (  6552 PWs)   bands (ev):

   -14.2162 -14.2162 -14.2117 -14.2117 -14.2048 -14.2048 -14.1990 -14.1990
   -14.1922 -14.1922 -14.1867 -14.1867 -14.1684 -14.1684 -14.1603 -14.1603
   -14.1555 -14.1555 -14.1465 -14.1465  -5.3459  -5.3459  -5.1513  -5.1513
     0.0030   0.0030   0.7626   0.7626   2.9799   2.9799   3.3152   3.3152
     4.3602   4.3602   4.6881   4.6881   5.3909   5.3909   5.8599   5.8599

     occupation numbers 
     1.0000   1.0000   1.0000   1.0000   1.0000   1.0000   1.0000   1.0000
     1.0000   1.0000   1.0000   1.0000   1.0000   1.0000   1.0000   1.0000
     1.0000   1.0000   1.0000   1.0000   1.0000   1.0000   1.0000   1.0000
     1.0000   1.0000   1.0000   1.0000   1.0000   1.0000   1.0000   1.0000
     1.0000   1.0000   1.0000   1.0000   1.0000   1.0000   1.0000   1.0000

          k =-0.5000 1.2554 0.1642 (  6582 PWs)   bands (ev):

   -14.2119 -14.2119 -14.2104 -14.2104 -14.1997 -14.1997 -14.1987 -14.1987
   -14.1933 -14.1933 -14.1910 -14.1910 -14.1698 -14.1698 -14.1663 -14.1663
   -14.1501 -14.1501 -14.1472 -14.1472  -5.4229  -5.4229  -5.2014  -5.2014
    -0.1430  -0.1430   0.1195   0.1195   4.2197   4.2197   4.5613   4.5613
     5.0410   5.0410   5.2539   5.2539   5.9444   5.9444   6.2534   6.2534

     occupation numbers 
     1.0000   1.0000   1.0000   1.0000   1.0000   1.0000   1.0000   1.0000
     1.0000   1.0000   1.0000   1.0000   1.0000   1.0000   1.0000   1.0000
     1.0000   1.0000   1.0000   1.0000   1.0000   1.0000   1.0000   1.0000
     1.0000   1.0000   1.0000   1.0000   1.0000   1.0000   1.0000   1.0000
     1.0000   1.0000   1.0000   1.0000   1.0000   1.0000   1.0000   1.0000

          k =-0.5000 1.2554 0.4927 (  6560 PWs)   bands (ev):

   -14.2138 -14.2138 -14.2122 -14.2122 -14.2001 -14.2001 -14.1984 -14.1984
   -14.1924 -14.1924 -14.1904 -14.1904 -14.1688 -14.1688 -14.1655 -14.1655
   -14.1503 -14.1503 -14.1473 -14.1473  -5.3603  -5.3603  -5.1665  -5.1665
    -0.0074  -0.0074   0.2347   0.2347   3.6236   3.6236   4.1171   4.1171
     4.6307   4.6307   5.0697   5.0697   5.5828   5.5828   6.0098   6.0098

     occupation numbers 
     1.0000   1.0000   1.0000   1.0000   1.0000   1.0000   1.0000   1.0000
     1.0000   1.0000   1.0000   1.0000   1.0000   1.0000   1.0000   1.0000
     1.0000   1.0000   1.0000   1.0000   1.0000   1.0000   1.0000   1.0000
     1.0000   1.0000   1.0000   1.0000   1.0000   1.0000   1.0000   1.0000
     1.0000   1.0000   1.0000   1.0000   1.0000   1.0000   1.0000   1.0000

          k =-0.5000 1.2554 0.8211 (  6564 PWs)   bands (ev):

   -14.2164 -14.2164 -14.2146 -14.2146 -14.2006 -14.2006 -14.1984 -14.1984
   -14.1914 -14.1914 -14.1895 -14.1895 -14.1671 -14.1671 -14.1643 -14.1643
   -14.1505 -14.1505 -14.1473 -14.1473  -5.2617  -5.2617  -5.1222  -5.1222
     0.1993   0.1993   0.4347   0.4347   3.0392   3.0392   3.5361   3.5361
     4.0808   4.0808   4.5291   4.5291   5.4285   5.4285   5.7942   5.7942

     occupation numbers 
     1.0000   1.0000   1.0000   1.0000   1.0000   1.0000   1.0000   1.0000
     1.0000   1.0000   1.0000   1.0000   1.0000   1.0000   1.0000   1.0000
     1.0000   1.0000   1.0000   1.0000   1.0000   1.0000   1.0000   1.0000
     1.0000   1.0000   1.0000   1.0000   1.0000   1.0000   1.0000   1.0000
     1.0000   1.0000   1.0000   1.0000   1.0000   1.0000   1.0000   1.0000

          k =-0.5000 1.2554 1.1496 (  6562 PWs)   bands (ev):

   -14.2181 -14.2181 -14.2164 -14.2164 -14.2010 -14.2010 -14.1985 -14.1985
   -14.1908 -14.1908 -14.1889 -14.1889 -14.1659 -14.1659 -14.1634 -14.1634
   -14.1506 -14.1506 -14.1474 -14.1474  -5.1755  -5.1755  -5.1035  -5.1035
     0.3441   0.3441   0.6310   0.6310   2.8150   2.8150   3.0647   3.0647
     3.6920   3.6920   4.0151   4.0151   5.5246   5.5246   5.7041   5.7041

     occupation numbers 
     1.0000   1.0000   1.0000   1.0000   1.0000   1.0000   1.0000   1.0000
     1.0000   1.0000   1.0000   1.0000   1.0000   1.0000   1.0000   1.0000
     1.0000   1.0000   1.0000   1.0000   1.0000   1.0000   1.0000   1.0000
     1.0000   1.0000   1.0000   1.0000   1.0000   1.0000   1.0000   1.0000
     1.0000   1.0000   1.0000   1.0000   1.0000   1.0000   1.0000   1.0000

     highest occupied level (ev):     6.9323

!    total energy              =    -827.73930418 Ry
     estimated scf accuracy    <          1.4E-09 Ry

     The total energy is the sum of the following terms:
     one-electron contribution =    -274.28803482 Ry
     hartree contribution      =     185.03028340 Ry
     xc contribution           =    -308.84686667 Ry
     ewald contribution        =    -429.51750804 Ry
     DFT-D3 Dispersion         =      -0.11717806 Ry

     convergence has been achieved in  12 iterations

     Forces acting on atoms (cartesian axes, Ry/au):

     atom    1 type  2   force =    -0.00842329   -0.00000000   -0.00040990
     atom    2 type  1   force =     0.00931058    0.00000000    0.00155300
     atom    3 type  2   force =     0.00842329    0.00000000   -0.00040990
     atom    4 type  1   force =    -0.00931058    0.00000000    0.00155300
     atom    5 type  2   force =    -0.00842329    0.00000000    0.00040990
     atom    6 type  1   force =     0.00931058    0.00000000   -0.00155300
     atom    7 type  2   force =     0.00842329    0.00000000    0.00040990
     atom    8 type  1   force =    -0.00931058   -0.00000000   -0.00155300
     The non-local contrib.  to forces
     atom    1 type  2   force =    -0.09435765    0.00000000    0.11628396
     atom    2 type  1   force =     0.33589544    0.00000000    0.30251790
     atom    3 type  2   force =     0.09435765    0.00000000    0.11628396
     atom    4 type  1   force =    -0.33589544    0.00000000    0.30251790
     atom    5 type  2   force =    -0.09435765    0.00000000   -0.11628396
     atom    6 type  1   force =     0.33589544    0.00000000   -0.30251790
     atom    7 type  2   force =     0.09435765    0.00000000   -0.11628396
     atom    8 type  1   force =    -0.33589544    0.00000000   -0.30251790
     The ionic contribution  to forces
     atom    1 type  2   force =     0.90193616    0.00000000   -1.43139356
     atom    2 type  1   force =    -0.57177777    0.00000000   -0.89855713
     atom    3 type  2   force =    -0.90193616    0.00000000   -1.43139356
     atom    4 type  1   force =     0.57177777   -0.00000000   -0.89855713
     atom    5 type  2   force =     0.90193616    0.00000000    1.43139356
     atom    6 type  1   force =    -0.57177777   -0.00000000    0.89855713
     atom    7 type  2   force =    -0.90193616   -0.00000000    1.43139356
     atom    8 type  1   force =     0.57177777    0.00000000    0.89855713
     The local contribution  to forces
     atom    1 type  2   force =    -0.82648164    0.00000000    1.32551143
     atom    2 type  1   force =     0.25276798    0.00000000    0.60097782
     atom    3 type  2   force =     0.82648164    0.00000000    1.32551143
     atom    4 type  1   force =    -0.25276798    0.00000000    0.60097782
     atom    5 type  2   force =    -0.82648164   -0.00000000   -1.32551143
     atom    6 type  1   force =     0.25276798    0.00000000   -0.60097782
     atom    7 type  2   force =     0.82648164    0.00000000   -1.32551143
     atom    8 type  1   force =    -0.25276798    0.00000000   -0.60097782
     The core correction contribution to forces
     atom    1 type  2   force =     0.01087718   -0.00000000   -0.01283071
     atom    2 type  1   force =    -0.00744718    0.00000000   -0.00466317
     atom    3 type  2   force =    -0.01087718   -0.00000000   -0.01283071
     atom    4 type  1   force =     0.00744718    0.00000000   -0.00466317
     atom    5 type  2   force =     0.01087718   -0.00000000    0.01283071
     atom    6 type  1   force =    -0.00744718    0.00000000    0.00466317
     atom    7 type  2   force =    -0.01087718    0.00000000    0.01283071
     atom    8 type  1   force =     0.00744718    0.00000000    0.00466317
     The Hubbard contrib.    to forces
     atom    1 type  2   force =     0.00000000    0.00000000    0.00000000
     atom    2 type  1   force =     0.00000000    0.00000000    0.00000000
     atom    3 type  2   force =     0.00000000    0.00000000    0.00000000
     atom    4 type  1   force =     0.00000000    0.00000000    0.00000000
     atom    5 type  2   force =     0.00000000    0.00000000    0.00000000
     atom    6 type  1   force =     0.00000000    0.00000000    0.00000000
     atom    7 type  2   force =     0.00000000    0.00000000    0.00000000
     atom    8 type  1   force =     0.00000000    0.00000000    0.00000000
     The SCF correction term to forces
     atom    1 type  2   force =    -0.00000165   -0.00000000   -0.00000170
     atom    2 type  1   force =     0.00003116   -0.00000000    0.00001726
     atom    3 type  2   force =     0.00000165   -0.00000000   -0.00000170
     atom    4 type  1   force =    -0.00003116   -0.00000000    0.00001726
     atom    5 type  2   force =    -0.00000165    0.00000000    0.00000170
     atom    6 type  1   force =     0.00003116   -0.00000000   -0.00001726
     atom    7 type  2   force =     0.00000165   -0.00000000    0.00000170
     atom    8 type  1   force =    -0.00003116   -0.00000000   -0.00001726

     DFT-D3 dispersion contribution to forces:
     atom    1 type  2   force =    -0.00039568   -0.00000000    0.00202069
     atom    2 type  1   force =    -0.00015906    0.00000000    0.00126033
     atom    3 type  2   force =     0.00039568    0.00000000    0.00202069
     atom    4 type  1   force =     0.00015906   -0.00000000    0.00126033
     atom    5 type  2   force =    -0.00039568   -0.00000000   -0.00202069
     atom    6 type  1   force =    -0.00015906   -0.00000000   -0.00126033
     atom    7 type  2   force =     0.00039568    0.00000000   -0.00202069
     atom    8 type  1   force =     0.00015906   -0.00000000   -0.00126033

     Total force =     0.025315     Total SCF correction =     0.000071

     DFT-D3 dispersion Force =     0.004839

     Writing all to output data dir ./tmp/SnSe_pnma.save/ :
     XML data file, charge density, pseudopotentials, collected wavefunctions
 
     init_run     :      1.76s CPU      2.00s WALL (       1 calls)
     electrons    :     39.79s CPU     42.54s WALL (       1 calls)
     forces       :      0.75s CPU      0.85s WALL (       1 calls)
     force_dftd3  :      0.04s CPU      0.05s WALL (       1 calls)

     Called by init_run:
     wfcinit      :      1.04s CPU      1.10s WALL (       1 calls)
     wfcinit:atom :      0.01s CPU      0.01s WALL (      11 calls)
     wfcinit:wfcr :      0.92s CPU      0.96s WALL (      11 calls)
     potinit      :      0.17s CPU      0.20s WALL (       1 calls)
     hinit0       :      0.21s CPU      0.24s WALL (       1 calls)

     Called by electrons:
     c_bands      :     28.93s CPU     29.27s WALL (      12 calls)
     sum_band     :      7.01s CPU      8.22s WALL (      12 calls)
     v_of_rho     :      1.40s CPU      1.44s WALL (      13 calls)
     v_h          :      0.10s CPU      0.10s WALL (      13 calls)
     v_xc         :      1.40s CPU      1.43s WALL (      14 calls)
     newd         :      2.50s CPU      3.75s WALL (      13 calls)
     mix_rho      :      0.15s CPU      0.15s WALL (      12 calls)
     energy_dftd3 :      0.03s CPU      0.04s WALL (       1 calls)

     Called by c_bands:
     init_us_2    :      0.92s CPU      0.95s WALL (     286 calls)
     cegterg      :     25.71s CPU     25.95s WALL (     132 calls)

     Called by sum_band:
     sum_band:wei :      0.00s CPU      0.00s WALL (      12 calls)
     sum_band:loo :      4.39s CPU      4.42s WALL (      12 calls)
     sum_band:buf :      0.06s CPU      0.06s WALL (     132 calls)
     sum_band:ini :      0.41s CPU      0.42s WALL (     132 calls)
     sum_band:cal :      0.58s CPU      0.58s WALL (     132 calls)
     sum_band:bec :      0.01s CPU      0.01s WALL (     132 calls)
     addusdens    :      2.35s CPU      3.51s WALL (      12 calls)
                                        0.00s GPU  (      12 calls)
     addusd:skk   :      0.01s CPU      0.01s WALL (      24 calls)
                                        0.00s GPU  (      24 calls)

     Called by *egterg:
     cdiaghg      :      0.94s CPU      0.94s WALL (     605 calls)
     cegterg:over :      1.42s CPU      1.43s WALL (     473 calls)
     cegterg:upda :      0.81s CPU      0.82s WALL (     473 calls)
     cegterg:last :      1.97s CPU      1.97s WALL (     336 calls)
     h_psi        :     18.47s CPU     18.68s WALL (     616 calls)
     s_psi        :      2.03s CPU      2.05s WALL (     616 calls)
     g_psi        :      0.08s CPU      0.08s WALL (     473 calls)

     Called by h_psi:
     h_psi:calbec :      1.91s CPU      1.93s WALL (     616 calls)
     vloc_psi     :     14.31s CPU     14.48s WALL (     616 calls)
     add_vuspsi   :      2.08s CPU      2.09s WALL (     616 calls)

     General routines
     calbec       :      2.68s CPU      2.71s WALL (     792 calls)
     fft          :      0.69s CPU      0.71s WALL (     178 calls)
     ffts         :      0.02s CPU      0.02s WALL (      25 calls)
     fftw         :      9.52s CPU      9.62s WALL (   37702 calls)
     interpolate  :      0.07s CPU      0.08s WALL (      13 calls)
 
     Parallel routines
 
     PWSCF        :     42.56s CPU     46.29s WALL

 
   This run was terminated on:  15:16:35  20May2026            

=------------------------------------------------------------------------------=
   JOB DONE.
=------------------------------------------------------------------------------=
