
     Program PWSCF v.7.3.1 starts on 19May2026 at 21:59:13 

     This program is part of the open-source Quantum ESPRESSO suite
     for quantum simulation of materials; please cite
         "P. Giannozzi et al., J. Phys.:Condens. Matter 21 395502 (2009);
         "P. Giannozzi et al., J. Phys.:Condens. Matter 29 465901 (2017);
         "P. Giannozzi et al., J. Chem. Phys. 152 154105 (2020);
          URL http://www.quantum-espresso.org", 
     in publications or presentations arising from this work. More details at
     http://www.quantum-espresso.org/quote

     Parallel version (MPI & OpenMP), running on       6 processor cores
     Number of MPI processes:                 6
     Threads/MPI process:                     1

     MPI processes distributed on     1 nodes
     11629 MiB available memory on the printing compute node when the environment starts
 
     Waiting for input...
     Reading input from standard input

     Current dimensions of program PWSCF are:
     Max number of different atomic species (ntypx) = 10
     Max number of k-points (npk) =  40000
     Max angular momentum in pseudopotentials (lmaxx) =  4
 
     K-points division:     npool     =       3
     R & G space division:  proc/nbgrp/npool/nimage =       2
     Subspace diagonalization in iterative solution of the eigenvalue problem:
     a serial algorithm will be used

 
     Parallelization info
     --------------------
     sticks:   dense  smooth     PW     G-vecs:    dense   smooth      PW
     Min        3542    1411    408               144634    36619    5614
     Max        3543    1412    409               144635    36622    5615
     Sum        7085    2823    817               289269    73241   11229
 
     Using Slab Decomposition
 


     bravais-lattice index     =            8
     lattice parameter (alat)  =      22.5822  a.u.
     unit-cell volume          =    1532.4362 (a.u.)^3
     number of atoms/cell      =            8
     number of atomic types    =            2
     number of electrons       =        80.00
     number of Kohn-Sham states=           40
     kinetic-energy cutoff     =      50.0000  Ry
     charge density cutoff     =     500.0000  Ry
     scf convergence threshold =      1.0E-08
     mixing beta               =       0.7000
     number of iterations used =            8  plain     mixing
     Exchange-correlation= SLA  PW   PBE  PBE
                           (   1   4   3   4   0   0   0)

     celldm(1)=  22.582227  celldm(2)=   0.349071  celldm(3)=   0.381213
     celldm(4)=   0.000000  celldm(5)=   0.000000  celldm(6)=   0.000000

     crystal axes: (cart. coord. in units of alat)
               a(1) = (   1.000000   0.000000   0.000000 )  
               a(2) = (   0.000000   0.349071   0.000000 )  
               a(3) = (   0.000000   0.000000   0.381213 )  

     reciprocal axes: (cart. coord. in units 2 pi/alat)
               b(1) = (  1.000000  0.000000  0.000000 )  
               b(2) = (  0.000000  2.864746  0.000000 )  
               b(3) = (  0.000000  0.000000  2.623203 )  


     PseudoPot. # 1 for Sn read from file:
     ../pseudo/Sn_pbe_v1.uspp.F.UPF
     MD5 check sum: 4cf58ce39ec5d5d420df3dd08604eb00
     Pseudo is Ultrasoft + core correction, Zval = 14.0
     Generated by new atomic code, or converted to UPF format
     Using radial grid of  891 points,  6 beta functions with: 
                l(1) =   0
                l(2) =   0
                l(3) =   1
                l(4) =   1
                l(5) =   2
                l(6) =   2
     Q(r) pseudized with  6 coefficients,  rinner =    1.200   1.200   1.200
                                                       1.200   1.200

     PseudoPot. # 2 for Se read from file:
     ../pseudo/Se_pbe_v1.uspp.F.UPF
     MD5 check sum: 1b3568f3a8ae88f9a2a0ad0698632c85
     Pseudo is Ultrasoft + core correction, Zval =  6.0
     Generated by new atomic code, or converted to UPF format
     Using radial grid of  877 points,  6 beta functions with: 
                l(1) =   0
                l(2) =   0
                l(3) =   1
                l(4) =   1
                l(5) =   2
                l(6) =   2
     Q(r) pseudized with  8 coefficients,  rinner =    1.300   1.300   1.300
                                                       1.300   1.300

     atomic species   valence    mass     pseudopotential
     Sn               14.00   118.71000     Sn( 1.00)
     Se                6.00    78.97100     Se( 1.00)

      8 Sym. Ops., with inversion, found ( 6 have fractional translation)


                                    s                        frac. trans.

      isym =  1     identity                                     

 cryst.   s( 1) = (     1          0          0      )
                  (     0          1          0      )
                  (     0          0          1      )

 cart.    s( 1) = (  1.0000000  0.0000000  0.0000000 )
                  (  0.0000000  1.0000000  0.0000000 )
                  (  0.0000000  0.0000000  1.0000000 )


      isym =  2     180 deg rotation - cart. axis [0,0,1]        

 cryst.   s( 2) = (    -1          0          0      )    f =(  0.5000000 )
                  (     0         -1          0      )       ( -0.0000000 )
                  (     0          0          1      )       ( -0.5000000 )

 cart.    s( 2) = ( -1.0000000  0.0000000  0.0000000 )    f =(  0.5000000 )
                  (  0.0000000 -1.0000000  0.0000000 )       ( -0.0000000 )
                  (  0.0000000  0.0000000  1.0000000 )       ( -0.1906067 )


      isym =  3     180 deg rotation - cart. axis [0,1,0]        

 cryst.   s( 3) = (    -1          0          0      )    f =(  0.0000000 )
                  (     0          1          0      )       ( -0.5000000 )
                  (     0          0         -1      )       (  0.0000000 )

 cart.    s( 3) = ( -1.0000000  0.0000000  0.0000000 )    f =(  0.0000000 )
                  (  0.0000000  1.0000000  0.0000000 )       ( -0.1745356 )
                  (  0.0000000  0.0000000 -1.0000000 )       (  0.0000000 )


      isym =  4     180 deg rotation - cart. axis [1,0,0]        

 cryst.   s( 4) = (     1          0          0      )    f =(  0.5000000 )
                  (     0         -1          0      )       (  0.5000000 )
                  (     0          0         -1      )       ( -0.5000000 )

 cart.    s( 4) = (  1.0000000  0.0000000  0.0000000 )    f =(  0.5000000 )
                  (  0.0000000 -1.0000000  0.0000000 )       (  0.1745356 )
                  (  0.0000000  0.0000000 -1.0000000 )       ( -0.1906067 )


      isym =  5     inversion                                    

 cryst.   s( 5) = (    -1          0          0      )
                  (     0         -1          0      )
                  (     0          0         -1      )

 cart.    s( 5) = ( -1.0000000  0.0000000  0.0000000 )
                  (  0.0000000 -1.0000000  0.0000000 )
                  (  0.0000000  0.0000000 -1.0000000 )


      isym =  6     inv. 180 deg rotation - cart. axis [0,0,1]   

 cryst.   s( 6) = (     1          0          0      )    f =(  0.5000000 )
                  (     0          1          0      )       (  0.0000000 )
                  (     0          0         -1      )       ( -0.5000000 )

 cart.    s( 6) = (  1.0000000  0.0000000  0.0000000 )    f =(  0.5000000 )
                  (  0.0000000  1.0000000  0.0000000 )       (  0.0000000 )
                  (  0.0000000  0.0000000 -1.0000000 )       ( -0.1906067 )


      isym =  7     inv. 180 deg rotation - cart. axis [0,1,0]   

 cryst.   s( 7) = (     1          0          0      )    f =(  0.0000000 )
                  (     0         -1          0      )       (  0.5000000 )
                  (     0          0          1      )       (  0.0000000 )

 cart.    s( 7) = (  1.0000000  0.0000000  0.0000000 )    f =(  0.0000000 )
                  (  0.0000000 -1.0000000  0.0000000 )       (  0.1745356 )
                  (  0.0000000  0.0000000  1.0000000 )       (  0.0000000 )


      isym =  8     inv. 180 deg rotation - cart. axis [1,0,0]   

 cryst.   s( 8) = (    -1          0          0      )    f =(  0.5000000 )
                  (     0          1          0      )       ( -0.5000000 )
                  (     0          0          1      )       ( -0.5000000 )

 cart.    s( 8) = ( -1.0000000  0.0000000  0.0000000 )    f =(  0.5000000 )
                  (  0.0000000  1.0000000  0.0000000 )       ( -0.1745356 )
                  (  0.0000000  0.0000000  1.0000000 )       ( -0.1906067 )


     point group D_2h (mmm) 
     there are  8 classes
     the character table:

       E     C2    C2'   C2''  i     s_v   s_v'  s_v''
A_g    1.00  1.00  1.00  1.00  1.00  1.00  1.00  1.00
B_1g   1.00  1.00 -1.00 -1.00  1.00  1.00 -1.00 -1.00
B_2g   1.00 -1.00  1.00 -1.00  1.00 -1.00  1.00 -1.00
B_3g   1.00 -1.00 -1.00  1.00  1.00 -1.00 -1.00  1.00
A_u    1.00  1.00  1.00  1.00 -1.00 -1.00 -1.00 -1.00
B_1u   1.00  1.00 -1.00 -1.00 -1.00 -1.00  1.00  1.00
B_2u   1.00 -1.00  1.00 -1.00 -1.00  1.00 -1.00  1.00
B_3u   1.00 -1.00 -1.00  1.00 -1.00  1.00  1.00 -1.00

     the symmetry operations in each class and the name of the first element:

     E        1
          identity                                               
     C2       2
          180 deg rotation - cart. axis [0,0,1]                  
     C2'      4
          180 deg rotation - cart. axis [1,0,0]                  
     C2''     3
          180 deg rotation - cart. axis [0,1,0]                  
     i        5
          inversion                                              
     s_v      6
          inv. 180 deg rotation - cart. axis [0,0,1]             
     s_v'     8
          inv. 180 deg rotation - cart. axis [1,0,0]             
     s_v''    7
          inv. 180 deg rotation - cart. axis [0,1,0]             

   Cartesian axes

     site n.     atom                  positions (alat units)
         1        Se     tau(   1) = (   0.8549563   0.0872678   0.1842206  )
         2        Sn     tau(   2) = (   0.1165395   0.0872678   0.0428053  )
         3        Se     tau(   3) = (   0.6450437   0.2618033   0.3748273  )
         4        Sn     tau(   4) = (   0.3834605   0.2618033   0.2334120  )
         5        Se     tau(   5) = (   0.3549563   0.0872678   0.0063861  )
         6        Sn     tau(   6) = (   0.6165395   0.0872678   0.1478014  )
         7        Se     tau(   7) = (   0.1450437   0.2618033   0.1969928  )
         8        Sn     tau(   8) = (   0.8834605   0.2618033   0.3384081  )

     --------------------------------------------
     DFT-D3 Dispersion Correction (3-body terms):
     --------------------------------------------
       Reference C6 values for interpolation: 

         atom   Coordination number   C6
         Se         0.000           427.35
         Se         0.990           427.57
         Se         1.981           421.05
         Sn         0.000          1255.14
         Sn         0.951          1084.09
         Sn         1.950          1010.83
         Sn         2.926           818.29
         Sn         3.912           672.20

       Values used:

         atom   Coordination number  R0_AB[au]  C6      C8
         Se         3.259            3.332    421.05  29958.36
         Sn         3.836            3.957    677.12  84986.43
         Se         3.259            3.332    421.05  29958.36
         Sn         3.836            3.957    677.12  84986.43
         Se         3.259            3.332    421.05  29958.36
         Sn         3.836            3.957    677.12  84986.43
         Se         3.259            3.332    421.05  29958.36
         Sn         3.836            3.957    677.12  84986.43

         Molecular C6 ( Ry / a.u.^6 ) =     34635.72


   Crystallographic axes

     site n.     atom                  positions (cryst. coord.)
         1        Se     tau(   1) = (  0.8549563  0.2500000  0.4832481  )
         2        Sn     tau(   2) = (  0.1165395  0.2500000  0.1122870  )
         3        Se     tau(   3) = (  0.6450437  0.7500000  0.9832481  )
         4        Sn     tau(   4) = (  0.3834605  0.7500000  0.6122870  )
         5        Se     tau(   5) = (  0.3549563  0.2500000  0.0167519  )
         6        Sn     tau(   6) = (  0.6165395  0.2500000  0.3877130  )
         7        Se     tau(   7) = (  0.1450437  0.7500000  0.5167519  )
         8        Sn     tau(   8) = (  0.8834605  0.7500000  0.8877130  )

     number of k points=    32
                       cart. coord. in units 2pi/alat
        k(    1) = (   0.1666667   0.1790466   0.1639502), wk =   0.0833333
        k(    2) = (   0.1666667   0.1790466   0.4918505), wk =   0.0833333
        k(    3) = (   0.1666667   0.1790466   0.8197509), wk =   0.0833333
        k(    4) = (   0.1666667   0.1790466   1.1476512), wk =   0.0833333
        k(    5) = (   0.1666667   0.5371398   0.1639502), wk =   0.0833333
        k(    6) = (   0.1666667   0.5371398   0.4918505), wk =   0.0833333
        k(    7) = (   0.1666667   0.5371398   0.8197509), wk =   0.0833333
        k(    8) = (   0.1666667   0.5371398   1.1476512), wk =   0.0833333
        k(    9) = (   0.1666667   0.8952330   0.1639502), wk =   0.0833333
        k(   10) = (   0.1666667   0.8952330   0.4918505), wk =   0.0833333
        k(   11) = (   0.1666667   0.8952330   0.8197509), wk =   0.0833333
        k(   12) = (   0.1666667   0.8952330   1.1476512), wk =   0.0833333
        k(   13) = (   0.1666667   1.2533262   0.1639502), wk =   0.0833333
        k(   14) = (   0.1666667   1.2533262   0.4918505), wk =   0.0833333
        k(   15) = (   0.1666667   1.2533262   0.8197509), wk =   0.0833333
        k(   16) = (   0.1666667   1.2533262   1.1476512), wk =   0.0833333
        k(   17) = (  -0.5000000   0.1790466   0.1639502), wk =   0.0416667
        k(   18) = (  -0.5000000   0.1790466   0.4918505), wk =   0.0416667
        k(   19) = (  -0.5000000   0.1790466   0.8197509), wk =   0.0416667
        k(   20) = (  -0.5000000   0.1790466   1.1476512), wk =   0.0416667
        k(   21) = (  -0.5000000   0.5371398   0.1639502), wk =   0.0416667
        k(   22) = (  -0.5000000   0.5371398   0.4918505), wk =   0.0416667
        k(   23) = (  -0.5000000   0.5371398   0.8197509), wk =   0.0416667
        k(   24) = (  -0.5000000   0.5371398   1.1476512), wk =   0.0416667
        k(   25) = (  -0.5000000   0.8952330   0.1639502), wk =   0.0416667
        k(   26) = (  -0.5000000   0.8952330   0.4918505), wk =   0.0416667
        k(   27) = (  -0.5000000   0.8952330   0.8197509), wk =   0.0416667
        k(   28) = (  -0.5000000   0.8952330   1.1476512), wk =   0.0416667
        k(   29) = (  -0.5000000   1.2533262   0.1639502), wk =   0.0416667
        k(   30) = (  -0.5000000   1.2533262   0.4918505), wk =   0.0416667
        k(   31) = (  -0.5000000   1.2533262   0.8197509), wk =   0.0416667
        k(   32) = (  -0.5000000   1.2533262   1.1476512), wk =   0.0416667

                       cryst. coord.
        k(    1) = (   0.1666667   0.0625000   0.0625000), wk =   0.0833333
        k(    2) = (   0.1666667   0.0625000   0.1875000), wk =   0.0833333
        k(    3) = (   0.1666667   0.0625000   0.3125000), wk =   0.0833333
        k(    4) = (   0.1666667   0.0625000   0.4375000), wk =   0.0833333
        k(    5) = (   0.1666667   0.1875000   0.0625000), wk =   0.0833333
        k(    6) = (   0.1666667   0.1875000   0.1875000), wk =   0.0833333
        k(    7) = (   0.1666667   0.1875000   0.3125000), wk =   0.0833333
        k(    8) = (   0.1666667   0.1875000   0.4375000), wk =   0.0833333
        k(    9) = (   0.1666667   0.3125000   0.0625000), wk =   0.0833333
        k(   10) = (   0.1666667   0.3125000   0.1875000), wk =   0.0833333
        k(   11) = (   0.1666667   0.3125000   0.3125000), wk =   0.0833333
        k(   12) = (   0.1666667   0.3125000   0.4375000), wk =   0.0833333
        k(   13) = (   0.1666667   0.4375000   0.0625000), wk =   0.0833333
        k(   14) = (   0.1666667   0.4375000   0.1875000), wk =   0.0833333
        k(   15) = (   0.1666667   0.4375000   0.3125000), wk =   0.0833333
        k(   16) = (   0.1666667   0.4375000   0.4375000), wk =   0.0833333
        k(   17) = (  -0.5000000   0.0625000   0.0625000), wk =   0.0416667
        k(   18) = (  -0.5000000   0.0625000   0.1875000), wk =   0.0416667
        k(   19) = (  -0.5000000   0.0625000   0.3125000), wk =   0.0416667
        k(   20) = (  -0.5000000   0.0625000   0.4375000), wk =   0.0416667
        k(   21) = (  -0.5000000   0.1875000   0.0625000), wk =   0.0416667
        k(   22) = (  -0.5000000   0.1875000   0.1875000), wk =   0.0416667
        k(   23) = (  -0.5000000   0.1875000   0.3125000), wk =   0.0416667
        k(   24) = (  -0.5000000   0.1875000   0.4375000), wk =   0.0416667
        k(   25) = (  -0.5000000   0.3125000   0.0625000), wk =   0.0416667
        k(   26) = (  -0.5000000   0.3125000   0.1875000), wk =   0.0416667
        k(   27) = (  -0.5000000   0.3125000   0.3125000), wk =   0.0416667
        k(   28) = (  -0.5000000   0.3125000   0.4375000), wk =   0.0416667
        k(   29) = (  -0.5000000   0.4375000   0.0625000), wk =   0.0416667
        k(   30) = (  -0.5000000   0.4375000   0.1875000), wk =   0.0416667
        k(   31) = (  -0.5000000   0.4375000   0.3125000), wk =   0.0416667
        k(   32) = (  -0.5000000   0.4375000   0.4375000), wk =   0.0416667

     Dense  grid:   289269 G-vectors     FFT dimensions: ( 162,  60,  64)

     Smooth grid:    73241 G-vectors     FFT dimensions: ( 108,  36,  40)

     Dynamical RAM for                 wfc:       2.79 MB

     Dynamical RAM for     wfc (w. buffer):      33.50 MB

     Dynamical RAM for           str. fact:       4.41 MB

     Dynamical RAM for           local pot:       0.00 MB

     Dynamical RAM for          nlocal pot:      10.05 MB

     Dynamical RAM for                qrad:       3.59 MB

     Dynamical RAM for          rho,v,vnew:      13.74 MB

     Dynamical RAM for               rhoin:       4.58 MB

     Dynamical RAM for            rho*nmix:      35.31 MB

     Dynamical RAM for           G-vectors:       8.56 MB

     Dynamical RAM for          h,s,v(r/c):       0.29 MB

     Dynamical RAM for          <psi|beta>:       0.09 MB

     Dynamical RAM for                 psi:       5.58 MB

     Dynamical RAM for                hpsi:       5.58 MB

     Dynamical RAM for                spsi:       5.58 MB

     Dynamical RAM for      wfcinit/wfcrot:       7.32 MB

     Dynamical RAM for           addusdens:     141.24 MB

     Dynamical RAM for          addusforce:     145.30 MB

     Estimated static dynamical RAM per process >      96.92 MB

     Estimated max dynamical RAM per process >     277.53 MB

     Estimated total dynamical RAM >       1.49 GB

     Initial potential from superposition of free atoms

     starting charge      75.9995, renormalised to      80.0000
     Starting wfcs are   52 randomized atomic wfcs

     total cpu time spent up to now is        3.2 secs

     Self-consistent Calculation

     iteration #  1     ecut=    50.00 Ry     beta= 0.70
     Davidson diagonalization with overlap

---- Real-time Memory Report at c_bands before calling an iterative solver
           333 MiB given to the printing process from OS
             0 MiB allocation reported by mallinfo(arena+hblkhd)
         10797 MiB available memory on the node where the printing process lives
------------------
     ethr =  1.00E-02,  avg # of iterations =  2.0

     total cpu time spent up to now is        8.1 secs

     total energy              =    -826.61083522 Ry
     estimated scf accuracy    <       2.72119533 Ry

     iteration #  2     ecut=    50.00 Ry     beta= 0.70
     Davidson diagonalization with overlap

---- Real-time Memory Report at c_bands before calling an iterative solver
           429 MiB given to the printing process from OS
             0 MiB allocation reported by mallinfo(arena+hblkhd)
         10493 MiB available memory on the node where the printing process lives
------------------
     ethr =  3.40E-03,  avg # of iterations =  3.0

     total cpu time spent up to now is       13.4 secs

     total energy              =    -827.51424140 Ry
     estimated scf accuracy    <       1.06901917 Ry

     iteration #  3     ecut=    50.00 Ry     beta= 0.70
     Davidson diagonalization with overlap

---- Real-time Memory Report at c_bands before calling an iterative solver
           442 MiB given to the printing process from OS
             0 MiB allocation reported by mallinfo(arena+hblkhd)
         10393 MiB available memory on the node where the printing process lives
------------------
     ethr =  1.34E-03,  avg # of iterations =  2.7

     total cpu time spent up to now is       18.0 secs

     total energy              =    -827.73389744 Ry
     estimated scf accuracy    <       0.01284688 Ry

     iteration #  4     ecut=    50.00 Ry     beta= 0.70
     Davidson diagonalization with overlap

---- Real-time Memory Report at c_bands before calling an iterative solver
           464 MiB given to the printing process from OS
             0 MiB allocation reported by mallinfo(arena+hblkhd)
         10353 MiB available memory on the node where the printing process lives
------------------
     ethr =  1.61E-05,  avg # of iterations =  4.9

     total cpu time spent up to now is       24.1 secs

     total energy              =    -827.74157462 Ry
     estimated scf accuracy    <       0.00571329 Ry

     iteration #  5     ecut=    50.00 Ry     beta= 0.70
     Davidson diagonalization with overlap

---- Real-time Memory Report at c_bands before calling an iterative solver
           466 MiB given to the printing process from OS
             0 MiB allocation reported by mallinfo(arena+hblkhd)
         10351 MiB available memory on the node where the printing process lives
------------------
     ethr =  7.14E-06,  avg # of iterations =  2.6

     total cpu time spent up to now is       28.7 secs

     total energy              =    -827.74275535 Ry
     estimated scf accuracy    <       0.00055485 Ry

     iteration #  6     ecut=    50.00 Ry     beta= 0.70
     Davidson diagonalization with overlap

---- Real-time Memory Report at c_bands before calling an iterative solver
           469 MiB given to the printing process from OS
             0 MiB allocation reported by mallinfo(arena+hblkhd)
         10346 MiB available memory on the node where the printing process lives
------------------
     ethr =  6.94E-07,  avg # of iterations =  4.4

     total cpu time spent up to now is       34.7 secs

     total energy              =    -827.74277528 Ry
     estimated scf accuracy    <       0.00098372 Ry

     iteration #  7     ecut=    50.00 Ry     beta= 0.70
     Davidson diagonalization with overlap

---- Real-time Memory Report at c_bands before calling an iterative solver
           471 MiB given to the printing process from OS
             0 MiB allocation reported by mallinfo(arena+hblkhd)
         10338 MiB available memory on the node where the printing process lives
------------------
     ethr =  6.94E-07,  avg # of iterations =  3.0

     total cpu time spent up to now is       39.7 secs

     total energy              =    -827.74291535 Ry
     estimated scf accuracy    <       0.00002072 Ry

     iteration #  8     ecut=    50.00 Ry     beta= 0.70
     Davidson diagonalization with overlap

---- Real-time Memory Report at c_bands before calling an iterative solver
           475 MiB given to the printing process from OS
             0 MiB allocation reported by mallinfo(arena+hblkhd)
         10334 MiB available memory on the node where the printing process lives
------------------
     ethr =  2.59E-08,  avg # of iterations =  5.0

     total cpu time spent up to now is       45.8 secs

     total energy              =    -827.74293164 Ry
     estimated scf accuracy    <       0.00001812 Ry

     iteration #  9     ecut=    50.00 Ry     beta= 0.70
     Davidson diagonalization with overlap

---- Real-time Memory Report at c_bands before calling an iterative solver
           476 MiB given to the printing process from OS
             0 MiB allocation reported by mallinfo(arena+hblkhd)
         10334 MiB available memory on the node where the printing process lives
------------------
     ethr =  2.26E-08,  avg # of iterations =  2.0

     total cpu time spent up to now is       50.7 secs

     total energy              =    -827.74293364 Ry
     estimated scf accuracy    <       0.00000110 Ry

     iteration # 10     ecut=    50.00 Ry     beta= 0.70
     Davidson diagonalization with overlap

---- Real-time Memory Report at c_bands before calling an iterative solver
           478 MiB given to the printing process from OS
             0 MiB allocation reported by mallinfo(arena+hblkhd)
         10331 MiB available memory on the node where the printing process lives
------------------
     ethr =  1.38E-09,  avg # of iterations =  5.3

     total cpu time spent up to now is       58.0 secs

     total energy              =    -827.74293459 Ry
     estimated scf accuracy    <       0.00000019 Ry

     iteration # 11     ecut=    50.00 Ry     beta= 0.70
     Davidson diagonalization with overlap

---- Real-time Memory Report at c_bands before calling an iterative solver
           481 MiB given to the printing process from OS
             0 MiB allocation reported by mallinfo(arena+hblkhd)
         10328 MiB available memory on the node where the printing process lives
------------------
     ethr =  2.33E-10,  avg # of iterations =  3.0

     total cpu time spent up to now is       62.9 secs

     total energy              =    -827.74293458 Ry
     estimated scf accuracy    <       0.00000007 Ry

     iteration # 12     ecut=    50.00 Ry     beta= 0.70
     Davidson diagonalization with overlap

---- Real-time Memory Report at c_bands before calling an iterative solver
           481 MiB given to the printing process from OS
             0 MiB allocation reported by mallinfo(arena+hblkhd)
         10328 MiB available memory on the node where the printing process lives
------------------
     ethr =  8.89E-11,  avg # of iterations =  3.3

     total cpu time spent up to now is       68.0 secs

     End of self-consistent calculation

          k = 0.1667 0.1790 0.1640 (  9139 PWs)   bands (ev):

   -14.2031 -14.1952 -14.1913 -14.1876 -14.1841 -14.1835 -14.1828 -14.1821
   -14.1726 -14.1675 -14.1663 -14.1653 -14.1619 -14.1583 -14.1441 -14.1398
   -14.1372 -14.1338 -14.1293 -14.1254  -6.2103  -5.9692  -5.3706  -5.0519
     0.1577   0.9054   1.5957   2.0171   2.7739   3.9417   4.1072   4.3426
     4.5620   4.6096   5.1101   5.3796   5.5912   5.8778   6.4577   6.7418

     occupation numbers 
     1.0000   1.0000   1.0000   1.0000   1.0000   1.0000   1.0000   1.0000
     1.0000   1.0000   1.0000   1.0000   1.0000   1.0000   1.0000   1.0000
     1.0000   1.0000   1.0000   1.0000   1.0000   1.0000   1.0000   1.0000
     1.0000   1.0000   1.0000   1.0000   1.0000   1.0000   1.0000   1.0000
     1.0000   1.0000   1.0000   1.0000   1.0000   1.0000   1.0000   1.0000

          k = 0.1667 0.1790 0.4919 (  9127 PWs)   bands (ev):

   -14.2021 -14.1950 -14.1914 -14.1878 -14.1850 -14.1839 -14.1833 -14.1821
   -14.1710 -14.1674 -14.1668 -14.1641 -14.1607 -14.1569 -14.1443 -14.1404
   -14.1370 -14.1340 -14.1291 -14.1258  -6.1012  -5.8695  -5.3580  -5.0693
    -0.1673   0.6089   1.1256   1.6563   2.8545   4.0058   4.2145   4.6446
     4.8884   5.1273   5.1361   5.4837   5.9337   6.2387   6.4070   6.7057

     occupation numbers 
     1.0000   1.0000   1.0000   1.0000   1.0000   1.0000   1.0000   1.0000
     1.0000   1.0000   1.0000   1.0000   1.0000   1.0000   1.0000   1.0000
     1.0000   1.0000   1.0000   1.0000   1.0000   1.0000   1.0000   1.0000
     1.0000   1.0000   1.0000   1.0000   1.0000   1.0000   1.0000   1.0000
     1.0000   1.0000   1.0000   1.0000   1.0000   1.0000   1.0000   1.0000

          k = 0.1667 0.1790 0.8198 (  9134 PWs)   bands (ev):

   -14.2002 -14.1950 -14.1914 -14.1887 -14.1860 -14.1853 -14.1832 -14.1824
   -14.1691 -14.1675 -14.1668 -14.1632 -14.1580 -14.1551 -14.1443 -14.1416
   -14.1364 -14.1344 -14.1287 -14.1265  -5.9074  -5.6938  -5.3708  -5.1296
    -0.5027   0.0962   0.6978   1.1590   3.1498   4.2379   4.4466   4.9741
     5.0589   5.2776   5.4797   5.6803   6.0899   6.5375   6.5844   6.9507

     occupation numbers 
     1.0000   1.0000   1.0000   1.0000   1.0000   1.0000   1.0000   1.0000
     1.0000   1.0000   1.0000   1.0000   1.0000   1.0000   1.0000   1.0000
     1.0000   1.0000   1.0000   1.0000   1.0000   1.0000   1.0000   1.0000
     1.0000   1.0000   1.0000   1.0000   1.0000   1.0000   1.0000   1.0000
     1.0000   1.0000   1.0000   1.0000   1.0000   1.0000   1.0000   1.0000

          k = 0.1667 0.1790 1.1477 (  9143 PWs)   bands (ev):

   -14.1980 -14.1961 -14.1909 -14.1899 -14.1865 -14.1864 -14.1831 -14.1828
   -14.1687 -14.1683 -14.1647 -14.1633 -14.1554 -14.1543 -14.1439 -14.1429
   -14.1356 -14.1350 -14.1281 -14.1273  -5.6825  -5.5352  -5.4117  -5.2580
    -0.6029  -0.3812   0.5695   0.7456   3.6224   4.1390   4.7988   5.0162
     5.2091   5.3018   5.4819   5.8072   6.3759   6.7250   6.8644   6.9508

     occupation numbers 
     1.0000   1.0000   1.0000   1.0000   1.0000   1.0000   1.0000   1.0000
     1.0000   1.0000   1.0000   1.0000   1.0000   1.0000   1.0000   1.0000
     1.0000   1.0000   1.0000   1.0000   1.0000   1.0000   1.0000   1.0000
     1.0000   1.0000   1.0000   1.0000   1.0000   1.0000   1.0000   1.0000
     1.0000   1.0000   1.0000   1.0000   1.0000   1.0000   1.0000   1.0000

          k = 0.1667 0.5371 0.1640 (  9143 PWs)   bands (ev):

   -14.1978 -14.1925 -14.1879 -14.1873 -14.1849 -14.1847 -14.1838 -14.1832
   -14.1731 -14.1708 -14.1705 -14.1649 -14.1599 -14.1554 -14.1414 -14.1396
   -14.1370 -14.1369 -14.1288 -14.1260  -6.0561  -5.8346  -5.2970  -5.0270
    -0.0096   0.6297   1.2824   1.4187   2.8870   3.8431   4.1147   4.3696
     4.6956   4.9297   5.1127   5.4055   5.7164   6.2677   6.5075   6.6253

     occupation numbers 
     1.0000   1.0000   1.0000   1.0000   1.0000   1.0000   1.0000   1.0000
     1.0000   1.0000   1.0000   1.0000   1.0000   1.0000   1.0000   1.0000
     1.0000   1.0000   1.0000   1.0000   1.0000   1.0000   1.0000   1.0000
     1.0000   1.0000   1.0000   1.0000   1.0000   1.0000   1.0000   1.0000
     1.0000   1.0000   1.0000   1.0000   1.0000   1.0000   1.0000   1.0000

          k = 0.1667 0.5371 0.4919 (  9147 PWs)   bands (ev):

   -14.1973 -14.1924 -14.1889 -14.1883 -14.1854 -14.1851 -14.1836 -14.1832
   -14.1731 -14.1709 -14.1691 -14.1643 -14.1583 -14.1542 -14.1416 -14.1391
   -14.1378 -14.1369 -14.1287 -14.1263  -5.9527  -5.7409  -5.2830  -5.0374
    -0.1744   0.5364   0.9712   1.3189   3.0174   3.4463   3.6950   4.3718
     4.5800   5.1093   5.4701   5.5516   6.1890   6.2987   6.5320   6.7014

     occupation numbers 
     1.0000   1.0000   1.0000   1.0000   1.0000   1.0000   1.0000   1.0000
     1.0000   1.0000   1.0000   1.0000   1.0000   1.0000   1.0000   1.0000
     1.0000   1.0000   1.0000   1.0000   1.0000   1.0000   1.0000   1.0000
     1.0000   1.0000   1.0000   1.0000   1.0000   1.0000   1.0000   1.0000
     1.0000   1.0000   1.0000   1.0000   1.0000   1.0000   1.0000   1.0000

          k = 0.1667 0.5371 0.8198 (  9144 PWs)   bands (ev):

   -14.1966 -14.1922 -14.1913 -14.1893 -14.1860 -14.1857 -14.1837 -14.1833
   -14.1728 -14.1714 -14.1669 -14.1636 -14.1555 -14.1528 -14.1417 -14.1393
   -14.1381 -14.1369 -14.1284 -14.1268  -5.7710  -5.5777  -5.2901  -5.0827
    -0.3707   0.1973   0.7269   1.0805   3.2743   3.3970   3.6430   4.3265
     4.4109   5.1871   5.2832   5.8431   6.0447   6.2634   6.4474   6.6721

     occupation numbers 
     1.0000   1.0000   1.0000   1.0000   1.0000   1.0000   1.0000   1.0000
     1.0000   1.0000   1.0000   1.0000   1.0000   1.0000   1.0000   1.0000
     1.0000   1.0000   1.0000   1.0000   1.0000   1.0000   1.0000   1.0000
     1.0000   1.0000   1.0000   1.0000   1.0000   1.0000   1.0000   1.0000
     1.0000   1.0000   1.0000   1.0000   1.0000   1.0000   1.0000   1.0000

          k = 0.1667 0.5371 1.1477 (  9147 PWs)   bands (ev):

   -14.1954 -14.1936 -14.1915 -14.1904 -14.1863 -14.1863 -14.1838 -14.1836
   -14.1724 -14.1719 -14.1649 -14.1637 -14.1531 -14.1521 -14.1412 -14.1404
   -14.1375 -14.1370 -14.1279 -14.1273  -5.5642  -5.4324  -5.3232  -5.1891
    -0.4145  -0.2062   0.6821   0.8196   3.5854   3.6384   3.8748   4.1232
     4.3715   4.7254   5.3344   5.6214   5.9280   6.1559   6.3803   6.5522

     occupation numbers 
     1.0000   1.0000   1.0000   1.0000   1.0000   1.0000   1.0000   1.0000
     1.0000   1.0000   1.0000   1.0000   1.0000   1.0000   1.0000   1.0000
     1.0000   1.0000   1.0000   1.0000   1.0000   1.0000   1.0000   1.0000
     1.0000   1.0000   1.0000   1.0000   1.0000   1.0000   1.0000   1.0000
     1.0000   1.0000   1.0000   1.0000   1.0000   1.0000   1.0000   1.0000

          k = 0.1667 0.8952 0.1640 (  9151 PWs)   bands (ev):

   -14.1932 -14.1910 -14.1890 -14.1885 -14.1868 -14.1821 -14.1809 -14.1805
   -14.1751 -14.1741 -14.1728 -14.1663 -14.1563 -14.1523 -14.1427 -14.1426
   -14.1367 -14.1336 -14.1277 -14.1265  -5.7791  -5.6034  -5.2089  -5.0393
    -0.2459   0.2570   0.6002   0.8023   3.2192   3.9658   4.3121   4.5770
     4.9944   5.0571   5.2787   5.4580   5.8745   6.3007   6.3841   6.6889

     occupation numbers 
     1.0000   1.0000   1.0000   1.0000   1.0000   1.0000   1.0000   1.0000
     1.0000   1.0000   1.0000   1.0000   1.0000   1.0000   1.0000   1.0000
     1.0000   1.0000   1.0000   1.0000   1.0000   1.0000   1.0000   1.0000
     1.0000   1.0000   1.0000   1.0000   1.0000   1.0000   1.0000   1.0000
     1.0000   1.0000   1.0000   1.0000   1.0000   1.0000   1.0000   1.0000

          k = 0.1667 0.8952 0.4919 (  9159 PWs)   bands (ev):

   -14.1952 -14.1922 -14.1900 -14.1890 -14.1874 -14.1825 -14.1807 -14.1800
   -14.1751 -14.1742 -14.1708 -14.1659 -14.1549 -14.1514 -14.1422 -14.1420
   -14.1368 -14.1342 -14.1277 -14.1266  -5.6891  -5.5233  -5.1892  -5.0327
    -0.2104   0.3472   0.6146   0.7789   3.2195   3.3401   3.6383   4.1386
     4.5517   5.1438   5.3033   5.6704   5.7988   6.0063   6.2939   6.4909

     occupation numbers 
     1.0000   1.0000   1.0000   1.0000   1.0000   1.0000   1.0000   1.0000
     1.0000   1.0000   1.0000   1.0000   1.0000   1.0000   1.0000   1.0000
     1.0000   1.0000   1.0000   1.0000   1.0000   1.0000   1.0000   1.0000
     1.0000   1.0000   1.0000   1.0000   1.0000   1.0000   1.0000   1.0000
     1.0000   1.0000   1.0000   1.0000   1.0000   1.0000   1.0000   1.0000

          k = 0.1667 0.8952 0.8198 (  9156 PWs)   bands (ev):

   -14.1973 -14.1949 -14.1915 -14.1907 -14.1868 -14.1834 -14.1806 -14.1800
   -14.1745 -14.1741 -14.1686 -14.1655 -14.1524 -14.1502 -14.1414 -14.1412
   -14.1368 -14.1351 -14.1275 -14.1268  -5.5353  -5.3878  -5.1801  -5.0435
    -0.1618   0.3127   0.6577   0.8175   2.8243   3.1300   3.5770   3.7763
     4.0020   4.7029   4.9995   5.3018   5.5891   5.7390   5.9245   6.4080

     occupation numbers 
     1.0000   1.0000   1.0000   1.0000   1.0000   1.0000   1.0000   1.0000
     1.0000   1.0000   1.0000   1.0000   1.0000   1.0000   1.0000   1.0000
     1.0000   1.0000   1.0000   1.0000   1.0000   1.0000   1.0000   1.0000
     1.0000   1.0000   1.0000   1.0000   1.0000   1.0000   1.0000   1.0000
     1.0000   1.0000   1.0000   1.0000   1.0000   1.0000   1.0000   1.0000

          k = 0.1667 0.8952 1.1477 (  9150 PWs)   bands (ev):

   -14.1981 -14.1972 -14.1924 -14.1921 -14.1858 -14.1846 -14.1805 -14.1802
   -14.1740 -14.1739 -14.1668 -14.1658 -14.1503 -14.1495 -14.1406 -14.1406
   -14.1365 -14.1359 -14.1273 -14.1270  -5.3691  -5.2717  -5.1938  -5.1016
    -0.0800   0.0921   0.7805   0.8368   2.8327   3.1577   3.1959   3.5604
     3.9810   4.3963   4.6382   5.0433   5.2000   5.4288   5.9718   6.1296

     occupation numbers 
     1.0000   1.0000   1.0000   1.0000   1.0000   1.0000   1.0000   1.0000
     1.0000   1.0000   1.0000   1.0000   1.0000   1.0000   1.0000   1.0000
     1.0000   1.0000   1.0000   1.0000   1.0000   1.0000   1.0000   1.0000
     1.0000   1.0000   1.0000   1.0000   1.0000   1.0000   1.0000   1.0000
     1.0000   1.0000   1.0000   1.0000   1.0000   1.0000   1.0000   1.0000

          k = 0.1667 1.2533 0.1640 (  9174 PWs)   bands (ev):

   -14.1940 -14.1924 -14.1916 -14.1905 -14.1826 -14.1802 -14.1784 -14.1776
   -14.1763 -14.1746 -14.1728 -14.1694 -14.1525 -14.1495 -14.1479 -14.1462
   -14.1317 -14.1299 -14.1280 -14.1277  -5.4497  -5.3580  -5.2084  -5.1747
    -0.3178  -0.0321   0.1077   0.3220   3.7424   4.1994   4.5340   4.8004
     4.9729   5.0501   5.4095   5.6323   6.0073   6.1476   6.2332   6.3755

     occupation numbers 
     1.0000   1.0000   1.0000   1.0000   1.0000   1.0000   1.0000   1.0000
     1.0000   1.0000   1.0000   1.0000   1.0000   1.0000   1.0000   1.0000
     1.0000   1.0000   1.0000   1.0000   1.0000   1.0000   1.0000   1.0000
     1.0000   1.0000   1.0000   1.0000   1.0000   1.0000   1.0000   1.0000
     1.0000   1.0000   1.0000   1.0000   1.0000   1.0000   1.0000   1.0000

          k = 0.1667 1.2533 0.4919 (  9176 PWs)   bands (ev):

   -14.1960 -14.1944 -14.1933 -14.1923 -14.1826 -14.1804 -14.1781 -14.1776
   -14.1754 -14.1744 -14.1715 -14.1688 -14.1515 -14.1494 -14.1462 -14.1453
   -14.1319 -14.1304 -14.1279 -14.1277  -5.3834  -5.2994  -5.1735  -5.1396
    -0.1734   0.1058   0.2435   0.3942   3.4926   3.6976   3.9323   4.2255
     4.3108   4.8026   5.1641   5.3390   5.4566   5.7447   6.0734   6.3755

     occupation numbers 
     1.0000   1.0000   1.0000   1.0000   1.0000   1.0000   1.0000   1.0000
     1.0000   1.0000   1.0000   1.0000   1.0000   1.0000   1.0000   1.0000
     1.0000   1.0000   1.0000   1.0000   1.0000   1.0000   1.0000   1.0000
     1.0000   1.0000   1.0000   1.0000   1.0000   1.0000   1.0000   1.0000
     1.0000   1.0000   1.0000   1.0000   1.0000   1.0000   1.0000   1.0000

          k = 0.1667 1.2533 0.8198 (  9144 PWs)   bands (ev):

   -14.1987 -14.1974 -14.1955 -14.1948 -14.1825 -14.1808 -14.1779 -14.1776
   -14.1743 -14.1738 -14.1700 -14.1683 -14.1498 -14.1487 -14.1442 -14.1438
   -14.1320 -14.1311 -14.1277 -14.1276  -5.2773  -5.2076  -5.1302  -5.0949
     0.0694   0.3159   0.4635   0.5160   2.8438   3.2672   3.3592   3.7654
     3.8333   4.2623   4.4760   4.9437   5.0242   5.3135   5.9272   6.0842

     occupation numbers 
     1.0000   1.0000   1.0000   1.0000   1.0000   1.0000   1.0000   1.0000
     1.0000   1.0000   1.0000   1.0000   1.0000   1.0000   1.0000   1.0000
     1.0000   1.0000   1.0000   1.0000   1.0000   1.0000   1.0000   1.0000
     1.0000   1.0000   1.0000   1.0000   1.0000   1.0000   1.0000   1.0000
     1.0000   1.0000   1.0000   1.0000   1.0000   1.0000   1.0000   1.0000

          k = 0.1667 1.2533 1.1477 (  9140 PWs)   bands (ev):

   -14.2003 -14.1998 -14.1969 -14.1967 -14.1822 -14.1816 -14.1778 -14.1777
   -14.1736 -14.1734 -14.1689 -14.1683 -14.1484 -14.1480 -14.1428 -14.1427
   -14.1320 -14.1317 -14.1277 -14.1276  -5.1777  -5.1364  -5.1075  -5.0785
     0.3010   0.4020   0.6542   0.6776   2.5805   2.7784   3.1186   3.3258
     3.5879   3.7193   4.1582   4.4596   5.0150   5.2136   5.8436   5.8812

     occupation numbers 
     1.0000   1.0000   1.0000   1.0000   1.0000   1.0000   1.0000   1.0000
     1.0000   1.0000   1.0000   1.0000   1.0000   1.0000   1.0000   1.0000
     1.0000   1.0000   1.0000   1.0000   1.0000   1.0000   1.0000   1.0000
     1.0000   1.0000   1.0000   1.0000   1.0000   1.0000   1.0000   1.0000
     1.0000   1.0000   1.0000   1.0000   1.0000   1.0000   1.0000   1.0000

          k =-0.5000 0.1790 0.1640 (  9128 PWs)   bands (ev):

   -14.1999 -14.1999 -14.1890 -14.1890 -14.1836 -14.1836 -14.1826 -14.1826
   -14.1694 -14.1694 -14.1668 -14.1668 -14.1597 -14.1597 -14.1423 -14.1423
   -14.1351 -14.1351 -14.1273 -14.1273  -6.1107  -6.1107  -5.1904  -5.1904
     0.4207   0.4207   1.9125   1.9125   3.3439   3.3439   4.2552   4.2552
     4.6393   4.6393   5.1848   5.1848   5.5199   5.5199   6.6400   6.6400

     occupation numbers 
     1.0000   1.0000   1.0000   1.0000   1.0000   1.0000   1.0000   1.0000
     1.0000   1.0000   1.0000   1.0000   1.0000   1.0000   1.0000   1.0000
     1.0000   1.0000   1.0000   1.0000   1.0000   1.0000   1.0000   1.0000
     1.0000   1.0000   1.0000   1.0000   1.0000   1.0000   1.0000   1.0000
     1.0000   1.0000   1.0000   1.0000   1.0000   1.0000   1.0000   1.0000

          k =-0.5000 0.1790 0.4919 (  9150 PWs)   bands (ev):

   -14.1992 -14.1992 -14.1891 -14.1891 -14.1845 -14.1845 -14.1827 -14.1827
   -14.1680 -14.1680 -14.1671 -14.1671 -14.1583 -14.1583 -14.1426 -14.1426
   -14.1353 -14.1353 -14.1274 -14.1274  -6.0063  -6.0063  -5.1927  -5.1927
     0.1119   0.1119   1.4680   1.4680   3.5232   3.5232   4.3047   4.3047
     4.9790   4.9790   5.3421   5.3421   6.0057   6.0057   6.5186   6.5186

     occupation numbers 
     1.0000   1.0000   1.0000   1.0000   1.0000   1.0000   1.0000   1.0000
     1.0000   1.0000   1.0000   1.0000   1.0000   1.0000   1.0000   1.0000
     1.0000   1.0000   1.0000   1.0000   1.0000   1.0000   1.0000   1.0000
     1.0000   1.0000   1.0000   1.0000   1.0000   1.0000   1.0000   1.0000
     1.0000   1.0000   1.0000   1.0000   1.0000   1.0000   1.0000   1.0000

          k =-0.5000 0.1790 0.8198 (  9140 PWs)   bands (ev):

   -14.1981 -14.1981 -14.1897 -14.1897 -14.1855 -14.1855 -14.1831 -14.1831
   -14.1678 -14.1678 -14.1657 -14.1657 -14.1564 -14.1564 -14.1430 -14.1430
   -14.1354 -14.1354 -14.1276 -14.1276  -5.8230  -5.8230  -5.2279  -5.2279
    -0.2540  -0.2540   0.9375   0.9375   3.8314   3.8314   4.5792   4.5792
     5.1176   5.1176   5.5916   5.5916   6.2218   6.2218   6.7367   6.7367

     occupation numbers 
     1.0000   1.0000   1.0000   1.0000   1.0000   1.0000   1.0000   1.0000
     1.0000   1.0000   1.0000   1.0000   1.0000   1.0000   1.0000   1.0000
     1.0000   1.0000   1.0000   1.0000   1.0000   1.0000   1.0000   1.0000
     1.0000   1.0000   1.0000   1.0000   1.0000   1.0000   1.0000   1.0000
     1.0000   1.0000   1.0000   1.0000   1.0000   1.0000   1.0000   1.0000

          k =-0.5000 0.1790 1.1477 (  9148 PWs)   bands (ev):

   -14.1970 -14.1970 -14.1905 -14.1905 -14.1861 -14.1861 -14.1834 -14.1834
   -14.1682 -14.1682 -14.1642 -14.1642 -14.1549 -14.1549 -14.1433 -14.1433
   -14.1354 -14.1354 -14.1276 -14.1276  -5.6274  -5.6274  -5.3166  -5.3166
    -0.4703  -0.4703   0.5929   0.5929   4.2417   4.2417   4.8788   4.8788
     4.9506   4.9506   5.4318   5.4318   6.6297   6.6297   6.8987   6.8987

     occupation numbers 
     1.0000   1.0000   1.0000   1.0000   1.0000   1.0000   1.0000   1.0000
     1.0000   1.0000   1.0000   1.0000   1.0000   1.0000   1.0000   1.0000
     1.0000   1.0000   1.0000   1.0000   1.0000   1.0000   1.0000   1.0000
     1.0000   1.0000   1.0000   1.0000   1.0000   1.0000   1.0000   1.0000
     1.0000   1.0000   1.0000   1.0000   1.0000   1.0000   1.0000   1.0000

          k =-0.5000 0.5371 0.1640 (  9156 PWs)   bands (ev):

   -14.1954 -14.1954 -14.1874 -14.1874 -14.1848 -14.1848 -14.1837 -14.1837
   -14.1709 -14.1709 -14.1691 -14.1691 -14.1571 -14.1571 -14.1403 -14.1403
   -14.1372 -14.1372 -14.1273 -14.1273  -5.9641  -5.9641  -5.1430  -5.1430
     0.2317   0.2317   1.4075   1.4075   3.4725   3.4725   4.1186   4.1186
     4.9487   4.9487   5.1163   5.1163   5.7924   5.7924   6.6592   6.6592

     occupation numbers 
     1.0000   1.0000   1.0000   1.0000   1.0000   1.0000   1.0000   1.0000
     1.0000   1.0000   1.0000   1.0000   1.0000   1.0000   1.0000   1.0000
     1.0000   1.0000   1.0000   1.0000   1.0000   1.0000   1.0000   1.0000
     1.0000   1.0000   1.0000   1.0000   1.0000   1.0000   1.0000   1.0000
     1.0000   1.0000   1.0000   1.0000   1.0000   1.0000   1.0000   1.0000

          k =-0.5000 0.5371 0.4919 (  9142 PWs)   bands (ev):

   -14.1951 -14.1951 -14.1885 -14.1885 -14.1851 -14.1851 -14.1836 -14.1836
   -14.1710 -14.1710 -14.1679 -14.1679 -14.1558 -14.1558 -14.1403 -14.1403
   -14.1375 -14.1375 -14.1274 -14.1274  -5.8654  -5.8654  -5.1414  -5.1414
     0.0893   0.0893   1.2080   1.2080   3.4419   3.4419   3.9292   3.9292
     4.5847   4.5847   5.6223   5.6223   6.1956   6.1956   6.6164   6.6164

     occupation numbers 
     1.0000   1.0000   1.0000   1.0000   1.0000   1.0000   1.0000   1.0000
     1.0000   1.0000   1.0000   1.0000   1.0000   1.0000   1.0000   1.0000
     1.0000   1.0000   1.0000   1.0000   1.0000   1.0000   1.0000   1.0000
     1.0000   1.0000   1.0000   1.0000   1.0000   1.0000   1.0000   1.0000
     1.0000   1.0000   1.0000   1.0000   1.0000   1.0000   1.0000   1.0000

          k =-0.5000 0.5371 0.8198 (  9134 PWs)   bands (ev):

   -14.1946 -14.1946 -14.1904 -14.1904 -14.1857 -14.1857 -14.1834 -14.1834
   -14.1713 -14.1713 -14.1663 -14.1663 -14.1539 -14.1539 -14.1404 -14.1404
   -14.1377 -14.1377 -14.1274 -14.1274  -5.6942  -5.6942  -5.1666  -5.1666
    -0.1328  -0.1328   0.9174   0.9174   3.4404   3.4404   4.0989   4.0989
     4.4579   4.4579   5.6472   5.6472   6.0612   6.0612   6.5811   6.5811

     occupation numbers 
     1.0000   1.0000   1.0000   1.0000   1.0000   1.0000   1.0000   1.0000
     1.0000   1.0000   1.0000   1.0000   1.0000   1.0000   1.0000   1.0000
     1.0000   1.0000   1.0000   1.0000   1.0000   1.0000   1.0000   1.0000
     1.0000   1.0000   1.0000   1.0000   1.0000   1.0000   1.0000   1.0000
     1.0000   1.0000   1.0000   1.0000   1.0000   1.0000   1.0000   1.0000

          k =-0.5000 0.5371 1.1477 (  9158 PWs)   bands (ev):

   -14.1939 -14.1939 -14.1922 -14.1922 -14.1861 -14.1861 -14.1833 -14.1833
   -14.1715 -14.1715 -14.1651 -14.1651 -14.1524 -14.1524 -14.1406 -14.1406
   -14.1378 -14.1378 -14.1274 -14.1274  -5.5147  -5.5147  -5.2400  -5.2400
    -0.2916  -0.2916   0.6990   0.6990   3.6762   3.6762   4.0469   4.0469
     4.7176   4.7176   5.2209   5.2209   5.9000   5.9000   6.3925   6.3925

     occupation numbers 
     1.0000   1.0000   1.0000   1.0000   1.0000   1.0000   1.0000   1.0000
     1.0000   1.0000   1.0000   1.0000   1.0000   1.0000   1.0000   1.0000
     1.0000   1.0000   1.0000   1.0000   1.0000   1.0000   1.0000   1.0000
     1.0000   1.0000   1.0000   1.0000   1.0000   1.0000   1.0000   1.0000
     1.0000   1.0000   1.0000   1.0000   1.0000   1.0000   1.0000   1.0000

          k =-0.5000 0.8952 0.1640 (  9174 PWs)   bands (ev):

   -14.1925 -14.1925 -14.1882 -14.1882 -14.1848 -14.1848 -14.1811 -14.1811
   -14.1742 -14.1742 -14.1698 -14.1698 -14.1540 -14.1540 -14.1428 -14.1428
   -14.1351 -14.1351 -14.1271 -14.1271  -5.7050  -5.7050  -5.1100  -5.1100
    -0.0360  -0.0360   0.7142   0.7142   3.7631   3.7631   4.2936   4.2936
     5.1163   5.1163   5.3116   5.3116   5.8462   5.8462   6.5555   6.5555

     occupation numbers 
     1.0000   1.0000   1.0000   1.0000   1.0000   1.0000   1.0000   1.0000
     1.0000   1.0000   1.0000   1.0000   1.0000   1.0000   1.0000   1.0000
     1.0000   1.0000   1.0000   1.0000   1.0000   1.0000   1.0000   1.0000
     1.0000   1.0000   1.0000   1.0000   1.0000   1.0000   1.0000   1.0000
     1.0000   1.0000   1.0000   1.0000   1.0000   1.0000   1.0000   1.0000

          k =-0.5000 0.8952 0.4919 (  9152 PWs)   bands (ev):

   -14.1940 -14.1940 -14.1895 -14.1895 -14.1850 -14.1850 -14.1806 -14.1806
   -14.1737 -14.1737 -14.1691 -14.1691 -14.1527 -14.1527 -14.1423 -14.1423
   -14.1354 -14.1354 -14.1271 -14.1271  -5.6197  -5.6197  -5.0972  -5.0972
     0.0152   0.0152   0.7244   0.7244   3.3450   3.3450   4.0563   4.0563
     4.5238   4.5238   5.5640   5.5640   5.7552   5.7552   6.4521   6.4521

     occupation numbers 
     1.0000   1.0000   1.0000   1.0000   1.0000   1.0000   1.0000   1.0000
     1.0000   1.0000   1.0000   1.0000   1.0000   1.0000   1.0000   1.0000
     1.0000   1.0000   1.0000   1.0000   1.0000   1.0000   1.0000   1.0000
     1.0000   1.0000   1.0000   1.0000   1.0000   1.0000   1.0000   1.0000
     1.0000   1.0000   1.0000   1.0000   1.0000   1.0000   1.0000   1.0000

          k =-0.5000 0.8952 0.8198 (  9148 PWs)   bands (ev):

   -14.1960 -14.1960 -14.1914 -14.1914 -14.1854 -14.1854 -14.1800 -14.1800
   -14.1733 -14.1733 -14.1681 -14.1681 -14.1508 -14.1508 -14.1417 -14.1417
   -14.1358 -14.1358 -14.1271 -14.1271  -5.4759  -5.4759  -5.0975  -5.0975
     0.0434   0.0434   0.7485   0.7485   2.9855   2.9855   3.7297   3.7297
     4.3890   4.3890   5.0329   5.0329   5.5243   5.5243   6.2425   6.2425

     occupation numbers 
     1.0000   1.0000   1.0000   1.0000   1.0000   1.0000   1.0000   1.0000
     1.0000   1.0000   1.0000   1.0000   1.0000   1.0000   1.0000   1.0000
     1.0000   1.0000   1.0000   1.0000   1.0000   1.0000   1.0000   1.0000
     1.0000   1.0000   1.0000   1.0000   1.0000   1.0000   1.0000   1.0000
     1.0000   1.0000   1.0000   1.0000   1.0000   1.0000   1.0000   1.0000

          k =-0.5000 0.8952 1.1477 (  9140 PWs)   bands (ev):

   -14.1973 -14.1973 -14.1927 -14.1927 -14.1856 -14.1856 -14.1798 -14.1798
   -14.1731 -14.1731 -14.1673 -14.1673 -14.1493 -14.1493 -14.1411 -14.1411
   -14.1361 -14.1361 -14.1271 -14.1271  -5.3321  -5.3321  -5.1361  -5.1361
     0.0182   0.0182   0.7807   0.7807   2.9938   2.9938   3.3300   3.3300
     4.3751   4.3751   4.7019   4.7019   5.4129   5.4129   5.8837   5.8837

     occupation numbers 
     1.0000   1.0000   1.0000   1.0000   1.0000   1.0000   1.0000   1.0000
     1.0000   1.0000   1.0000   1.0000   1.0000   1.0000   1.0000   1.0000
     1.0000   1.0000   1.0000   1.0000   1.0000   1.0000   1.0000   1.0000
     1.0000   1.0000   1.0000   1.0000   1.0000   1.0000   1.0000   1.0000
     1.0000   1.0000   1.0000   1.0000   1.0000   1.0000   1.0000   1.0000

          k =-0.5000 1.2533 0.1640 (  9166 PWs)   bands (ev):

   -14.1929 -14.1929 -14.1915 -14.1915 -14.1805 -14.1805 -14.1796 -14.1796
   -14.1741 -14.1741 -14.1716 -14.1716 -14.1508 -14.1508 -14.1472 -14.1472
   -14.1308 -14.1308 -14.1279 -14.1279  -5.4093  -5.4093  -5.1863  -5.1863
    -0.1263  -0.1263   0.1379   0.1379   4.2338   4.2338   4.5756   4.5756
     5.0558   5.0558   5.2699   5.2699   5.9604   5.9604   6.2714   6.2714

     occupation numbers 
     1.0000   1.0000   1.0000   1.0000   1.0000   1.0000   1.0000   1.0000
     1.0000   1.0000   1.0000   1.0000   1.0000   1.0000   1.0000   1.0000
     1.0000   1.0000   1.0000   1.0000   1.0000   1.0000   1.0000   1.0000
     1.0000   1.0000   1.0000   1.0000   1.0000   1.0000   1.0000   1.0000
     1.0000   1.0000   1.0000   1.0000   1.0000   1.0000   1.0000   1.0000

          k =-0.5000 1.2533 0.4919 (  9176 PWs)   bands (ev):

   -14.1949 -14.1949 -14.1933 -14.1933 -14.1809 -14.1809 -14.1793 -14.1793
   -14.1732 -14.1732 -14.1711 -14.1711 -14.1497 -14.1497 -14.1464 -14.1464
   -14.1309 -14.1309 -14.1279 -14.1279  -5.3466  -5.3466  -5.1515  -5.1515
     0.0092   0.0092   0.2528   0.2528   3.6364   3.6364   4.1313   4.1313
     4.6452   4.6452   5.0844   5.0844   5.6041   5.6041   6.0314   6.0314

     occupation numbers 
     1.0000   1.0000   1.0000   1.0000   1.0000   1.0000   1.0000   1.0000
     1.0000   1.0000   1.0000   1.0000   1.0000   1.0000   1.0000   1.0000
     1.0000   1.0000   1.0000   1.0000   1.0000   1.0000   1.0000   1.0000
     1.0000   1.0000   1.0000   1.0000   1.0000   1.0000   1.0000   1.0000
     1.0000   1.0000   1.0000   1.0000   1.0000   1.0000   1.0000   1.0000

          k =-0.5000 1.2533 0.8198 (  9138 PWs)   bands (ev):

   -14.1974 -14.1974 -14.1957 -14.1957 -14.1814 -14.1814 -14.1792 -14.1792
   -14.1722 -14.1722 -14.1702 -14.1702 -14.1480 -14.1480 -14.1451 -14.1451
   -14.1311 -14.1311 -14.1280 -14.1280  -5.2478  -5.2478  -5.1073  -5.1073
     0.2156   0.2156   0.4521   0.4521   3.0527   3.0527   3.5504   3.5504
     4.0952   4.0952   4.5437   4.5437   5.4514   5.4514   5.8172   5.8172

     occupation numbers 
     1.0000   1.0000   1.0000   1.0000   1.0000   1.0000   1.0000   1.0000
     1.0000   1.0000   1.0000   1.0000   1.0000   1.0000   1.0000   1.0000
     1.0000   1.0000   1.0000   1.0000   1.0000   1.0000   1.0000   1.0000
     1.0000   1.0000   1.0000   1.0000   1.0000   1.0000   1.0000   1.0000
     1.0000   1.0000   1.0000   1.0000   1.0000   1.0000   1.0000   1.0000

          k =-0.5000 1.2533 1.1477 (  9142 PWs)   bands (ev):

   -14.1992 -14.1992 -14.1974 -14.1974 -14.1818 -14.1818 -14.1793 -14.1793
   -14.1715 -14.1715 -14.1695 -14.1695 -14.1467 -14.1467 -14.1442 -14.1442
   -14.1312 -14.1312 -14.1280 -14.1280  -5.1614  -5.1614  -5.0888  -5.0888
     0.3599   0.3599   0.6479   0.6479   2.8294   2.8294   3.0791   3.0791
     3.7076   3.7076   4.0297   4.0297   5.5472   5.5472   5.7270   5.7270

     occupation numbers 
     1.0000   1.0000   1.0000   1.0000   1.0000   1.0000   1.0000   1.0000
     1.0000   1.0000   1.0000   1.0000   1.0000   1.0000   1.0000   1.0000
     1.0000   1.0000   1.0000   1.0000   1.0000   1.0000   1.0000   1.0000
     1.0000   1.0000   1.0000   1.0000   1.0000   1.0000   1.0000   1.0000
     1.0000   1.0000   1.0000   1.0000   1.0000   1.0000   1.0000   1.0000

     highest occupied level (ev):     6.9508

!    total energy              =    -827.74293460 Ry
     estimated scf accuracy    <          1.4E-10 Ry

     The total energy is the sum of the following terms:
     one-electron contribution =    -273.91768171 Ry
     hartree contribution      =     184.90007875 Ry
     xc contribution           =    -308.85052145 Ry
     ewald contribution        =    -429.75753468 Ry
     DFT-D3 Dispersion         =      -0.11727551 Ry

     convergence has been achieved in  12 iterations

     Forces acting on atoms (cartesian axes, Ry/au):

     atom    1 type  2   force =    -0.00813473    0.00000000   -0.00044419
     atom    2 type  1   force =     0.00892785    0.00000000    0.00143921
     atom    3 type  2   force =     0.00813473    0.00000000   -0.00044419
     atom    4 type  1   force =    -0.00892785   -0.00000000    0.00143921
     atom    5 type  2   force =    -0.00813473   -0.00000000    0.00044419
     atom    6 type  1   force =     0.00892785    0.00000000   -0.00143921
     atom    7 type  2   force =     0.00813473    0.00000000    0.00044419
     atom    8 type  1   force =    -0.00892785   -0.00000000   -0.00143921
     The non-local contrib.  to forces
     atom    1 type  2   force =    -0.09479670    0.00000000    0.11601124
     atom    2 type  1   force =     0.33631746    0.00000000    0.30248144
     atom    3 type  2   force =     0.09479670    0.00000000    0.11601124
     atom    4 type  1   force =    -0.33631746    0.00000000    0.30248144
     atom    5 type  2   force =    -0.09479670    0.00000000   -0.11601124
     atom    6 type  1   force =     0.33631746    0.00000000   -0.30248144
     atom    7 type  2   force =     0.09479670    0.00000000   -0.11601124
     atom    8 type  1   force =    -0.33631746    0.00000000   -0.30248144
     The ionic contribution  to forces
     atom    1 type  2   force =     0.91298024   -0.00000000   -1.42614664
     atom    2 type  1   force =    -0.57295878    0.00000000   -0.89169593
     atom    3 type  2   force =    -0.91298024    0.00000000   -1.42614664
     atom    4 type  1   force =     0.57295878   -0.00000000   -0.89169593
     atom    5 type  2   force =     0.91298024    0.00000000    1.42614664
     atom    6 type  1   force =    -0.57295878    0.00000000    0.89169593
     atom    7 type  2   force =    -0.91298024   -0.00000000    1.42614664
     atom    8 type  1   force =     0.57295878   -0.00000000    0.89169593
     The local contribution  to forces
     atom    1 type  2   force =    -0.83681296    0.00000000    1.32049300
     atom    2 type  1   force =     0.25316161    0.00000000    0.59408859
     atom    3 type  2   force =     0.83681296    0.00000000    1.32049300
     atom    4 type  1   force =    -0.25316161   -0.00000000    0.59408859
     atom    5 type  2   force =    -0.83681296    0.00000000   -1.32049300
     atom    6 type  1   force =     0.25316161    0.00000000   -0.59408859
     atom    7 type  2   force =     0.83681296   -0.00000000   -1.32049300
     atom    8 type  1   force =    -0.25316161   -0.00000000   -0.59408859
     The core correction contribution to forces
     atom    1 type  2   force =     0.01090892   -0.00000000   -0.01279513
     atom    2 type  1   force =    -0.00738362    0.00000000   -0.00465972
     atom    3 type  2   force =    -0.01090892   -0.00000000   -0.01279513
     atom    4 type  1   force =     0.00738362   -0.00000000   -0.00465972
     atom    5 type  2   force =     0.01090892   -0.00000000    0.01279513
     atom    6 type  1   force =    -0.00738362    0.00000000    0.00465972
     atom    7 type  2   force =    -0.01090892    0.00000000    0.01279513
     atom    8 type  1   force =     0.00738362    0.00000000    0.00465972
     The Hubbard contrib.    to forces
     atom    1 type  2   force =     0.00000000    0.00000000    0.00000000
     atom    2 type  1   force =     0.00000000    0.00000000    0.00000000
     atom    3 type  2   force =     0.00000000    0.00000000    0.00000000
     atom    4 type  1   force =     0.00000000    0.00000000    0.00000000
     atom    5 type  2   force =     0.00000000    0.00000000    0.00000000
     atom    6 type  1   force =     0.00000000    0.00000000    0.00000000
     atom    7 type  2   force =     0.00000000    0.00000000    0.00000000
     atom    8 type  1   force =     0.00000000    0.00000000    0.00000000
     The SCF correction term to forces
     atom    1 type  2   force =     0.00000400   -0.00000000   -0.00000096
     atom    2 type  1   force =    -0.00001418    0.00000000   -0.00000226
     atom    3 type  2   force =    -0.00000400   -0.00000000   -0.00000096
     atom    4 type  1   force =     0.00001418    0.00000000   -0.00000226
     atom    5 type  2   force =     0.00000400    0.00000000    0.00000096
     atom    6 type  1   force =    -0.00001418    0.00000000    0.00000226
     atom    7 type  2   force =    -0.00000400    0.00000000    0.00000096
     atom    8 type  1   force =     0.00001418    0.00000000    0.00000226

     DFT-D3 dispersion contribution to forces:
     atom    1 type  2   force =    -0.00041824    0.00000000    0.00199430
     atom    2 type  1   force =    -0.00019464   -0.00000000    0.00122709
     atom    3 type  2   force =     0.00041824   -0.00000000    0.00199430
     atom    4 type  1   force =     0.00019464    0.00000000    0.00122709
     atom    5 type  2   force =    -0.00041824    0.00000000   -0.00199430
     atom    6 type  1   force =    -0.00019464   -0.00000000   -0.00122709
     atom    7 type  2   force =     0.00041824   -0.00000000   -0.00199430
     atom    8 type  1   force =     0.00019464    0.00000000   -0.00122709

     Total force =     0.024343     Total SCF correction =     0.000030

     DFT-D3 dispersion Force =     0.004773

     Writing all to output data dir ./tmp/SnSe_pnma.save/ :
     XML data file, charge density, pseudopotentials, collected wavefunctions
 
     init_run     :      2.61s CPU      2.91s WALL (       1 calls)
     electrons    :     61.07s CPU     64.90s WALL (       1 calls)
     forces       :      1.21s CPU      1.42s WALL (       1 calls)
     force_dftd3  :      0.05s CPU      0.05s WALL (       1 calls)

     Called by init_run:
     wfcinit      :      1.70s CPU      1.75s WALL (       1 calls)
     wfcinit:atom :      0.02s CPU      0.03s WALL (      11 calls)
     wfcinit:wfcr :      1.46s CPU      1.49s WALL (      11 calls)
     potinit      :      0.21s CPU      0.24s WALL (       1 calls)
     hinit0       :      0.26s CPU      0.27s WALL (       1 calls)

     Called by electrons:
     c_bands      :     44.65s CPU     44.94s WALL (      12 calls)
     sum_band     :     11.10s CPU     12.87s WALL (      12 calls)
     v_of_rho     :      1.94s CPU      2.00s WALL (      13 calls)
     v_h          :      0.15s CPU      0.15s WALL (      13 calls)
     v_xc         :      1.94s CPU      2.01s WALL (      14 calls)
     newd         :      3.43s CPU      5.28s WALL (      13 calls)
     mix_rho      :      0.22s CPU      0.22s WALL (      12 calls)
     energy_dftd3 :      0.04s CPU      0.05s WALL (       1 calls)

     Called by c_bands:
     init_us_2    :      1.37s CPU      1.38s WALL (     286 calls)
     cegterg      :     40.19s CPU     40.39s WALL (     132 calls)

     Called by sum_band:
     sum_band:wei :      0.00s CPU      0.00s WALL (      12 calls)
     sum_band:loo :      7.28s CPU      7.30s WALL (      12 calls)
     sum_band:buf :      0.09s CPU      0.09s WALL (     132 calls)
     sum_band:ini :      0.59s CPU      0.59s WALL (     132 calls)
     sum_band:cal :      0.81s CPU      0.82s WALL (     132 calls)
     sum_band:bec :      0.01s CPU      0.01s WALL (     132 calls)
     addusdens    :      3.36s CPU      5.05s WALL (      12 calls)
                                        0.00s GPU  (      12 calls)
     addusd:skk   :      0.02s CPU      0.02s WALL (      24 calls)
                                        0.00s GPU  (      24 calls)

     Called by *egterg:
     cdiaghg      :      0.95s CPU      0.95s WALL (     608 calls)
     cegterg:over :      1.93s CPU      1.94s WALL (     476 calls)
     cegterg:upda :      1.14s CPU      1.14s WALL (     476 calls)
     cegterg:last :      2.91s CPU      2.92s WALL (     331 calls)
     h_psi        :     30.55s CPU     30.75s WALL (     619 calls)
     s_psi        :      2.93s CPU      2.93s WALL (     619 calls)
     g_psi        :      0.12s CPU      0.12s WALL (     476 calls)

     Called by h_psi:
     h_psi:calbec :      2.68s CPU      2.69s WALL (     619 calls)
     vloc_psi     :     24.69s CPU     24.87s WALL (     619 calls)
     add_vuspsi   :      2.94s CPU      2.95s WALL (     619 calls)

     General routines
     calbec       :      3.83s CPU      3.84s WALL (     795 calls)
     fft          :      0.99s CPU      1.02s WALL (     178 calls)
     ffts         :      0.02s CPU      0.03s WALL (      25 calls)
     fftw         :     17.05s CPU     17.16s WALL (   37446 calls)
     interpolate  :      0.10s CPU      0.10s WALL (      13 calls)
 
     Parallel routines
 
     PWSCF        :   1m 5.15s CPU   1m10.22s WALL

 
   This run was terminated on:  22: 0:24  19May2026            

=------------------------------------------------------------------------------=
   JOB DONE.
=------------------------------------------------------------------------------=
