
     Program PWSCF v.7.3.1 starts on 19May2026 at 22:56:24 

     This program is part of the open-source Quantum ESPRESSO suite
     for quantum simulation of materials; please cite
         "P. Giannozzi et al., J. Phys.:Condens. Matter 21 395502 (2009);
         "P. Giannozzi et al., J. Phys.:Condens. Matter 29 465901 (2017);
         "P. Giannozzi et al., J. Chem. Phys. 152 154105 (2020);
          URL http://www.quantum-espresso.org", 
     in publications or presentations arising from this work. More details at
     http://www.quantum-espresso.org/quote

     Parallel version (MPI & OpenMP), running on       6 processor cores
     Number of MPI processes:                 6
     Threads/MPI process:                     1

     MPI processes distributed on     1 nodes
     11266 MiB available memory on the printing compute node when the environment starts
 
     Waiting for input...
     Reading input from standard input

     Current dimensions of program PWSCF are:
     Max number of different atomic species (ntypx) = 10
     Max number of k-points (npk) =  40000
     Max angular momentum in pseudopotentials (lmaxx) =  4
 
     K-points division:     npool     =       3
     R & G space division:  proc/nbgrp/npool/nimage =       2
     Subspace diagonalization in iterative solution of the eigenvalue problem:
     a serial algorithm will be used

 
     Parallelization info
     --------------------
     sticks:   dense  smooth     PW     G-vecs:    dense   smooth      PW
     Min        3951    1580    451               176722    44689    6742
     Max        3952    1581    452               176723    44690    6743
     Sum        7903    3161    903               353445    89379   13485
 
     Using Slab Decomposition
 


     bravais-lattice index     =            8
     lattice parameter (alat)  =      20.9760  a.u.
     unit-cell volume          =    1423.4344 (a.u.)^3
     number of atoms/cell      =            8
     number of atomic types    =            2
     number of electrons       =        80.00
     number of Kohn-Sham states=           40
     kinetic-energy cutoff     =      60.0000  Ry
     charge density cutoff     =     600.0000  Ry
     scf convergence threshold =      1.0E-08
     mixing beta               =       0.7000
     number of iterations used =            8  plain     mixing
     Exchange-correlation= SLA  PW   PBE  PBE
                           (   1   4   3   4   0   0   0)

     celldm(1)=  20.975960  celldm(2)=   0.375802  celldm(3)=   0.410405
     celldm(4)=   0.000000  celldm(5)=   0.000000  celldm(6)=   0.000000

     crystal axes: (cart. coord. in units of alat)
               a(1) = (   1.000000   0.000000   0.000000 )  
               a(2) = (   0.000000   0.375802   0.000000 )  
               a(3) = (   0.000000   0.000000   0.410405 )  

     reciprocal axes: (cart. coord. in units 2 pi/alat)
               b(1) = (  1.000000  0.000000  0.000000 )  
               b(2) = (  0.000000  2.660977  0.000000 )  
               b(3) = (  0.000000  0.000000  2.436615 )  


     PseudoPot. # 1 for Sn read from file:
     ../pseudo/Sn_pbe_v1.uspp.F.UPF
     MD5 check sum: 4cf58ce39ec5d5d420df3dd08604eb00
     Pseudo is Ultrasoft + core correction, Zval = 14.0
     Generated by new atomic code, or converted to UPF format
     Using radial grid of  891 points,  6 beta functions with: 
                l(1) =   0
                l(2) =   0
                l(3) =   1
                l(4) =   1
                l(5) =   2
                l(6) =   2
     Q(r) pseudized with  6 coefficients,  rinner =    1.200   1.200   1.200
                                                       1.200   1.200

     PseudoPot. # 2 for Se read from file:
     ../pseudo/Se_pbe_v1.uspp.F.UPF
     MD5 check sum: 1b3568f3a8ae88f9a2a0ad0698632c85
     Pseudo is Ultrasoft + core correction, Zval =  6.0
     Generated by new atomic code, or converted to UPF format
     Using radial grid of  877 points,  6 beta functions with: 
                l(1) =   0
                l(2) =   0
                l(3) =   1
                l(4) =   1
                l(5) =   2
                l(6) =   2
     Q(r) pseudized with  8 coefficients,  rinner =    1.300   1.300   1.300
                                                       1.300   1.300

     atomic species   valence    mass     pseudopotential
     Sn               14.00   118.71000     Sn( 1.00)
     Se                6.00    78.97100     Se( 1.00)

      8 Sym. Ops., with inversion, found ( 6 have fractional translation)


                                    s                        frac. trans.

      isym =  1     identity                                     

 cryst.   s( 1) = (     1          0          0      )
                  (     0          1          0      )
                  (     0          0          1      )

 cart.    s( 1) = (  1.0000000  0.0000000  0.0000000 )
                  (  0.0000000  1.0000000  0.0000000 )
                  (  0.0000000  0.0000000  1.0000000 )


      isym =  2     180 deg rotation - cart. axis [0,0,1]        

 cryst.   s( 2) = (    -1          0          0      )    f =(  0.5000000 )
                  (     0         -1          0      )       (  0.0000000 )
                  (     0          0          1      )       ( -0.5000000 )

 cart.    s( 2) = ( -1.0000000  0.0000000  0.0000000 )    f =(  0.5000000 )
                  (  0.0000000 -1.0000000  0.0000000 )       (  0.0000000 )
                  (  0.0000000  0.0000000  1.0000000 )       ( -0.2052027 )


      isym =  3     180 deg rotation - cart. axis [0,1,0]        

 cryst.   s( 3) = (    -1          0          0      )    f =(  0.0000000 )
                  (     0          1          0      )       (  0.5000000 )
                  (     0          0         -1      )       (  0.0000000 )

 cart.    s( 3) = ( -1.0000000  0.0000000  0.0000000 )    f =(  0.0000000 )
                  (  0.0000000  1.0000000  0.0000000 )       (  0.1879009 )
                  (  0.0000000  0.0000000 -1.0000000 )       (  0.0000000 )


      isym =  4     180 deg rotation - cart. axis [1,0,0]        

 cryst.   s( 4) = (     1          0          0      )    f =(  0.5000000 )
                  (     0         -1          0      )       (  0.5000000 )
                  (     0          0         -1      )       (  0.5000000 )

 cart.    s( 4) = (  1.0000000  0.0000000  0.0000000 )    f =(  0.5000000 )
                  (  0.0000000 -1.0000000  0.0000000 )       (  0.1879009 )
                  (  0.0000000  0.0000000 -1.0000000 )       (  0.2052027 )


      isym =  5     inversion                                    

 cryst.   s( 5) = (    -1          0          0      )
                  (     0         -1          0      )
                  (     0          0         -1      )

 cart.    s( 5) = ( -1.0000000  0.0000000  0.0000000 )
                  (  0.0000000 -1.0000000  0.0000000 )
                  (  0.0000000  0.0000000 -1.0000000 )


      isym =  6     inv. 180 deg rotation - cart. axis [0,0,1]   

 cryst.   s( 6) = (     1          0          0      )    f =(  0.5000000 )
                  (     0          1          0      )       (  0.0000000 )
                  (     0          0         -1      )       (  0.5000000 )

 cart.    s( 6) = (  1.0000000  0.0000000  0.0000000 )    f =(  0.5000000 )
                  (  0.0000000  1.0000000  0.0000000 )       (  0.0000000 )
                  (  0.0000000  0.0000000 -1.0000000 )       (  0.2052027 )


      isym =  7     inv. 180 deg rotation - cart. axis [0,1,0]   

 cryst.   s( 7) = (     1          0          0      )    f =(  0.0000000 )
                  (     0         -1          0      )       (  0.5000000 )
                  (     0          0          1      )       (  0.0000000 )

 cart.    s( 7) = (  1.0000000  0.0000000  0.0000000 )    f =(  0.0000000 )
                  (  0.0000000 -1.0000000  0.0000000 )       (  0.1879009 )
                  (  0.0000000  0.0000000  1.0000000 )       (  0.0000000 )


      isym =  8     inv. 180 deg rotation - cart. axis [1,0,0]   

 cryst.   s( 8) = (    -1          0          0      )    f =(  0.5000000 )
                  (     0          1          0      )       (  0.5000000 )
                  (     0          0          1      )       ( -0.5000000 )

 cart.    s( 8) = ( -1.0000000  0.0000000  0.0000000 )    f =(  0.5000000 )
                  (  0.0000000  1.0000000  0.0000000 )       (  0.1879009 )
                  (  0.0000000  0.0000000  1.0000000 )       ( -0.2052027 )


     point group D_2h (mmm) 
     there are  8 classes
     the character table:

       E     C2    C2'   C2''  i     s_v   s_v'  s_v''
A_g    1.00  1.00  1.00  1.00  1.00  1.00  1.00  1.00
B_1g   1.00  1.00 -1.00 -1.00  1.00  1.00 -1.00 -1.00
B_2g   1.00 -1.00  1.00 -1.00  1.00 -1.00  1.00 -1.00
B_3g   1.00 -1.00 -1.00  1.00  1.00 -1.00 -1.00  1.00
A_u    1.00  1.00  1.00  1.00 -1.00 -1.00 -1.00 -1.00
B_1u   1.00  1.00 -1.00 -1.00 -1.00 -1.00  1.00  1.00
B_2u   1.00 -1.00  1.00 -1.00 -1.00  1.00 -1.00  1.00
B_3u   1.00 -1.00 -1.00  1.00 -1.00  1.00  1.00 -1.00

     the symmetry operations in each class and the name of the first element:

     E        1
          identity                                               
     C2       2
          180 deg rotation - cart. axis [0,0,1]                  
     C2'      4
          180 deg rotation - cart. axis [1,0,0]                  
     C2''     3
          180 deg rotation - cart. axis [0,1,0]                  
     i        5
          inversion                                              
     s_v      6
          inv. 180 deg rotation - cart. axis [0,0,1]             
     s_v'     8
          inv. 180 deg rotation - cart. axis [1,0,0]             
     s_v''    7
          inv. 180 deg rotation - cart. axis [0,1,0]             

   Cartesian axes

     site n.     atom                  positions (alat units)
         1        Se     tau(   1) = (   0.8549563   0.0939505   0.1983276  )
         2        Sn     tau(   2) = (   0.1165395   0.0939505   0.0460832  )
         3        Se     tau(   3) = (   0.6450437   0.2818514   0.4035303  )
         4        Sn     tau(   4) = (   0.3834605   0.2818514   0.2512859  )
         5        Se     tau(   5) = (   0.3549563   0.0939505   0.0068751  )
         6        Sn     tau(   6) = (   0.6165395   0.0939505   0.1591195  )
         7        Se     tau(   7) = (   0.1450437   0.2818514   0.2120778  )
         8        Sn     tau(   8) = (   0.8834605   0.2818514   0.3643222  )

     --------------------------------------------
     DFT-D3 Dispersion Correction (3-body terms):
     --------------------------------------------
       Reference C6 values for interpolation: 

         atom   Coordination number   C6
         Se         0.000           427.35
         Se         0.990           427.57
         Se         1.981           421.05
         Sn         0.000          1255.14
         Sn         0.951          1084.09
         Sn         1.950          1010.83
         Sn         2.926           818.29
         Sn         3.912           672.20

       Values used:

         atom   Coordination number  R0_AB[au]  C6      C8
         Se         3.581            3.332    421.05  29958.36
         Sn         4.429            3.957    672.25  84374.96
         Se         3.581            3.332    421.05  29958.36
         Sn         4.429            3.957    672.25  84374.96
         Se         3.581            3.332    421.05  29958.36
         Sn         4.429            3.957    672.25  84374.96
         Se         3.581            3.332    421.05  29958.36
         Sn         4.429            3.957    672.25  84374.96

         Molecular C6 ( Ry / a.u.^6 ) =     34497.56


   Crystallographic axes

     site n.     atom                  positions (cryst. coord.)
         1        Se     tau(   1) = (  0.8549563  0.2500000  0.4832481  )
         2        Sn     tau(   2) = (  0.1165395  0.2500000  0.1122870  )
         3        Se     tau(   3) = (  0.6450437  0.7500000  0.9832481  )
         4        Sn     tau(   4) = (  0.3834605  0.7500000  0.6122870  )
         5        Se     tau(   5) = (  0.3549563  0.2500000  0.0167519  )
         6        Sn     tau(   6) = (  0.6165395  0.2500000  0.3877130  )
         7        Se     tau(   7) = (  0.1450437  0.7500000  0.5167519  )
         8        Sn     tau(   8) = (  0.8834605  0.7500000  0.8877130  )

     number of k points=    32
                       cart. coord. in units 2pi/alat
        k(    1) = (   0.1666667   0.1663111   0.1522884), wk =   0.0833333
        k(    2) = (   0.1666667   0.1663111   0.4568653), wk =   0.0833333
        k(    3) = (   0.1666667   0.1663111   0.7614422), wk =   0.0833333
        k(    4) = (   0.1666667   0.1663111   1.0660191), wk =   0.0833333
        k(    5) = (   0.1666667   0.4989332   0.1522884), wk =   0.0833333
        k(    6) = (   0.1666667   0.4989332   0.4568653), wk =   0.0833333
        k(    7) = (   0.1666667   0.4989332   0.7614422), wk =   0.0833333
        k(    8) = (   0.1666667   0.4989332   1.0660191), wk =   0.0833333
        k(    9) = (   0.1666667   0.8315554   0.1522884), wk =   0.0833333
        k(   10) = (   0.1666667   0.8315554   0.4568653), wk =   0.0833333
        k(   11) = (   0.1666667   0.8315554   0.7614422), wk =   0.0833333
        k(   12) = (   0.1666667   0.8315554   1.0660191), wk =   0.0833333
        k(   13) = (   0.1666667   1.1641775   0.1522884), wk =   0.0833333
        k(   14) = (   0.1666667   1.1641775   0.4568653), wk =   0.0833333
        k(   15) = (   0.1666667   1.1641775   0.7614422), wk =   0.0833333
        k(   16) = (   0.1666667   1.1641775   1.0660191), wk =   0.0833333
        k(   17) = (  -0.5000000   0.1663111   0.1522884), wk =   0.0416667
        k(   18) = (  -0.5000000   0.1663111   0.4568653), wk =   0.0416667
        k(   19) = (  -0.5000000   0.1663111   0.7614422), wk =   0.0416667
        k(   20) = (  -0.5000000   0.1663111   1.0660191), wk =   0.0416667
        k(   21) = (  -0.5000000   0.4989332   0.1522884), wk =   0.0416667
        k(   22) = (  -0.5000000   0.4989332   0.4568653), wk =   0.0416667
        k(   23) = (  -0.5000000   0.4989332   0.7614422), wk =   0.0416667
        k(   24) = (  -0.5000000   0.4989332   1.0660191), wk =   0.0416667
        k(   25) = (  -0.5000000   0.8315554   0.1522884), wk =   0.0416667
        k(   26) = (  -0.5000000   0.8315554   0.4568653), wk =   0.0416667
        k(   27) = (  -0.5000000   0.8315554   0.7614422), wk =   0.0416667
        k(   28) = (  -0.5000000   0.8315554   1.0660191), wk =   0.0416667
        k(   29) = (  -0.5000000   1.1641775   0.1522884), wk =   0.0416667
        k(   30) = (  -0.5000000   1.1641775   0.4568653), wk =   0.0416667
        k(   31) = (  -0.5000000   1.1641775   0.7614422), wk =   0.0416667
        k(   32) = (  -0.5000000   1.1641775   1.0660191), wk =   0.0416667

                       cryst. coord.
        k(    1) = (   0.1666667   0.0625000   0.0625000), wk =   0.0833333
        k(    2) = (   0.1666667   0.0625000   0.1875000), wk =   0.0833333
        k(    3) = (   0.1666667   0.0625000   0.3125000), wk =   0.0833333
        k(    4) = (   0.1666667   0.0625000   0.4375000), wk =   0.0833333
        k(    5) = (   0.1666667   0.1875000   0.0625000), wk =   0.0833333
        k(    6) = (   0.1666667   0.1875000   0.1875000), wk =   0.0833333
        k(    7) = (   0.1666667   0.1875000   0.3125000), wk =   0.0833333
        k(    8) = (   0.1666667   0.1875000   0.4375000), wk =   0.0833333
        k(    9) = (   0.1666667   0.3125000   0.0625000), wk =   0.0833333
        k(   10) = (   0.1666667   0.3125000   0.1875000), wk =   0.0833333
        k(   11) = (   0.1666667   0.3125000   0.3125000), wk =   0.0833333
        k(   12) = (   0.1666667   0.3125000   0.4375000), wk =   0.0833333
        k(   13) = (   0.1666667   0.4375000   0.0625000), wk =   0.0833333
        k(   14) = (   0.1666667   0.4375000   0.1875000), wk =   0.0833333
        k(   15) = (   0.1666667   0.4375000   0.3125000), wk =   0.0833333
        k(   16) = (   0.1666667   0.4375000   0.4375000), wk =   0.0833333
        k(   17) = (  -0.5000000   0.0625000   0.0625000), wk =   0.0416667
        k(   18) = (  -0.5000000   0.0625000   0.1875000), wk =   0.0416667
        k(   19) = (  -0.5000000   0.0625000   0.3125000), wk =   0.0416667
        k(   20) = (  -0.5000000   0.0625000   0.4375000), wk =   0.0416667
        k(   21) = (  -0.5000000   0.1875000   0.0625000), wk =   0.0416667
        k(   22) = (  -0.5000000   0.1875000   0.1875000), wk =   0.0416667
        k(   23) = (  -0.5000000   0.1875000   0.3125000), wk =   0.0416667
        k(   24) = (  -0.5000000   0.1875000   0.4375000), wk =   0.0416667
        k(   25) = (  -0.5000000   0.3125000   0.0625000), wk =   0.0416667
        k(   26) = (  -0.5000000   0.3125000   0.1875000), wk =   0.0416667
        k(   27) = (  -0.5000000   0.3125000   0.3125000), wk =   0.0416667
        k(   28) = (  -0.5000000   0.3125000   0.4375000), wk =   0.0416667
        k(   29) = (  -0.5000000   0.4375000   0.0625000), wk =   0.0416667
        k(   30) = (  -0.5000000   0.4375000   0.1875000), wk =   0.0416667
        k(   31) = (  -0.5000000   0.4375000   0.3125000), wk =   0.0416667
        k(   32) = (  -0.5000000   0.4375000   0.4375000), wk =   0.0416667

     Dense  grid:   353445 G-vectors     FFT dimensions: ( 180,  64,  72)

     Smooth grid:    89379 G-vectors     FFT dimensions: ( 108,  40,  48)

     Dynamical RAM for                 wfc:       3.41 MB

     Dynamical RAM for     wfc (w. buffer):      40.91 MB

     Dynamical RAM for           str. fact:       5.39 MB

     Dynamical RAM for           local pot:       0.00 MB

     Dynamical RAM for          nlocal pot:      12.27 MB

     Dynamical RAM for                qrad:       3.93 MB

     Dynamical RAM for          rho,v,vnew:      17.58 MB

     Dynamical RAM for               rhoin:       5.86 MB

     Dynamical RAM for            rho*nmix:      43.15 MB

     Dynamical RAM for           G-vectors:      10.45 MB

     Dynamical RAM for          h,s,v(r/c):       0.29 MB

     Dynamical RAM for          <psi|beta>:       0.09 MB

     Dynamical RAM for                 psi:       6.82 MB

     Dynamical RAM for                hpsi:       6.82 MB

     Dynamical RAM for                spsi:       6.82 MB

     Dynamical RAM for      wfcinit/wfcrot:       8.93 MB

     Dynamical RAM for           addusdens:     172.58 MB

     Dynamical RAM for          addusforce:     177.54 MB

     Estimated static dynamical RAM per process >     120.32 MB

     Estimated max dynamical RAM per process >     341.00 MB

     Estimated total dynamical RAM >       1.83 GB

     Initial potential from superposition of free atoms

     starting charge      75.9995, renormalised to      80.0000
     Starting wfcs are   52 randomized atomic wfcs

     total cpu time spent up to now is        3.9 secs

     Self-consistent Calculation

     iteration #  1     ecut=    60.00 Ry     beta= 0.70
     Davidson diagonalization with overlap

---- Real-time Memory Report at c_bands before calling an iterative solver
           387 MiB given to the printing process from OS
             0 MiB allocation reported by mallinfo(arena+hblkhd)
         10199 MiB available memory on the node where the printing process lives
------------------
     ethr =  1.00E-02,  avg # of iterations =  2.0

     total cpu time spent up to now is       11.0 secs

     total energy              =    -826.64135592 Ry
     estimated scf accuracy    <       2.65337318 Ry

     iteration #  2     ecut=    60.00 Ry     beta= 0.70
     Davidson diagonalization with overlap

---- Real-time Memory Report at c_bands before calling an iterative solver
           485 MiB given to the printing process from OS
             0 MiB allocation reported by mallinfo(arena+hblkhd)
          9983 MiB available memory on the node where the printing process lives
------------------
     ethr =  3.32E-03,  avg # of iterations =  3.0

     total cpu time spent up to now is       18.5 secs

     total energy              =    -827.55031272 Ry
     estimated scf accuracy    <       0.91620410 Ry

     iteration #  3     ecut=    60.00 Ry     beta= 0.70
     Davidson diagonalization with overlap

---- Real-time Memory Report at c_bands before calling an iterative solver
           522 MiB given to the printing process from OS
             0 MiB allocation reported by mallinfo(arena+hblkhd)
          9823 MiB available memory on the node where the printing process lives
------------------
     ethr =  1.15E-03,  avg # of iterations =  2.5

     total cpu time spent up to now is       25.1 secs

     total energy              =    -827.73259308 Ry
     estimated scf accuracy    <       0.00911398 Ry

     iteration #  4     ecut=    60.00 Ry     beta= 0.70
     Davidson diagonalization with overlap

---- Real-time Memory Report at c_bands before calling an iterative solver
           525 MiB given to the printing process from OS
             0 MiB allocation reported by mallinfo(arena+hblkhd)
          9818 MiB available memory on the node where the printing process lives
------------------
     ethr =  1.14E-05,  avg # of iterations =  5.0

     total cpu time spent up to now is       33.7 secs

     total energy              =    -827.73843443 Ry
     estimated scf accuracy    <       0.00422934 Ry

     iteration #  5     ecut=    60.00 Ry     beta= 0.70
     Davidson diagonalization with overlap

---- Real-time Memory Report at c_bands before calling an iterative solver
           528 MiB given to the printing process from OS
             0 MiB allocation reported by mallinfo(arena+hblkhd)
          9812 MiB available memory on the node where the printing process lives
------------------
     ethr =  5.29E-06,  avg # of iterations =  3.3

     total cpu time spent up to now is       40.6 secs

     total energy              =    -827.73978008 Ry
     estimated scf accuracy    <       0.00120788 Ry

     iteration #  6     ecut=    60.00 Ry     beta= 0.70
     Davidson diagonalization with overlap

---- Real-time Memory Report at c_bands before calling an iterative solver
           530 MiB given to the printing process from OS
             0 MiB allocation reported by mallinfo(arena+hblkhd)
          9806 MiB available memory on the node where the printing process lives
------------------
     ethr =  1.51E-06,  avg # of iterations =  2.3

     total cpu time spent up to now is       47.1 secs

     total energy              =    -827.73997382 Ry
     estimated scf accuracy    <       0.00002441 Ry

     iteration #  7     ecut=    60.00 Ry     beta= 0.70
     Davidson diagonalization with overlap

---- Real-time Memory Report at c_bands before calling an iterative solver
           534 MiB given to the printing process from OS
             0 MiB allocation reported by mallinfo(arena+hblkhd)
          9802 MiB available memory on the node where the printing process lives
------------------
     ethr =  3.05E-08,  avg # of iterations =  5.8

     total cpu time spent up to now is       57.1 secs

     total energy              =    -827.73999732 Ry
     estimated scf accuracy    <       0.00000460 Ry

     iteration #  8     ecut=    60.00 Ry     beta= 0.70
     Davidson diagonalization with overlap

---- Real-time Memory Report at c_bands before calling an iterative solver
           536 MiB given to the printing process from OS
             0 MiB allocation reported by mallinfo(arena+hblkhd)
          9799 MiB available memory on the node where the printing process lives
------------------
     ethr =  5.76E-09,  avg # of iterations =  3.2

     total cpu time spent up to now is       65.2 secs

     total energy              =    -827.73999921 Ry
     estimated scf accuracy    <       0.00000131 Ry

     iteration #  9     ecut=    60.00 Ry     beta= 0.70
     Davidson diagonalization with overlap

---- Real-time Memory Report at c_bands before calling an iterative solver
           538 MiB given to the printing process from OS
             0 MiB allocation reported by mallinfo(arena+hblkhd)
          9796 MiB available memory on the node where the printing process lives
------------------
     ethr =  1.63E-09,  avg # of iterations =  3.8

     total cpu time spent up to now is       72.4 secs

     total energy              =    -827.73999964 Ry
     estimated scf accuracy    <       0.00000003 Ry

     iteration # 10     ecut=    60.00 Ry     beta= 0.70
     Davidson diagonalization with overlap

---- Real-time Memory Report at c_bands before calling an iterative solver
           540 MiB given to the printing process from OS
             0 MiB allocation reported by mallinfo(arena+hblkhd)
          9790 MiB available memory on the node where the printing process lives
------------------
     ethr =  3.35E-11,  avg # of iterations =  7.6

     total cpu time spent up to now is       85.9 secs

     total energy              =    -827.73999968 Ry
     estimated scf accuracy    <       0.00000001 Ry

     iteration # 11     ecut=    60.00 Ry     beta= 0.70
     Davidson diagonalization with overlap

---- Real-time Memory Report at c_bands before calling an iterative solver
           540 MiB given to the printing process from OS
             0 MiB allocation reported by mallinfo(arena+hblkhd)
          9789 MiB available memory on the node where the printing process lives
------------------
     ethr =  1.51E-11,  avg # of iterations =  2.9

     total cpu time spent up to now is       92.8 secs

     End of self-consistent calculation

          k = 0.1667 0.1663 0.1523 ( 11190 PWs)   bands (ev):

   -13.2402 -13.2281 -13.2238 -13.2221 -13.2199 -13.2190 -13.2156 -13.2123
   -13.2057 -13.2032 -13.2000 -13.1989 -13.1881 -13.1802 -13.1611 -13.1602
   -13.1526 -13.1517 -13.1396 -13.1322  -5.7237  -5.3988  -4.6059  -4.1554
     0.6098   1.5483   2.5524   2.8649   3.3020   4.5495   4.6748   4.9568
     5.2364   5.3948   5.9678   6.3291   6.5973   7.0999   7.3334   7.6252

     occupation numbers 
     1.0000   1.0000   1.0000   1.0000   1.0000   1.0000   1.0000   1.0000
     1.0000   1.0000   1.0000   1.0000   1.0000   1.0000   1.0000   1.0000
     1.0000   1.0000   1.0000   1.0000   1.0000   1.0000   1.0000   1.0000
     1.0000   1.0000   1.0000   1.0000   1.0000   1.0000   1.0000   1.0000
     1.0000   1.0000   1.0000   1.0000   1.0000   1.0000   1.0000   1.0000

          k = 0.1667 0.1663 0.4569 ( 11185 PWs)   bands (ev):

   -13.2384 -13.2276 -13.2238 -13.2232 -13.2204 -13.2196 -13.2164 -13.2132
   -13.2048 -13.2006 -13.1990 -13.1975 -13.1879 -13.1811 -13.1615 -13.1591
   -13.1533 -13.1529 -13.1390 -13.1327  -5.6026  -5.2873  -4.6137  -4.2071
     0.3052   1.3275   1.9561   2.5731   3.4139   4.5801   4.7971   5.3855
     5.5561   5.9376   5.9805   6.4287   6.7761   7.0807   7.4853   7.7131

     occupation numbers 
     1.0000   1.0000   1.0000   1.0000   1.0000   1.0000   1.0000   1.0000
     1.0000   1.0000   1.0000   1.0000   1.0000   1.0000   1.0000   1.0000
     1.0000   1.0000   1.0000   1.0000   1.0000   1.0000   1.0000   1.0000
     1.0000   1.0000   1.0000   1.0000   1.0000   1.0000   1.0000   1.0000
     1.0000   1.0000   1.0000   1.0000   1.0000   1.0000   1.0000   1.0000

          k = 0.1667 0.1663 0.7614 ( 11170 PWs)   bands (ev):

   -13.2354 -13.2273 -13.2249 -13.2237 -13.2219 -13.2198 -13.2170 -13.2147
   -13.2034 -13.1995 -13.1964 -13.1937 -13.1879 -13.1829 -13.1610 -13.1579
   -13.1550 -13.1543 -13.1379 -13.1337  -5.3825  -5.0871  -4.6685  -4.3293
     0.0198   0.8367   1.5079   2.1069   3.7202   4.8099   5.0056   5.6373
     5.9568   6.0555   6.3471   6.4374   6.9507   7.4047   7.4981   7.9454

     occupation numbers 
     1.0000   1.0000   1.0000   1.0000   1.0000   1.0000   1.0000   1.0000
     1.0000   1.0000   1.0000   1.0000   1.0000   1.0000   1.0000   1.0000
     1.0000   1.0000   1.0000   1.0000   1.0000   1.0000   1.0000   1.0000
     1.0000   1.0000   1.0000   1.0000   1.0000   1.0000   1.0000   1.0000
     1.0000   1.0000   1.0000   1.0000   1.0000   1.0000   1.0000   1.0000

          k = 0.1667 0.1663 1.0660 ( 11165 PWs)   bands (ev):

   -13.2319 -13.2289 -13.2254 -13.2249 -13.2216 -13.2206 -13.2169 -13.2161
   -13.2018 -13.2004 -13.1922 -13.1902 -13.1884 -13.1856 -13.1596 -13.1575
   -13.1565 -13.1554 -13.1365 -13.1350  -5.1146  -4.9164  -4.7382  -4.5298
    -0.0060   0.2957   1.4476   1.6778   4.1849   4.6804   5.3958   5.7072
     5.9419   6.0930   6.4213   6.6547   7.2435   7.5294   7.7339   7.8139

     occupation numbers 
     1.0000   1.0000   1.0000   1.0000   1.0000   1.0000   1.0000   1.0000
     1.0000   1.0000   1.0000   1.0000   1.0000   1.0000   1.0000   1.0000
     1.0000   1.0000   1.0000   1.0000   1.0000   1.0000   1.0000   1.0000
     1.0000   1.0000   1.0000   1.0000   1.0000   1.0000   1.0000   1.0000
     1.0000   1.0000   1.0000   1.0000   1.0000   1.0000   1.0000   1.0000

          k = 0.1667 0.4989 0.1523 ( 11193 PWs)   bands (ev):

   -13.2341 -13.2267 -13.2248 -13.2219 -13.2189 -13.2186 -13.2167 -13.2152
   -13.2064 -13.2009 -13.1993 -13.1973 -13.1857 -13.1815 -13.1632 -13.1590
   -13.1559 -13.1500 -13.1397 -13.1340  -5.5580  -5.2573  -4.5465  -4.1733
     0.4767   1.3197   2.1782   2.3329   3.4145   4.3991   4.7313   5.0903
     5.3832   5.5525   6.0151   6.3847   6.5482   7.2189   7.5177   7.6771

     occupation numbers 
     1.0000   1.0000   1.0000   1.0000   1.0000   1.0000   1.0000   1.0000
     1.0000   1.0000   1.0000   1.0000   1.0000   1.0000   1.0000   1.0000
     1.0000   1.0000   1.0000   1.0000   1.0000   1.0000   1.0000   1.0000
     1.0000   1.0000   1.0000   1.0000   1.0000   1.0000   1.0000   1.0000
     1.0000   1.0000   1.0000   1.0000   1.0000   1.0000   1.0000   1.0000

          k = 0.1667 0.4989 0.4569 ( 11179 PWs)   bands (ev):

   -13.2339 -13.2268 -13.2262 -13.2227 -13.2193 -13.2185 -13.2168 -13.2157
   -13.2056 -13.2011 -13.1970 -13.1949 -13.1860 -13.1816 -13.1628 -13.1590
   -13.1561 -13.1511 -13.1392 -13.1343  -5.4428  -5.1527  -4.5507  -4.2111
     0.3247   1.2753   1.8191   2.1996   3.5506   3.9977   4.3254   5.2598
     5.4448   5.9898   6.0869   6.3549   6.9397   7.1056   7.5054   7.6872

     occupation numbers 
     1.0000   1.0000   1.0000   1.0000   1.0000   1.0000   1.0000   1.0000
     1.0000   1.0000   1.0000   1.0000   1.0000   1.0000   1.0000   1.0000
     1.0000   1.0000   1.0000   1.0000   1.0000   1.0000   1.0000   1.0000
     1.0000   1.0000   1.0000   1.0000   1.0000   1.0000   1.0000   1.0000
     1.0000   1.0000   1.0000   1.0000   1.0000   1.0000   1.0000   1.0000

          k = 0.1667 0.4989 0.7614 ( 11164 PWs)   bands (ev):

   -13.2336 -13.2289 -13.2266 -13.2239 -13.2203 -13.2180 -13.2175 -13.2152
   -13.2045 -13.2017 -13.1932 -13.1913 -13.1864 -13.1824 -13.1620 -13.1592
   -13.1562 -13.1527 -13.1381 -13.1348  -5.2359  -4.9670  -4.5947  -4.3064
     0.1674   0.9483   1.5421   1.9777   3.8036   3.9532   4.2768   5.1315
     5.2714   5.9562   6.0764   6.5930   6.8357   7.1367   7.3605   7.7042

     occupation numbers 
     1.0000   1.0000   1.0000   1.0000   1.0000   1.0000   1.0000   1.0000
     1.0000   1.0000   1.0000   1.0000   1.0000   1.0000   1.0000   1.0000
     1.0000   1.0000   1.0000   1.0000   1.0000   1.0000   1.0000   1.0000
     1.0000   1.0000   1.0000   1.0000   1.0000   1.0000   1.0000   1.0000
     1.0000   1.0000   1.0000   1.0000   1.0000   1.0000   1.0000   1.0000

          k = 0.1667 0.4989 1.0660 ( 11155 PWs)   bands (ev):

   -13.2330 -13.2314 -13.2262 -13.2253 -13.2204 -13.2193 -13.2163 -13.2154
   -13.2034 -13.2024 -13.1896 -13.1875 -13.1874 -13.1844 -13.1609 -13.1598
   -13.1556 -13.1543 -13.1369 -13.1358  -4.9887  -4.8106  -4.6533  -4.4724
     0.1894   0.4748   1.5468   1.7179   4.1172   4.1902   4.4912   4.7947
     5.1421   5.4469   6.1336   6.4139   6.8472   7.1207   7.4128   7.6211

     occupation numbers 
     1.0000   1.0000   1.0000   1.0000   1.0000   1.0000   1.0000   1.0000
     1.0000   1.0000   1.0000   1.0000   1.0000   1.0000   1.0000   1.0000
     1.0000   1.0000   1.0000   1.0000   1.0000   1.0000   1.0000   1.0000
     1.0000   1.0000   1.0000   1.0000   1.0000   1.0000   1.0000   1.0000
     1.0000   1.0000   1.0000   1.0000   1.0000   1.0000   1.0000   1.0000

          k = 0.1667 0.8316 0.1523 ( 11168 PWs)   bands (ev):

   -13.2314 -13.2290 -13.2279 -13.2269 -13.2160 -13.2143 -13.2125 -13.2109
   -13.2054 -13.2026 -13.1957 -13.1932 -13.1850 -13.1821 -13.1682 -13.1661
   -13.1520 -13.1470 -13.1399 -13.1369  -5.2534  -5.0095  -4.4903  -4.2700
     0.3053   1.0435   1.3620   1.8151   3.7574   4.5116   4.8992   5.3017
     5.6041   5.7274   6.1274   6.3235   6.6450   7.1851   7.3099   7.7211

     occupation numbers 
     1.0000   1.0000   1.0000   1.0000   1.0000   1.0000   1.0000   1.0000
     1.0000   1.0000   1.0000   1.0000   1.0000   1.0000   1.0000   1.0000
     1.0000   1.0000   1.0000   1.0000   1.0000   1.0000   1.0000   1.0000
     1.0000   1.0000   1.0000   1.0000   1.0000   1.0000   1.0000   1.0000
     1.0000   1.0000   1.0000   1.0000   1.0000   1.0000   1.0000   1.0000

          k = 0.1667 0.8316 0.4569 ( 11164 PWs)   bands (ev):

   -13.2344 -13.2311 -13.2293 -13.2275 -13.2164 -13.2133 -13.2120 -13.2107
   -13.2043 -13.2026 -13.1940 -13.1915 -13.1855 -13.1815 -13.1676 -13.1659
   -13.1520 -13.1478 -13.1394 -13.1368  -5.1526  -4.9206  -4.4831  -4.2777
     0.3471   1.1364   1.4012   1.7012   3.7481   3.8663   4.2681   4.9445
     5.3776   5.8988   5.9496   6.4524   6.5220   7.0239   7.1786   7.4861

     occupation numbers 
     1.0000   1.0000   1.0000   1.0000   1.0000   1.0000   1.0000   1.0000
     1.0000   1.0000   1.0000   1.0000   1.0000   1.0000   1.0000   1.0000
     1.0000   1.0000   1.0000   1.0000   1.0000   1.0000   1.0000   1.0000
     1.0000   1.0000   1.0000   1.0000   1.0000   1.0000   1.0000   1.0000
     1.0000   1.0000   1.0000   1.0000   1.0000   1.0000   1.0000   1.0000

          k = 0.1667 0.8316 0.7614 ( 11155 PWs)   bands (ev):

   -13.2375 -13.2348 -13.2307 -13.2293 -13.2160 -13.2124 -13.2118 -13.2105
   -13.2032 -13.2025 -13.1912 -13.1890 -13.1854 -13.1817 -13.1668 -13.1656
   -13.1518 -13.1490 -13.1386 -13.1368  -4.9766  -4.7678  -4.4995  -4.3158
     0.4158   1.0786   1.4739   1.6480   3.3694   3.7330   4.1595   4.4805
     4.8669   5.3592   5.6889   6.0848   6.4061   6.7523   7.0432   7.4610

     occupation numbers 
     1.0000   1.0000   1.0000   1.0000   1.0000   1.0000   1.0000   1.0000
     1.0000   1.0000   1.0000   1.0000   1.0000   1.0000   1.0000   1.0000
     1.0000   1.0000   1.0000   1.0000   1.0000   1.0000   1.0000   1.0000
     1.0000   1.0000   1.0000   1.0000   1.0000   1.0000   1.0000   1.0000
     1.0000   1.0000   1.0000   1.0000   1.0000   1.0000   1.0000   1.0000

          k = 0.1667 0.8316 1.0660 ( 11161 PWs)   bands (ev):

   -13.2389 -13.2379 -13.2315 -13.2310 -13.2148 -13.2133 -13.2110 -13.2105
   -13.2025 -13.2024 -13.1888 -13.1877 -13.1844 -13.1828 -13.1659 -13.1655
   -13.1512 -13.1502 -13.1377 -13.1371  -4.7768  -4.6436  -4.5315  -4.4091
     0.5422   0.7828   1.6065   1.6613   3.3903   3.7367   3.8732   4.2290
     4.6567   5.0112   5.4666   5.8440   6.1112   6.3998   7.1378   7.2567

     occupation numbers 
     1.0000   1.0000   1.0000   1.0000   1.0000   1.0000   1.0000   1.0000
     1.0000   1.0000   1.0000   1.0000   1.0000   1.0000   1.0000   1.0000
     1.0000   1.0000   1.0000   1.0000   1.0000   1.0000   1.0000   1.0000
     1.0000   1.0000   1.0000   1.0000   1.0000   1.0000   1.0000   1.0000
     1.0000   1.0000   1.0000   1.0000   1.0000   1.0000   1.0000   1.0000

          k = 0.1667 1.1642 0.1523 ( 11163 PWs)   bands (ev):

   -13.2339 -13.2327 -13.2303 -13.2292 -13.2118 -13.2104 -13.2094 -13.2075
   -13.2005 -13.2000 -13.1968 -13.1924 -13.1842 -13.1786 -13.1753 -13.1735
   -13.1463 -13.1438 -13.1410 -13.1408  -4.8710  -4.7329  -4.5370  -4.5096
     0.3131   0.6719   1.0058   1.3021   4.2644   4.6928   5.1088   5.4784
     5.6768   5.7028   6.1399   6.4736   6.7616   7.0283   7.0734   7.2562

     occupation numbers 
     1.0000   1.0000   1.0000   1.0000   1.0000   1.0000   1.0000   1.0000
     1.0000   1.0000   1.0000   1.0000   1.0000   1.0000   1.0000   1.0000
     1.0000   1.0000   1.0000   1.0000   1.0000   1.0000   1.0000   1.0000
     1.0000   1.0000   1.0000   1.0000   1.0000   1.0000   1.0000   1.0000
     1.0000   1.0000   1.0000   1.0000   1.0000   1.0000   1.0000   1.0000

          k = 0.1667 1.1642 0.4569 ( 11168 PWs)   bands (ev):

   -13.2370 -13.2358 -13.2317 -13.2308 -13.2124 -13.2106 -13.2081 -13.2069
   -13.2000 -13.1990 -13.1955 -13.1917 -13.1835 -13.1795 -13.1734 -13.1724
   -13.1467 -13.1447 -13.1404 -13.1400  -4.7970  -4.6701  -4.5061  -4.4749
     0.4595   0.8092   1.1192   1.3287   4.0166   4.2000   4.4959   4.7742
     5.0490   5.4708   6.0019   6.1942   6.3228   6.6012   7.1962   7.4336

     occupation numbers 
     1.0000   1.0000   1.0000   1.0000   1.0000   1.0000   1.0000   1.0000
     1.0000   1.0000   1.0000   1.0000   1.0000   1.0000   1.0000   1.0000
     1.0000   1.0000   1.0000   1.0000   1.0000   1.0000   1.0000   1.0000
     1.0000   1.0000   1.0000   1.0000   1.0000   1.0000   1.0000   1.0000
     1.0000   1.0000   1.0000   1.0000   1.0000   1.0000   1.0000   1.0000

          k = 0.1667 1.1642 0.7614 ( 11179 PWs)   bands (ev):

   -13.2409 -13.2399 -13.2338 -13.2333 -13.2126 -13.2111 -13.2069 -13.2063
   -13.1991 -13.1981 -13.1935 -13.1910 -13.1823 -13.1800 -13.1715 -13.1710
   -13.1469 -13.1456 -13.1397 -13.1394  -4.6763  -4.5711  -4.4716  -4.4322
     0.7087   1.0229   1.2903   1.3588   3.3767   3.8351   3.9532   4.2302
     4.6408   4.9406   5.3648   5.8180   5.9415   6.1878   7.0882   7.2123

     occupation numbers 
     1.0000   1.0000   1.0000   1.0000   1.0000   1.0000   1.0000   1.0000
     1.0000   1.0000   1.0000   1.0000   1.0000   1.0000   1.0000   1.0000
     1.0000   1.0000   1.0000   1.0000   1.0000   1.0000   1.0000   1.0000
     1.0000   1.0000   1.0000   1.0000   1.0000   1.0000   1.0000   1.0000
     1.0000   1.0000   1.0000   1.0000   1.0000   1.0000   1.0000   1.0000

          k = 0.1667 1.1642 1.0660 ( 11174 PWs)   bands (ev):

   -13.2433 -13.2430 -13.2353 -13.2351 -13.2124 -13.2118 -13.2062 -13.2060
   -13.1983 -13.1978 -13.1919 -13.1909 -13.1810 -13.1803 -13.1703 -13.1701
   -13.1467 -13.1462 -13.1392 -13.1390  -4.5574  -4.4982  -4.4566  -4.4210
     0.9592   1.1013   1.4106   1.4505   3.1274   3.3346   3.7404   3.8519
     4.4696   4.4984   5.0178   5.3504   5.9041   6.0890   6.9225   6.9797

     occupation numbers 
     1.0000   1.0000   1.0000   1.0000   1.0000   1.0000   1.0000   1.0000
     1.0000   1.0000   1.0000   1.0000   1.0000   1.0000   1.0000   1.0000
     1.0000   1.0000   1.0000   1.0000   1.0000   1.0000   1.0000   1.0000
     1.0000   1.0000   1.0000   1.0000   1.0000   1.0000   1.0000   1.0000
     1.0000   1.0000   1.0000   1.0000   1.0000   1.0000   1.0000   1.0000

          k =-0.5000 0.1663 0.1523 ( 11200 PWs)   bands (ev):

   -13.2348 -13.2348 -13.2217 -13.2217 -13.2211 -13.2211 -13.2131 -13.2131
   -13.2028 -13.2028 -13.2018 -13.2018 -13.1836 -13.1836 -13.1602 -13.1602
   -13.1524 -13.1524 -13.1357 -13.1357  -5.5909  -5.5909  -4.3509  -4.3509
     0.9413   0.9413   2.7915   2.7915   4.0156   4.0156   4.8747   4.8747
     5.4351   5.4351   6.0529   6.0529   6.4168   6.4168   7.5474   7.5474

     occupation numbers 
     1.0000   1.0000   1.0000   1.0000   1.0000   1.0000   1.0000   1.0000
     1.0000   1.0000   1.0000   1.0000   1.0000   1.0000   1.0000   1.0000
     1.0000   1.0000   1.0000   1.0000   1.0000   1.0000   1.0000   1.0000
     1.0000   1.0000   1.0000   1.0000   1.0000   1.0000   1.0000   1.0000
     1.0000   1.0000   1.0000   1.0000   1.0000   1.0000   1.0000   1.0000

          k =-0.5000 0.1663 0.4569 ( 11182 PWs)   bands (ev):

   -13.2337 -13.2337 -13.2223 -13.2223 -13.2211 -13.2211 -13.2145 -13.2145
   -13.2020 -13.2020 -13.1993 -13.1993 -13.1841 -13.1841 -13.1599 -13.1599
   -13.1533 -13.1533 -13.1357 -13.1357  -5.4749  -5.4749  -4.3802  -4.3802
     0.6717   0.6717   2.3162   2.3162   4.2740   4.2740   4.9598   4.9598
     5.6530   5.6530   6.2102   6.2102   6.8460   6.8460   7.4668   7.4668

     occupation numbers 
     1.0000   1.0000   1.0000   1.0000   1.0000   1.0000   1.0000   1.0000
     1.0000   1.0000   1.0000   1.0000   1.0000   1.0000   1.0000   1.0000
     1.0000   1.0000   1.0000   1.0000   1.0000   1.0000   1.0000   1.0000
     1.0000   1.0000   1.0000   1.0000   1.0000   1.0000   1.0000   1.0000
     1.0000   1.0000   1.0000   1.0000   1.0000   1.0000   1.0000   1.0000

          k =-0.5000 0.1663 0.7614 ( 11176 PWs)   bands (ev):

   -13.2318 -13.2318 -13.2240 -13.2240 -13.2207 -13.2207 -13.2162 -13.2162
   -13.2012 -13.2012 -13.1953 -13.1953 -13.1851 -13.1851 -13.1593 -13.1593
   -13.1548 -13.1548 -13.1357 -13.1357  -5.2674  -5.2674  -4.4667  -4.4667
     0.3660   0.3660   1.7655   1.7655   4.6012   4.6012   5.2490   5.2490
     5.7880   5.7880   6.4065   6.4065   7.0640   7.0640   7.6055   7.6055

     occupation numbers 
     1.0000   1.0000   1.0000   1.0000   1.0000   1.0000   1.0000   1.0000
     1.0000   1.0000   1.0000   1.0000   1.0000   1.0000   1.0000   1.0000
     1.0000   1.0000   1.0000   1.0000   1.0000   1.0000   1.0000   1.0000
     1.0000   1.0000   1.0000   1.0000   1.0000   1.0000   1.0000   1.0000
     1.0000   1.0000   1.0000   1.0000   1.0000   1.0000   1.0000   1.0000

          k =-0.5000 0.1663 1.0660 ( 11150 PWs)   bands (ev):

   -13.2302 -13.2302 -13.2253 -13.2253 -13.2206 -13.2206 -13.2175 -13.2175
   -13.2007 -13.2007 -13.1915 -13.1915 -13.1867 -13.1867 -13.1583 -13.1583
   -13.1563 -13.1563 -13.1357 -13.1357  -5.0391  -5.0391  -4.6117  -4.6117
     0.2011   0.2011   1.4016   1.4016   5.0103   5.0103   5.5494   5.5494
     5.6348   5.6348   6.2656   6.2656   7.4058   7.4058   7.6989   7.6989

     occupation numbers 
     1.0000   1.0000   1.0000   1.0000   1.0000   1.0000   1.0000   1.0000
     1.0000   1.0000   1.0000   1.0000   1.0000   1.0000   1.0000   1.0000
     1.0000   1.0000   1.0000   1.0000   1.0000   1.0000   1.0000   1.0000
     1.0000   1.0000   1.0000   1.0000   1.0000   1.0000   1.0000   1.0000
     1.0000   1.0000   1.0000   1.0000   1.0000   1.0000   1.0000   1.0000

          k =-0.5000 0.4989 0.1523 ( 11202 PWs)   bands (ev):

   -13.2304 -13.2304 -13.2238 -13.2238 -13.2184 -13.2184 -13.2160 -13.2160
   -13.2037 -13.2037 -13.1984 -13.1984 -13.1834 -13.1834 -13.1615 -13.1615
   -13.1525 -13.1525 -13.1367 -13.1367  -5.4344  -5.4344  -4.3322  -4.3322
     0.7919   0.7919   2.2886   2.2886   4.1394   4.1394   4.7869   4.7869
     5.7162   5.7162   5.9209   5.9209   6.5771   6.5771   7.6757   7.6757

     occupation numbers 
     1.0000   1.0000   1.0000   1.0000   1.0000   1.0000   1.0000   1.0000
     1.0000   1.0000   1.0000   1.0000   1.0000   1.0000   1.0000   1.0000
     1.0000   1.0000   1.0000   1.0000   1.0000   1.0000   1.0000   1.0000
     1.0000   1.0000   1.0000   1.0000   1.0000   1.0000   1.0000   1.0000
     1.0000   1.0000   1.0000   1.0000   1.0000   1.0000   1.0000   1.0000

          k =-0.5000 0.4989 0.4569 ( 11172 PWs)   bands (ev):

   -13.2306 -13.2306 -13.2249 -13.2249 -13.2187 -13.2187 -13.2159 -13.2159
   -13.2034 -13.2034 -13.1960 -13.1960 -13.1838 -13.1838 -13.1614 -13.1614
   -13.1531 -13.1531 -13.1365 -13.1365  -5.3246  -5.3246  -4.3534  -4.3534
     0.6775   0.6775   2.0505   2.0505   4.0643   4.0643   4.7266   4.7266
     5.4051   5.4051   6.3280   6.3280   6.9354   6.9354   7.5783   7.5783

     occupation numbers 
     1.0000   1.0000   1.0000   1.0000   1.0000   1.0000   1.0000   1.0000
     1.0000   1.0000   1.0000   1.0000   1.0000   1.0000   1.0000   1.0000
     1.0000   1.0000   1.0000   1.0000   1.0000   1.0000   1.0000   1.0000
     1.0000   1.0000   1.0000   1.0000   1.0000   1.0000   1.0000   1.0000
     1.0000   1.0000   1.0000   1.0000   1.0000   1.0000   1.0000   1.0000

          k =-0.5000 0.4989 0.7614 ( 11156 PWs)   bands (ev):

   -13.2308 -13.2308 -13.2269 -13.2269 -13.2185 -13.2185 -13.2158 -13.2158
   -13.2031 -13.2031 -13.1923 -13.1923 -13.1846 -13.1846 -13.1611 -13.1611
   -13.1541 -13.1541 -13.1363 -13.1363  -5.1304  -5.1304  -4.4218  -4.4218
     0.5010   0.5010   1.7340   1.7340   4.0498   4.0498   4.8885   4.8885
     5.2426   5.2426   6.4397   6.4397   6.7955   6.7955   7.5271   7.5271

     occupation numbers 
     1.0000   1.0000   1.0000   1.0000   1.0000   1.0000   1.0000   1.0000
     1.0000   1.0000   1.0000   1.0000   1.0000   1.0000   1.0000   1.0000
     1.0000   1.0000   1.0000   1.0000   1.0000   1.0000   1.0000   1.0000
     1.0000   1.0000   1.0000   1.0000   1.0000   1.0000   1.0000   1.0000
     1.0000   1.0000   1.0000   1.0000   1.0000   1.0000   1.0000   1.0000

          k =-0.5000 0.4989 1.0660 ( 11138 PWs)   bands (ev):

   -13.2310 -13.2310 -13.2285 -13.2285 -13.2180 -13.2180 -13.2159 -13.2159
   -13.2029 -13.2029 -13.1886 -13.1886 -13.1860 -13.1860 -13.1609 -13.1609
   -13.1548 -13.1548 -13.1361 -13.1361  -4.9205  -4.9205  -4.5430  -4.5430
     0.3803   0.3803   1.5024   1.5024   4.2882   4.2882   4.7159   4.7159
     5.4601   5.4601   6.0945   6.0945   6.7451   6.7451   7.3648   7.3648

     occupation numbers 
     1.0000   1.0000   1.0000   1.0000   1.0000   1.0000   1.0000   1.0000
     1.0000   1.0000   1.0000   1.0000   1.0000   1.0000   1.0000   1.0000
     1.0000   1.0000   1.0000   1.0000   1.0000   1.0000   1.0000   1.0000
     1.0000   1.0000   1.0000   1.0000   1.0000   1.0000   1.0000   1.0000
     1.0000   1.0000   1.0000   1.0000   1.0000   1.0000   1.0000   1.0000

          k =-0.5000 0.8316 0.1523 ( 11166 PWs)   bands (ev):

   -13.2309 -13.2309 -13.2267 -13.2267 -13.2145 -13.2145 -13.2128 -13.2128
   -13.2037 -13.2037 -13.1946 -13.1946 -13.1833 -13.1833 -13.1674 -13.1674
   -13.1494 -13.1494 -13.1384 -13.1384  -5.1514  -5.1514  -4.3592  -4.3592
     0.6045   0.6045   1.5807   1.5807   4.4185   4.4185   4.9719   4.9719
     5.8672   5.8672   6.0300   6.0300   6.5665   6.5665   7.5098   7.5098

     occupation numbers 
     1.0000   1.0000   1.0000   1.0000   1.0000   1.0000   1.0000   1.0000
     1.0000   1.0000   1.0000   1.0000   1.0000   1.0000   1.0000   1.0000
     1.0000   1.0000   1.0000   1.0000   1.0000   1.0000   1.0000   1.0000
     1.0000   1.0000   1.0000   1.0000   1.0000   1.0000   1.0000   1.0000
     1.0000   1.0000   1.0000   1.0000   1.0000   1.0000   1.0000   1.0000

          k =-0.5000 0.8316 0.4569 ( 11176 PWs)   bands (ev):

   -13.2327 -13.2327 -13.2287 -13.2287 -13.2143 -13.2143 -13.2117 -13.2117
   -13.2034 -13.2034 -13.1929 -13.1929 -13.1833 -13.1833 -13.1672 -13.1672
   -13.1496 -13.1496 -13.1381 -13.1381  -5.0564  -5.0564  -4.3601  -4.3601
     0.6666   0.6666   1.5579   1.5579   3.9385   3.9385   4.8178   4.8178
     5.2954   5.2954   6.2717   6.2717   6.5152   6.5152   7.4200   7.4200

     occupation numbers 
     1.0000   1.0000   1.0000   1.0000   1.0000   1.0000   1.0000   1.0000
     1.0000   1.0000   1.0000   1.0000   1.0000   1.0000   1.0000   1.0000
     1.0000   1.0000   1.0000   1.0000   1.0000   1.0000   1.0000   1.0000
     1.0000   1.0000   1.0000   1.0000   1.0000   1.0000   1.0000   1.0000
     1.0000   1.0000   1.0000   1.0000   1.0000   1.0000   1.0000   1.0000

          k =-0.5000 0.8316 0.7614 ( 11178 PWs)   bands (ev):

   -13.2352 -13.2352 -13.2315 -13.2315 -13.2136 -13.2136 -13.2110 -13.2110
   -13.2030 -13.2030 -13.1905 -13.1905 -13.1830 -13.1830 -13.1670 -13.1670
   -13.1499 -13.1499 -13.1377 -13.1377  -4.8931  -4.8931  -4.3868  -4.3868
     0.7111   0.7111   1.5411   1.5411   3.6040   3.6040   4.4679   4.4679
     5.0430   5.0430   5.7641   5.7641   6.4606   6.4606   7.3202   7.3202

     occupation numbers 
     1.0000   1.0000   1.0000   1.0000   1.0000   1.0000   1.0000   1.0000
     1.0000   1.0000   1.0000   1.0000   1.0000   1.0000   1.0000   1.0000
     1.0000   1.0000   1.0000   1.0000   1.0000   1.0000   1.0000   1.0000
     1.0000   1.0000   1.0000   1.0000   1.0000   1.0000   1.0000   1.0000
     1.0000   1.0000   1.0000   1.0000   1.0000   1.0000   1.0000   1.0000

          k =-0.5000 0.8316 1.0660 ( 11170 PWs)   bands (ev):

   -13.2368 -13.2368 -13.2335 -13.2335 -13.2128 -13.2128 -13.2110 -13.2110
   -13.2027 -13.2027 -13.1890 -13.1890 -13.1826 -13.1826 -13.1668 -13.1668
   -13.1500 -13.1500 -13.1374 -13.1374  -4.7251  -4.7251  -4.4558  -4.4558
     0.6936   0.6936   1.5617   1.5617   3.6171   3.6171   3.9915   3.9915
     5.0518   5.0518   5.3734   5.3734   6.4816   6.4816   7.0105   7.0105

     occupation numbers 
     1.0000   1.0000   1.0000   1.0000   1.0000   1.0000   1.0000   1.0000
     1.0000   1.0000   1.0000   1.0000   1.0000   1.0000   1.0000   1.0000
     1.0000   1.0000   1.0000   1.0000   1.0000   1.0000   1.0000   1.0000
     1.0000   1.0000   1.0000   1.0000   1.0000   1.0000   1.0000   1.0000
     1.0000   1.0000   1.0000   1.0000   1.0000   1.0000   1.0000   1.0000

          k =-0.5000 1.1642 0.1523 ( 11178 PWs)   bands (ev):

   -13.2325 -13.2325 -13.2309 -13.2309 -13.2102 -13.2102 -13.2095 -13.2095
   -13.1996 -13.1996 -13.1947 -13.1947 -13.1809 -13.1809 -13.1748 -13.1748
   -13.1449 -13.1449 -13.1410 -13.1410  -4.8102  -4.8102  -4.5158  -4.5158
     0.6131   0.6131   0.9587   0.9587   4.8763   4.8763   5.2329   5.2329
     5.7433   5.7433   6.0009   6.0009   6.6869   6.6869   7.0845   7.0845

     occupation numbers 
     1.0000   1.0000   1.0000   1.0000   1.0000   1.0000   1.0000   1.0000
     1.0000   1.0000   1.0000   1.0000   1.0000   1.0000   1.0000   1.0000
     1.0000   1.0000   1.0000   1.0000   1.0000   1.0000   1.0000   1.0000
     1.0000   1.0000   1.0000   1.0000   1.0000   1.0000   1.0000   1.0000
     1.0000   1.0000   1.0000   1.0000   1.0000   1.0000   1.0000   1.0000

          k =-0.5000 1.1642 0.4569 ( 11180 PWs)   bands (ev):

   -13.2347 -13.2347 -13.2332 -13.2332 -13.2101 -13.2101 -13.2091 -13.2091
   -13.1990 -13.1990 -13.1940 -13.1940 -13.1801 -13.1801 -13.1742 -13.1742
   -13.1449 -13.1449 -13.1408 -13.1408  -4.7415  -4.7415  -4.4832  -4.4832
     0.7432   0.7432   1.0541   1.0541   4.2138   4.2138   4.7586   4.7586
     5.3323   5.3323   5.7750   5.7750   6.5915   6.5915   7.0355   7.0355

     occupation numbers 
     1.0000   1.0000   1.0000   1.0000   1.0000   1.0000   1.0000   1.0000
     1.0000   1.0000   1.0000   1.0000   1.0000   1.0000   1.0000   1.0000
     1.0000   1.0000   1.0000   1.0000   1.0000   1.0000   1.0000   1.0000
     1.0000   1.0000   1.0000   1.0000   1.0000   1.0000   1.0000   1.0000
     1.0000   1.0000   1.0000   1.0000   1.0000   1.0000   1.0000   1.0000

          k =-0.5000 1.1642 0.7614 ( 11170 PWs)   bands (ev):

   -13.2379 -13.2379 -13.2364 -13.2364 -13.2099 -13.2099 -13.2088 -13.2088
   -13.1981 -13.1981 -13.1931 -13.1931 -13.1787 -13.1787 -13.1732 -13.1732
   -13.1449 -13.1449 -13.1405 -13.1405  -4.6317  -4.6317  -4.4443  -4.4443
     0.9345   0.9345   1.2156   1.2156   3.6611   3.6611   4.1791   4.1791
     4.7592   4.7592   5.2240   5.2240   6.5499   6.5499   6.9265   6.9265

     occupation numbers 
     1.0000   1.0000   1.0000   1.0000   1.0000   1.0000   1.0000   1.0000
     1.0000   1.0000   1.0000   1.0000   1.0000   1.0000   1.0000   1.0000
     1.0000   1.0000   1.0000   1.0000   1.0000   1.0000   1.0000   1.0000
     1.0000   1.0000   1.0000   1.0000   1.0000   1.0000   1.0000   1.0000
     1.0000   1.0000   1.0000   1.0000   1.0000   1.0000   1.0000   1.0000

          k =-0.5000 1.1642 1.0660 ( 11160 PWs)   bands (ev):

   -13.2400 -13.2400 -13.2387 -13.2387 -13.2098 -13.2098 -13.2088 -13.2088
   -13.1974 -13.1974 -13.1925 -13.1925 -13.1777 -13.1777 -13.1724 -13.1724
   -13.1448 -13.1448 -13.1403 -13.1403  -4.5331  -4.5331  -4.4335  -4.4335
     1.0514   1.0514   1.3799   1.3799   3.4846   3.4846   3.7288   3.7288
     4.4134   4.4134   4.6898   4.6898   6.6564   6.6564   6.8470   6.8470

     occupation numbers 
     1.0000   1.0000   1.0000   1.0000   1.0000   1.0000   1.0000   1.0000
     1.0000   1.0000   1.0000   1.0000   1.0000   1.0000   1.0000   1.0000
     1.0000   1.0000   1.0000   1.0000   1.0000   1.0000   1.0000   1.0000
     1.0000   1.0000   1.0000   1.0000   1.0000   1.0000   1.0000   1.0000
     1.0000   1.0000   1.0000   1.0000   1.0000   1.0000   1.0000   1.0000

     highest occupied level (ev):     7.9454

!    total energy              =    -827.73999969 Ry
     estimated scf accuracy    <          1.3E-11 Ry

     The total energy is the sum of the following terms:
     one-electron contribution =    -258.16088680 Ry
     hartree contribution      =     179.75228384 Ry
     xc contribution           =    -309.16083802 Ry
     ewald contribution        =    -440.04744532 Ry
     DFT-D3 Dispersion         =      -0.12311339 Ry

     convergence has been achieved in  11 iterations

     Forces acting on atoms (cartesian axes, Ry/au):

     atom    1 type  2   force =     0.01490195    0.00000000    0.00166329
     atom    2 type  1   force =    -0.01511222   -0.00000000   -0.00034389
     atom    3 type  2   force =    -0.01490195    0.00000000    0.00166329
     atom    4 type  1   force =     0.01511222    0.00000000   -0.00034389
     atom    5 type  2   force =     0.01490195    0.00000000   -0.00166329
     atom    6 type  1   force =    -0.01511222    0.00000000    0.00034389
     atom    7 type  2   force =    -0.01490195    0.00000000   -0.00166329
     atom    8 type  1   force =     0.01511222   -0.00000000    0.00034389
     The non-local contrib.  to forces
     atom    1 type  2   force =    -0.10701606    0.00000000    0.11221072
     atom    2 type  1   force =     0.35425916    0.00000000    0.30452978
     atom    3 type  2   force =     0.10701606    0.00000000    0.11221072
     atom    4 type  1   force =    -0.35425916    0.00000000    0.30452978
     atom    5 type  2   force =    -0.10701606    0.00000000   -0.11221072
     atom    6 type  1   force =     0.35425916    0.00000000   -0.30452978
     atom    7 type  2   force =     0.10701606    0.00000000   -0.11221072
     atom    8 type  1   force =    -0.35425916    0.00000000   -0.30452978
     The ionic contribution  to forces
     atom    1 type  2   force =     1.44063210   -0.00000000   -1.15867488
     atom    2 type  1   force =    -0.68125113   -0.00000000   -0.56422414
     atom    3 type  2   force =    -1.44063210    0.00000000   -1.15867488
     atom    4 type  1   force =     0.68125113    0.00000000   -0.56422414
     atom    5 type  2   force =     1.44063210    0.00000000    1.15867488
     atom    6 type  1   force =    -0.68125113   -0.00000000    0.56422414
     atom    7 type  2   force =    -1.44063210    0.00000000    1.15867488
     atom    8 type  1   force =     0.68125113    0.00000000    0.56422414
     The local contribution  to forces
     atom    1 type  2   force =    -1.32930849    0.00000000    1.05922479
     atom    2 type  1   force =     0.31698287    0.00000000    0.26383785
     atom    3 type  2   force =     1.32930849    0.00000000    1.05922479
     atom    4 type  1   force =    -0.31698287    0.00000000    0.26383785
     atom    5 type  2   force =    -1.32930849    0.00000000   -1.05922479
     atom    6 type  1   force =     0.31698287    0.00000000   -0.26383785
     atom    7 type  2   force =     1.32930849    0.00000000   -1.05922479
     atom    8 type  1   force =    -0.31698287    0.00000000   -0.26383785
     The core correction contribution to forces
     atom    1 type  2   force =     0.01149549    0.00000000   -0.01251320
     atom    2 type  1   force =    -0.00441968    0.00000000   -0.00552679
     atom    3 type  2   force =    -0.01149549   -0.00000000   -0.01251320
     atom    4 type  1   force =     0.00441968    0.00000000   -0.00552679
     atom    5 type  2   force =     0.01149549   -0.00000000    0.01251320
     atom    6 type  1   force =    -0.00441968    0.00000000    0.00552679
     atom    7 type  2   force =    -0.01149549   -0.00000000    0.01251320
     atom    8 type  1   force =     0.00441968   -0.00000000    0.00552679
     The Hubbard contrib.    to forces
     atom    1 type  2   force =     0.00000000    0.00000000    0.00000000
     atom    2 type  1   force =     0.00000000    0.00000000    0.00000000
     atom    3 type  2   force =     0.00000000    0.00000000    0.00000000
     atom    4 type  1   force =     0.00000000    0.00000000    0.00000000
     atom    5 type  2   force =     0.00000000    0.00000000    0.00000000
     atom    6 type  1   force =     0.00000000    0.00000000    0.00000000
     atom    7 type  2   force =     0.00000000    0.00000000    0.00000000
     atom    8 type  1   force =     0.00000000    0.00000000    0.00000000
     The SCF correction term to forces
     atom    1 type  2   force =    -0.00000229   -0.00000000    0.00000064
     atom    2 type  1   force =     0.00000930    0.00000000    0.00000289
     atom    3 type  2   force =     0.00000229    0.00000000    0.00000064
     atom    4 type  1   force =    -0.00000930    0.00000000    0.00000289
     atom    5 type  2   force =    -0.00000229   -0.00000000   -0.00000064
     atom    6 type  1   force =     0.00000930    0.00000000   -0.00000289
     atom    7 type  2   force =     0.00000229    0.00000000   -0.00000064
     atom    8 type  1   force =    -0.00000930   -0.00000000   -0.00000289

     DFT-D3 dispersion contribution to forces:
     atom    1 type  2   force =    -0.00089880   -0.00000000    0.00141523
     atom    2 type  1   force =    -0.00069275    0.00000000    0.00103652
     atom    3 type  2   force =     0.00089880    0.00000000    0.00141523
     atom    4 type  1   force =     0.00069275   -0.00000000    0.00103652
     atom    5 type  2   force =    -0.00089880   -0.00000000   -0.00141523
     atom    6 type  1   force =    -0.00069275    0.00000000   -0.00103652
     atom    7 type  2   force =     0.00089880    0.00000000   -0.00141523
     atom    8 type  1   force =     0.00069275   -0.00000000   -0.00103652

     Total force =     0.042583     Total SCF correction =     0.000020

     DFT-D3 dispersion Force =     0.004179

     Writing all to output data dir ./tmp/SnSe_pnma.save/ :
     XML data file, charge density, pseudopotentials, collected wavefunctions
 
     init_run     :      3.12s CPU      3.46s WALL (       1 calls)
     electrons    :     84.33s CPU     88.91s WALL (       1 calls)
     forces       :      1.27s CPU      1.43s WALL (       1 calls)
     force_dftd3  :      0.05s CPU      0.06s WALL (       1 calls)

     Called by init_run:
     wfcinit      :      1.92s CPU      2.01s WALL (       1 calls)
     wfcinit:atom :      0.02s CPU      0.03s WALL (      11 calls)
     wfcinit:wfcr :      1.72s CPU      1.76s WALL (      11 calls)
     potinit      :      0.29s CPU      0.33s WALL (       1 calls)
     hinit0       :      0.29s CPU      0.32s WALL (       1 calls)

     Called by electrons:
     c_bands      :     63.73s CPU     64.27s WALL (      11 calls)
     sum_band     :     14.40s CPU     16.41s WALL (      11 calls)
     v_of_rho     :      2.44s CPU      2.63s WALL (      12 calls)
     v_h          :      0.18s CPU      0.19s WALL (      12 calls)
     v_xc         :      2.44s CPU      2.63s WALL (      13 calls)
     newd         :      3.93s CPU      5.89s WALL (      12 calls)
     mix_rho      :      0.26s CPU      0.28s WALL (      11 calls)
     energy_dftd3 :      0.04s CPU      0.04s WALL (       1 calls)

     Called by c_bands:
     init_us_2    :      1.55s CPU      1.57s WALL (     264 calls)
     cegterg      :     57.62s CPU     57.95s WALL (     121 calls)

     Called by sum_band:
     sum_band:wei :      0.00s CPU      0.00s WALL (      11 calls)
     sum_band:loo :     10.07s CPU     10.14s WALL (      11 calls)
     sum_band:buf :      0.10s CPU      0.10s WALL (     121 calls)
     sum_band:ini :      0.68s CPU      0.68s WALL (     121 calls)
     sum_band:cal :      0.92s CPU      0.93s WALL (     121 calls)
     sum_band:bec :      0.01s CPU      0.01s WALL (     121 calls)
     addusdens    :      3.75s CPU      5.55s WALL (      11 calls)
                                        0.00s GPU  (      11 calls)
     addusd:skk   :      0.03s CPU      0.04s WALL (      22 calls)
                                        0.00s GPU  (      22 calls)

     Called by *egterg:
     cdiaghg      :      0.97s CPU      0.97s WALL (     589 calls)
     cegterg:over :      2.52s CPU      2.54s WALL (     468 calls)
     cegterg:upda :      1.50s CPU      1.51s WALL (     468 calls)
     cegterg:last :      3.98s CPU      3.99s WALL (     345 calls)
     h_psi        :     45.31s CPU     45.60s WALL (     600 calls)
     s_psi        :      3.64s CPU      3.66s WALL (     600 calls)
     g_psi        :      0.15s CPU      0.16s WALL (     468 calls)

     Called by h_psi:
     h_psi:calbec :      3.25s CPU      3.27s WALL (     600 calls)
     vloc_psi     :     38.14s CPU     38.40s WALL (     600 calls)
     add_vuspsi   :      3.62s CPU      3.63s WALL (     600 calls)

     General routines
     calbec       :      4.48s CPU      4.52s WALL (     765 calls)
     fft          :      1.37s CPU      1.43s WALL (     165 calls)
     ffts         :      0.03s CPU      0.04s WALL (      23 calls)
     fftw         :     24.41s CPU     24.55s WALL (   37904 calls)
     interpolate  :      0.14s CPU      0.14s WALL (      12 calls)
 
     Parallel routines
 
     PWSCF        :   1m29.24s CPU   1m35.27s WALL

 
   This run was terminated on:  22:58: 0  19May2026            

=------------------------------------------------------------------------------=
   JOB DONE.
=------------------------------------------------------------------------------=
