
     Program PWSCF v.7.3.1 starts on 20May2026 at 16:26:10 

     This program is part of the open-source Quantum ESPRESSO suite
     for quantum simulation of materials; please cite
         "P. Giannozzi et al., J. Phys.:Condens. Matter 21 395502 (2009);
         "P. Giannozzi et al., J. Phys.:Condens. Matter 29 465901 (2017);
         "P. Giannozzi et al., J. Chem. Phys. 152 154105 (2020);
          URL http://www.quantum-espresso.org", 
     in publications or presentations arising from this work. More details at
     http://www.quantum-espresso.org/quote

     Parallel version (MPI & OpenMP), running on       6 processor cores
     Number of MPI processes:                 6
     Threads/MPI process:                     1

     MPI processes distributed on     1 nodes
     10615 MiB available memory on the printing compute node when the environment starts
 
     Waiting for input...
     Reading input from standard input

     Current dimensions of program PWSCF are:
     Max number of different atomic species (ntypx) = 10
     Max number of k-points (npk) =  40000
     Max angular momentum in pseudopotentials (lmaxx) =  4
 
     K-points division:     npool     =       3
     R & G space division:  proc/nbgrp/npool/nimage =       2
     Subspace diagonalization in iterative solution of the eigenvalue problem:
     a serial algorithm will be used

 
     Parallelization info
     --------------------
     sticks:   dense  smooth     PW     G-vecs:    dense   smooth      PW
     Min        3564    1428    408               145728    36923    5662
     Max        3565    1429    409               145729    36924    5663
     Sum        7129    2857    817               291457    73847   11325
 
     Using Slab Decomposition
 


     bravais-lattice index     =            8
     lattice parameter (alat)  =      22.7523  a.u.
     unit-cell volume          =    1543.9775 (a.u.)^3
     number of atoms/cell      =            8
     number of atomic types    =            2
     number of electrons       =        80.00
     number of Kohn-Sham states=           40
     kinetic-energy cutoff     =      50.0000  Ry
     charge density cutoff     =     500.0000  Ry
     scf convergence threshold =      1.0E-08
     mixing beta               =       0.7000
     number of iterations used =            8  plain     mixing
     Exchange-correlation= SLA  PW   PBE  PBE
                           (   1   4   3   4   0   0   0)

     celldm(1)=  22.752303  celldm(2)=   0.346462  celldm(3)=   0.378364
     celldm(4)=   0.000000  celldm(5)=   0.000000  celldm(6)=   0.000000

     crystal axes: (cart. coord. in units of alat)
               a(1) = (   1.000000   0.000000   0.000000 )  
               a(2) = (   0.000000   0.346462   0.000000 )  
               a(3) = (   0.000000   0.000000   0.378364 )  

     reciprocal axes: (cart. coord. in units 2 pi/alat)
               b(1) = (  1.000000  0.000000  0.000000 )  
               b(2) = (  0.000000  2.886321  0.000000 )  
               b(3) = (  0.000000  0.000000  2.642959 )  


     PseudoPot. # 1 for Sn read from file:
     ../pseudo/Sn_pbe_v1.uspp.F.UPF
     MD5 check sum: 4cf58ce39ec5d5d420df3dd08604eb00
     Pseudo is Ultrasoft + core correction, Zval = 14.0
     Generated by new atomic code, or converted to UPF format
     Using radial grid of  891 points,  6 beta functions with: 
                l(1) =   0
                l(2) =   0
                l(3) =   1
                l(4) =   1
                l(5) =   2
                l(6) =   2
     Q(r) pseudized with  6 coefficients,  rinner =    1.200   1.200   1.200
                                                       1.200   1.200

     PseudoPot. # 2 for Se read from file:
     ../pseudo/Se_pbe_v1.uspp.F.UPF
     MD5 check sum: 1b3568f3a8ae88f9a2a0ad0698632c85
     Pseudo is Ultrasoft + core correction, Zval =  6.0
     Generated by new atomic code, or converted to UPF format
     Using radial grid of  877 points,  6 beta functions with: 
                l(1) =   0
                l(2) =   0
                l(3) =   1
                l(4) =   1
                l(5) =   2
                l(6) =   2
     Q(r) pseudized with  8 coefficients,  rinner =    1.300   1.300   1.300
                                                       1.300   1.300

     atomic species   valence    mass     pseudopotential
     Sn               14.00   118.71000     Sn( 1.00)
     Se                6.00    78.97100     Se( 1.00)

      8 Sym. Ops., with inversion, found ( 6 have fractional translation)


                                    s                        frac. trans.

      isym =  1     identity                                     

 cryst.   s( 1) = (     1          0          0      )
                  (     0          1          0      )
                  (     0          0          1      )

 cart.    s( 1) = (  1.0000000  0.0000000  0.0000000 )
                  (  0.0000000  1.0000000  0.0000000 )
                  (  0.0000000  0.0000000  1.0000000 )


      isym =  2     180 deg rotation - cart. axis [0,0,1]        

 cryst.   s( 2) = (    -1          0          0      )    f =(  0.5000000 )
                  (     0         -1          0      )       (  0.0000000 )
                  (     0          0          1      )       ( -0.5000000 )

 cart.    s( 2) = ( -1.0000000  0.0000000  0.0000000 )    f =(  0.5000000 )
                  (  0.0000000 -1.0000000  0.0000000 )       (  0.0000000 )
                  (  0.0000000  0.0000000  1.0000000 )       ( -0.1891819 )


      isym =  3     180 deg rotation - cart. axis [0,1,0]        

 cryst.   s( 3) = (    -1          0          0      )    f =(  0.0000000 )
                  (     0          1          0      )       ( -0.5000000 )
                  (     0          0         -1      )       (  0.0000000 )

 cart.    s( 3) = ( -1.0000000  0.0000000  0.0000000 )    f =(  0.0000000 )
                  (  0.0000000  1.0000000  0.0000000 )       ( -0.1732309 )
                  (  0.0000000  0.0000000 -1.0000000 )       (  0.0000000 )


      isym =  4     180 deg rotation - cart. axis [1,0,0]        

 cryst.   s( 4) = (     1          0          0      )    f =(  0.5000000 )
                  (     0         -1          0      )       ( -0.5000000 )
                  (     0          0         -1      )       (  0.5000000 )

 cart.    s( 4) = (  1.0000000  0.0000000  0.0000000 )    f =(  0.5000000 )
                  (  0.0000000 -1.0000000  0.0000000 )       ( -0.1732309 )
                  (  0.0000000  0.0000000 -1.0000000 )       (  0.1891819 )


      isym =  5     inversion                                    

 cryst.   s( 5) = (    -1          0          0      )
                  (     0         -1          0      )
                  (     0          0         -1      )

 cart.    s( 5) = ( -1.0000000  0.0000000  0.0000000 )
                  (  0.0000000 -1.0000000  0.0000000 )
                  (  0.0000000  0.0000000 -1.0000000 )


      isym =  6     inv. 180 deg rotation - cart. axis [0,0,1]   

 cryst.   s( 6) = (     1          0          0      )    f =(  0.5000000 )
                  (     0          1          0      )       (  0.0000000 )
                  (     0          0         -1      )       (  0.5000000 )

 cart.    s( 6) = (  1.0000000  0.0000000  0.0000000 )    f =(  0.5000000 )
                  (  0.0000000  1.0000000  0.0000000 )       (  0.0000000 )
                  (  0.0000000  0.0000000 -1.0000000 )       (  0.1891819 )


      isym =  7     inv. 180 deg rotation - cart. axis [0,1,0]   

 cryst.   s( 7) = (     1          0          0      )    f =(  0.0000000 )
                  (     0         -1          0      )       ( -0.5000000 )
                  (     0          0          1      )       (  0.0000000 )

 cart.    s( 7) = (  1.0000000  0.0000000  0.0000000 )    f =(  0.0000000 )
                  (  0.0000000 -1.0000000  0.0000000 )       ( -0.1732309 )
                  (  0.0000000  0.0000000  1.0000000 )       (  0.0000000 )


      isym =  8     inv. 180 deg rotation - cart. axis [1,0,0]   

 cryst.   s( 8) = (    -1          0          0      )    f =(  0.5000000 )
                  (     0          1          0      )       ( -0.5000000 )
                  (     0          0          1      )       ( -0.5000000 )

 cart.    s( 8) = ( -1.0000000  0.0000000  0.0000000 )    f =(  0.5000000 )
                  (  0.0000000  1.0000000  0.0000000 )       ( -0.1732309 )
                  (  0.0000000  0.0000000  1.0000000 )       ( -0.1891819 )


     point group D_2h (mmm) 
     there are  8 classes
     the character table:

       E     C2    C2'   C2''  i     s_v   s_v'  s_v''
A_g    1.00  1.00  1.00  1.00  1.00  1.00  1.00  1.00
B_1g   1.00  1.00 -1.00 -1.00  1.00  1.00 -1.00 -1.00
B_2g   1.00 -1.00  1.00 -1.00  1.00 -1.00  1.00 -1.00
B_3g   1.00 -1.00 -1.00  1.00  1.00 -1.00 -1.00  1.00
A_u    1.00  1.00  1.00  1.00 -1.00 -1.00 -1.00 -1.00
B_1u   1.00  1.00 -1.00 -1.00 -1.00 -1.00  1.00  1.00
B_2u   1.00 -1.00  1.00 -1.00 -1.00  1.00 -1.00  1.00
B_3u   1.00 -1.00 -1.00  1.00 -1.00  1.00  1.00 -1.00

     the symmetry operations in each class and the name of the first element:

     E        1
          identity                                               
     C2       2
          180 deg rotation - cart. axis [0,0,1]                  
     C2'      4
          180 deg rotation - cart. axis [1,0,0]                  
     C2''     3
          180 deg rotation - cart. axis [0,1,0]                  
     i        5
          inversion                                              
     s_v      6
          inv. 180 deg rotation - cart. axis [0,0,1]             
     s_v'     8
          inv. 180 deg rotation - cart. axis [1,0,0]             
     s_v''    7
          inv. 180 deg rotation - cart. axis [0,1,0]             

   Cartesian axes

     site n.     atom                  positions (alat units)
         1        Se     tau(   1) = (   0.8549563   0.0866154   0.1828436  )
         2        Sn     tau(   2) = (   0.1165395   0.0866154   0.0424853  )
         3        Se     tau(   3) = (   0.6450437   0.2598463   0.3720255  )
         4        Sn     tau(   4) = (   0.3834605   0.2598463   0.2316672  )
         5        Se     tau(   5) = (   0.3549563   0.0866154   0.0063383  )
         6        Sn     tau(   6) = (   0.6165395   0.0866154   0.1466966  )
         7        Se     tau(   7) = (   0.1450437   0.2598463   0.1955202  )
         8        Sn     tau(   8) = (   0.8834605   0.2598463   0.3358784  )

     --------------------------------------------
     DFT-D3 Dispersion Correction (3-body terms):
     --------------------------------------------
       Reference C6 values for interpolation: 

         atom   Coordination number   C6
         Se         0.000           427.35
         Se         0.990           427.57
         Se         1.981           421.05
         Sn         0.000          1255.14
         Sn         0.951          1084.09
         Sn         1.950          1010.83
         Sn         2.926           818.29
         Sn         3.912           672.20

       Values used:

         atom   Coordination number  R0_AB[au]  C6      C8
         Se         3.224            3.332    421.05  29958.36
         Sn         3.777            3.957    679.88  85332.93
         Se         3.224            3.332    421.05  29958.36
         Sn         3.777            3.957    679.88  85332.93
         Se         3.224            3.332    421.05  29958.36
         Sn         3.777            3.957    679.88  85332.93
         Se         3.224            3.332    421.05  29958.36
         Sn         3.777            3.957    679.88  85332.93

         Molecular C6 ( Ry / a.u.^6 ) =     34713.87


   Crystallographic axes

     site n.     atom                  positions (cryst. coord.)
         1        Se     tau(   1) = (  0.8549563  0.2500000  0.4832481  )
         2        Sn     tau(   2) = (  0.1165395  0.2500000  0.1122870  )
         3        Se     tau(   3) = (  0.6450437  0.7500000  0.9832481  )
         4        Sn     tau(   4) = (  0.3834605  0.7500000  0.6122870  )
         5        Se     tau(   5) = (  0.3549563  0.2500000  0.0167519  )
         6        Sn     tau(   6) = (  0.6165395  0.2500000  0.3877130  )
         7        Se     tau(   7) = (  0.1450437  0.7500000  0.5167519  )
         8        Sn     tau(   8) = (  0.8834605  0.7500000  0.8877130  )

     number of k points=    32
                       cart. coord. in units 2pi/alat
        k(    1) = (   0.1666667   0.1803951   0.1651849), wk =   0.0833333
        k(    2) = (   0.1666667   0.1803951   0.4955548), wk =   0.0833333
        k(    3) = (   0.1666667   0.1803951   0.8259247), wk =   0.0833333
        k(    4) = (   0.1666667   0.1803951   1.1562946), wk =   0.0833333
        k(    5) = (   0.1666667   0.5411852   0.1651849), wk =   0.0833333
        k(    6) = (   0.1666667   0.5411852   0.4955548), wk =   0.0833333
        k(    7) = (   0.1666667   0.5411852   0.8259247), wk =   0.0833333
        k(    8) = (   0.1666667   0.5411852   1.1562946), wk =   0.0833333
        k(    9) = (   0.1666667   0.9019754   0.1651849), wk =   0.0833333
        k(   10) = (   0.1666667   0.9019754   0.4955548), wk =   0.0833333
        k(   11) = (   0.1666667   0.9019754   0.8259247), wk =   0.0833333
        k(   12) = (   0.1666667   0.9019754   1.1562946), wk =   0.0833333
        k(   13) = (   0.1666667   1.2627655   0.1651849), wk =   0.0833333
        k(   14) = (   0.1666667   1.2627655   0.4955548), wk =   0.0833333
        k(   15) = (   0.1666667   1.2627655   0.8259247), wk =   0.0833333
        k(   16) = (   0.1666667   1.2627655   1.1562946), wk =   0.0833333
        k(   17) = (  -0.5000000   0.1803951   0.1651849), wk =   0.0416667
        k(   18) = (  -0.5000000   0.1803951   0.4955548), wk =   0.0416667
        k(   19) = (  -0.5000000   0.1803951   0.8259247), wk =   0.0416667
        k(   20) = (  -0.5000000   0.1803951   1.1562946), wk =   0.0416667
        k(   21) = (  -0.5000000   0.5411852   0.1651849), wk =   0.0416667
        k(   22) = (  -0.5000000   0.5411852   0.4955548), wk =   0.0416667
        k(   23) = (  -0.5000000   0.5411852   0.8259247), wk =   0.0416667
        k(   24) = (  -0.5000000   0.5411852   1.1562946), wk =   0.0416667
        k(   25) = (  -0.5000000   0.9019754   0.1651849), wk =   0.0416667
        k(   26) = (  -0.5000000   0.9019754   0.4955548), wk =   0.0416667
        k(   27) = (  -0.5000000   0.9019754   0.8259247), wk =   0.0416667
        k(   28) = (  -0.5000000   0.9019754   1.1562946), wk =   0.0416667
        k(   29) = (  -0.5000000   1.2627655   0.1651849), wk =   0.0416667
        k(   30) = (  -0.5000000   1.2627655   0.4955548), wk =   0.0416667
        k(   31) = (  -0.5000000   1.2627655   0.8259247), wk =   0.0416667
        k(   32) = (  -0.5000000   1.2627655   1.1562946), wk =   0.0416667

                       cryst. coord.
        k(    1) = (   0.1666667   0.0625000   0.0625000), wk =   0.0833333
        k(    2) = (   0.1666667   0.0625000   0.1875000), wk =   0.0833333
        k(    3) = (   0.1666667   0.0625000   0.3125000), wk =   0.0833333
        k(    4) = (   0.1666667   0.0625000   0.4375000), wk =   0.0833333
        k(    5) = (   0.1666667   0.1875000   0.0625000), wk =   0.0833333
        k(    6) = (   0.1666667   0.1875000   0.1875000), wk =   0.0833333
        k(    7) = (   0.1666667   0.1875000   0.3125000), wk =   0.0833333
        k(    8) = (   0.1666667   0.1875000   0.4375000), wk =   0.0833333
        k(    9) = (   0.1666667   0.3125000   0.0625000), wk =   0.0833333
        k(   10) = (   0.1666667   0.3125000   0.1875000), wk =   0.0833333
        k(   11) = (   0.1666667   0.3125000   0.3125000), wk =   0.0833333
        k(   12) = (   0.1666667   0.3125000   0.4375000), wk =   0.0833333
        k(   13) = (   0.1666667   0.4375000   0.0625000), wk =   0.0833333
        k(   14) = (   0.1666667   0.4375000   0.1875000), wk =   0.0833333
        k(   15) = (   0.1666667   0.4375000   0.3125000), wk =   0.0833333
        k(   16) = (   0.1666667   0.4375000   0.4375000), wk =   0.0833333
        k(   17) = (  -0.5000000   0.0625000   0.0625000), wk =   0.0416667
        k(   18) = (  -0.5000000   0.0625000   0.1875000), wk =   0.0416667
        k(   19) = (  -0.5000000   0.0625000   0.3125000), wk =   0.0416667
        k(   20) = (  -0.5000000   0.0625000   0.4375000), wk =   0.0416667
        k(   21) = (  -0.5000000   0.1875000   0.0625000), wk =   0.0416667
        k(   22) = (  -0.5000000   0.1875000   0.1875000), wk =   0.0416667
        k(   23) = (  -0.5000000   0.1875000   0.3125000), wk =   0.0416667
        k(   24) = (  -0.5000000   0.1875000   0.4375000), wk =   0.0416667
        k(   25) = (  -0.5000000   0.3125000   0.0625000), wk =   0.0416667
        k(   26) = (  -0.5000000   0.3125000   0.1875000), wk =   0.0416667
        k(   27) = (  -0.5000000   0.3125000   0.3125000), wk =   0.0416667
        k(   28) = (  -0.5000000   0.3125000   0.4375000), wk =   0.0416667
        k(   29) = (  -0.5000000   0.4375000   0.0625000), wk =   0.0416667
        k(   30) = (  -0.5000000   0.4375000   0.1875000), wk =   0.0416667
        k(   31) = (  -0.5000000   0.4375000   0.3125000), wk =   0.0416667
        k(   32) = (  -0.5000000   0.4375000   0.4375000), wk =   0.0416667

     Dense  grid:   291457 G-vectors     FFT dimensions: ( 162,  60,  64)

     Smooth grid:    73847 G-vectors     FFT dimensions: ( 108,  36,  40)

     Dynamical RAM for                 wfc:       2.81 MB

     Dynamical RAM for     wfc (w. buffer):      33.76 MB

     Dynamical RAM for           str. fact:       4.45 MB

     Dynamical RAM for           local pot:       0.00 MB

     Dynamical RAM for          nlocal pot:      10.13 MB

     Dynamical RAM for                qrad:       3.59 MB

     Dynamical RAM for          rho,v,vnew:      13.79 MB

     Dynamical RAM for               rhoin:       4.60 MB

     Dynamical RAM for            rho*nmix:      35.58 MB

     Dynamical RAM for           G-vectors:       8.62 MB

     Dynamical RAM for          h,s,v(r/c):       0.29 MB

     Dynamical RAM for          <psi|beta>:       0.09 MB

     Dynamical RAM for                 psi:       5.63 MB

     Dynamical RAM for                hpsi:       5.63 MB

     Dynamical RAM for                spsi:       5.63 MB

     Dynamical RAM for      wfcinit/wfcrot:       7.38 MB

     Dynamical RAM for           addusdens:     142.31 MB

     Dynamical RAM for          addusforce:     146.40 MB

     Estimated static dynamical RAM per process >      97.46 MB

     Estimated max dynamical RAM per process >     279.45 MB

     Estimated total dynamical RAM >       1.50 GB

     Initial potential from superposition of free atoms

     starting charge      75.9995, renormalised to      80.0000
     Starting wfcs are   52 randomized atomic wfcs

     total cpu time spent up to now is        2.9 secs

     Self-consistent Calculation

     iteration #  1     ecut=    50.00 Ry     beta= 0.70
     Davidson diagonalization with overlap

---- Real-time Memory Report at c_bands before calling an iterative solver
           332 MiB given to the printing process from OS
             0 MiB allocation reported by mallinfo(arena+hblkhd)
          9773 MiB available memory on the node where the printing process lives
------------------
     ethr =  1.00E-02,  avg # of iterations =  2.0

     total cpu time spent up to now is        7.8 secs

     total energy              =    -826.60474664 Ry
     estimated scf accuracy    <       2.72874462 Ry

     iteration #  2     ecut=    50.00 Ry     beta= 0.70
     Davidson diagonalization with overlap

---- Real-time Memory Report at c_bands before calling an iterative solver
           413 MiB given to the printing process from OS
             0 MiB allocation reported by mallinfo(arena+hblkhd)
          9501 MiB available memory on the node where the printing process lives
------------------
     ethr =  3.41E-03,  avg # of iterations =  3.0

     total cpu time spent up to now is       13.2 secs

     total energy              =    -827.50720653 Ry
     estimated scf accuracy    <       1.08662848 Ry

     iteration #  3     ecut=    50.00 Ry     beta= 0.70
     Davidson diagonalization with overlap

---- Real-time Memory Report at c_bands before calling an iterative solver
           443 MiB given to the printing process from OS
             0 MiB allocation reported by mallinfo(arena+hblkhd)
          9373 MiB available memory on the node where the printing process lives
------------------
     ethr =  1.36E-03,  avg # of iterations =  2.8

     total cpu time spent up to now is       18.1 secs

     total energy              =    -827.73137301 Ry
     estimated scf accuracy    <       0.01374715 Ry

     iteration #  4     ecut=    50.00 Ry     beta= 0.70
     Davidson diagonalization with overlap

---- Real-time Memory Report at c_bands before calling an iterative solver
           466 MiB given to the printing process from OS
             0 MiB allocation reported by mallinfo(arena+hblkhd)
          9334 MiB available memory on the node where the printing process lives
------------------
     ethr =  1.72E-05,  avg # of iterations =  4.9

     total cpu time spent up to now is       24.3 secs

     total energy              =    -827.73927198 Ry
     estimated scf accuracy    <       0.00568814 Ry

     iteration #  5     ecut=    50.00 Ry     beta= 0.70
     Davidson diagonalization with overlap

---- Real-time Memory Report at c_bands before calling an iterative solver
           471 MiB given to the printing process from OS
             0 MiB allocation reported by mallinfo(arena+hblkhd)
          9322 MiB available memory on the node where the printing process lives
------------------
     ethr =  7.11E-06,  avg # of iterations =  2.3

     total cpu time spent up to now is       29.0 secs

     total energy              =    -827.74031922 Ry
     estimated scf accuracy    <       0.00063380 Ry

     iteration #  6     ecut=    50.00 Ry     beta= 0.70
     Davidson diagonalization with overlap

---- Real-time Memory Report at c_bands before calling an iterative solver
           471 MiB given to the printing process from OS
             0 MiB allocation reported by mallinfo(arena+hblkhd)
          9320 MiB available memory on the node where the printing process lives
------------------
     ethr =  7.92E-07,  avg # of iterations =  4.3

     total cpu time spent up to now is       34.5 secs

     total energy              =    -827.74040000 Ry
     estimated scf accuracy    <       0.00098687 Ry

     iteration #  7     ecut=    50.00 Ry     beta= 0.70
     Davidson diagonalization with overlap

---- Real-time Memory Report at c_bands before calling an iterative solver
           472 MiB given to the printing process from OS
             0 MiB allocation reported by mallinfo(arena+hblkhd)
          9319 MiB available memory on the node where the printing process lives
------------------
     ethr =  7.92E-07,  avg # of iterations =  2.8

     total cpu time spent up to now is       39.5 secs

     total energy              =    -827.74053670 Ry
     estimated scf accuracy    <       0.00002379 Ry

     iteration #  8     ecut=    50.00 Ry     beta= 0.70
     Davidson diagonalization with overlap

---- Real-time Memory Report at c_bands before calling an iterative solver
           474 MiB given to the printing process from OS
             0 MiB allocation reported by mallinfo(arena+hblkhd)
          9317 MiB available memory on the node where the printing process lives
------------------
     ethr =  2.97E-08,  avg # of iterations =  5.0

     total cpu time spent up to now is       45.5 secs

     total energy              =    -827.74055590 Ry
     estimated scf accuracy    <       0.00002312 Ry

     iteration #  9     ecut=    50.00 Ry     beta= 0.70
     Davidson diagonalization with overlap

---- Real-time Memory Report at c_bands before calling an iterative solver
           477 MiB given to the printing process from OS
             0 MiB allocation reported by mallinfo(arena+hblkhd)
          9310 MiB available memory on the node where the printing process lives
------------------
     ethr =  2.89E-08,  avg # of iterations =  2.0

     total cpu time spent up to now is       50.0 secs

     total energy              =    -827.74055791 Ry
     estimated scf accuracy    <       0.00000176 Ry

     iteration # 10     ecut=    50.00 Ry     beta= 0.70
     Davidson diagonalization with overlap

---- Real-time Memory Report at c_bands before calling an iterative solver
           479 MiB given to the printing process from OS
             0 MiB allocation reported by mallinfo(arena+hblkhd)
          9308 MiB available memory on the node where the printing process lives
------------------
     ethr =  2.19E-09,  avg # of iterations =  5.1

     total cpu time spent up to now is       56.3 secs

     total energy              =    -827.74055906 Ry
     estimated scf accuracy    <       0.00000022 Ry

     iteration # 11     ecut=    50.00 Ry     beta= 0.70
     Davidson diagonalization with overlap

---- Real-time Memory Report at c_bands before calling an iterative solver
           481 MiB given to the printing process from OS
             0 MiB allocation reported by mallinfo(arena+hblkhd)
          9308 MiB available memory on the node where the printing process lives
------------------
     ethr =  2.71E-10,  avg # of iterations =  4.0

     total cpu time spent up to now is       62.1 secs

     total energy              =    -827.74055908 Ry
     estimated scf accuracy    <       0.00000009 Ry

     iteration # 12     ecut=    50.00 Ry     beta= 0.70
     Davidson diagonalization with overlap

---- Real-time Memory Report at c_bands before calling an iterative solver
           483 MiB given to the printing process from OS
             0 MiB allocation reported by mallinfo(arena+hblkhd)
          9303 MiB available memory on the node where the printing process lives
------------------
     ethr =  1.19E-10,  avg # of iterations =  3.2

     total cpu time spent up to now is       67.0 secs

     End of self-consistent calculation

          k = 0.1667 0.1804 0.1652 (  9210 PWs)   bands (ev):

   -14.2999 -14.2922 -14.2882 -14.2842 -14.2808 -14.2800 -14.2791 -14.2788
   -14.2702 -14.2632 -14.2620 -14.2615 -14.2587 -14.2548 -14.2418 -14.2377
   -14.2343 -14.2310 -14.2273 -14.2237  -6.2608  -6.0274  -5.4470  -5.1403
     0.1097   0.8395   1.5020   1.9302   2.7250   3.8789   4.0503   4.2752
     4.4881   4.5459   5.0250   5.2872   5.4937   5.7645   6.3728   6.6565

     occupation numbers 
     1.0000   1.0000   1.0000   1.0000   1.0000   1.0000   1.0000   1.0000
     1.0000   1.0000   1.0000   1.0000   1.0000   1.0000   1.0000   1.0000
     1.0000   1.0000   1.0000   1.0000   1.0000   1.0000   1.0000   1.0000
     1.0000   1.0000   1.0000   1.0000   1.0000   1.0000   1.0000   1.0000
     1.0000   1.0000   1.0000   1.0000   1.0000   1.0000   1.0000   1.0000

          k = 0.1667 0.1804 0.4956 (  9207 PWs)   bands (ev):

   -14.2989 -14.2920 -14.2883 -14.2845 -14.2810 -14.2807 -14.2798 -14.2791
   -14.2685 -14.2626 -14.2623 -14.2616 -14.2571 -14.2533 -14.2420 -14.2384
   -14.2340 -14.2312 -14.2271 -14.2241  -6.1528  -5.9289  -5.4326  -5.1547
    -0.2167   0.5367   1.0419   1.5643   2.8030   3.9468   4.1554   4.5633
     4.8153   5.0458   5.0708   5.3898   5.8523   6.1583   6.3038   6.6130

     occupation numbers 
     1.0000   1.0000   1.0000   1.0000   1.0000   1.0000   1.0000   1.0000
     1.0000   1.0000   1.0000   1.0000   1.0000   1.0000   1.0000   1.0000
     1.0000   1.0000   1.0000   1.0000   1.0000   1.0000   1.0000   1.0000
     1.0000   1.0000   1.0000   1.0000   1.0000   1.0000   1.0000   1.0000
     1.0000   1.0000   1.0000   1.0000   1.0000   1.0000   1.0000   1.0000

          k = 0.1667 0.1804 0.8259 (  9204 PWs)   bands (ev):

   -14.2971 -14.2921 -14.2883 -14.2853 -14.2820 -14.2814 -14.2803 -14.2794
   -14.2659 -14.2629 -14.2627 -14.2610 -14.2541 -14.2514 -14.2421 -14.2396
   -14.2333 -14.2315 -14.2268 -14.2248  -5.9616  -5.7556  -5.4416  -5.2095
    -0.5562   0.0229   0.6160   1.0646   3.0968   4.1791   4.3896   4.9065
     4.9678   5.2004   5.3937   5.6129   6.0055   6.4480   6.5034   6.8556

     occupation numbers 
     1.0000   1.0000   1.0000   1.0000   1.0000   1.0000   1.0000   1.0000
     1.0000   1.0000   1.0000   1.0000   1.0000   1.0000   1.0000   1.0000
     1.0000   1.0000   1.0000   1.0000   1.0000   1.0000   1.0000   1.0000
     1.0000   1.0000   1.0000   1.0000   1.0000   1.0000   1.0000   1.0000
     1.0000   1.0000   1.0000   1.0000   1.0000   1.0000   1.0000   1.0000

          k = 0.1667 0.1804 1.1563 (  9212 PWs)   bands (ev):

   -14.2950 -14.2931 -14.2877 -14.2866 -14.2826 -14.2824 -14.2801 -14.2798
   -14.2642 -14.2636 -14.2620 -14.2610 -14.2514 -14.2505 -14.2417 -14.2408
   -14.2326 -14.2319 -14.2263 -14.2256  -5.7409  -5.5984  -5.4798  -5.3313
    -0.6630  -0.4486   0.4820   0.6531   3.5692   4.0862   4.7383   4.9470
     5.1359   5.2217   5.3908   5.7209   6.2920   6.6472   6.7823   6.8678

     occupation numbers 
     1.0000   1.0000   1.0000   1.0000   1.0000   1.0000   1.0000   1.0000
     1.0000   1.0000   1.0000   1.0000   1.0000   1.0000   1.0000   1.0000
     1.0000   1.0000   1.0000   1.0000   1.0000   1.0000   1.0000   1.0000
     1.0000   1.0000   1.0000   1.0000   1.0000   1.0000   1.0000   1.0000
     1.0000   1.0000   1.0000   1.0000   1.0000   1.0000   1.0000   1.0000

          k = 0.1667 0.5412 0.1652 (  9216 PWs)   bands (ev):

   -14.2946 -14.2892 -14.2850 -14.2835 -14.2821 -14.2815 -14.2800 -14.2793
   -14.2705 -14.2664 -14.2662 -14.2630 -14.2559 -14.2517 -14.2390 -14.2365
   -14.2348 -14.2340 -14.2268 -14.2241  -6.1077  -5.8935  -5.3720  -5.1118
    -0.0609   0.5607   1.1875   1.3336   2.8374   3.7867   4.0525   4.2937
     4.6253   4.8728   5.0254   5.3090   5.6352   6.1686   6.4129   6.5342

     occupation numbers 
     1.0000   1.0000   1.0000   1.0000   1.0000   1.0000   1.0000   1.0000
     1.0000   1.0000   1.0000   1.0000   1.0000   1.0000   1.0000   1.0000
     1.0000   1.0000   1.0000   1.0000   1.0000   1.0000   1.0000   1.0000
     1.0000   1.0000   1.0000   1.0000   1.0000   1.0000   1.0000   1.0000
     1.0000   1.0000   1.0000   1.0000   1.0000   1.0000   1.0000   1.0000

          k = 0.1667 0.5412 0.4956 (  9211 PWs)   bands (ev):

   -14.2941 -14.2891 -14.2856 -14.2849 -14.2824 -14.2818 -14.2799 -14.2795
   -14.2698 -14.2666 -14.2655 -14.2623 -14.2543 -14.2506 -14.2392 -14.2363
   -14.2353 -14.2340 -14.2267 -14.2244  -6.0054  -5.8009  -5.3564  -5.1197
    -0.2264   0.4626   0.8857   1.2309   2.9675   3.3909   3.6326   4.2849
     4.4941   5.0163   5.4025   5.4826   6.1146   6.2212   6.4419   6.6088

     occupation numbers 
     1.0000   1.0000   1.0000   1.0000   1.0000   1.0000   1.0000   1.0000
     1.0000   1.0000   1.0000   1.0000   1.0000   1.0000   1.0000   1.0000
     1.0000   1.0000   1.0000   1.0000   1.0000   1.0000   1.0000   1.0000
     1.0000   1.0000   1.0000   1.0000   1.0000   1.0000   1.0000   1.0000
     1.0000   1.0000   1.0000   1.0000   1.0000   1.0000   1.0000   1.0000

          k = 0.1667 0.5412 0.8259 (  9205 PWs)   bands (ev):

   -14.2932 -14.2889 -14.2875 -14.2862 -14.2829 -14.2825 -14.2801 -14.2798
   -14.2688 -14.2671 -14.2640 -14.2615 -14.2516 -14.2490 -14.2393 -14.2371
   -14.2350 -14.2339 -14.2264 -14.2249  -5.8262  -5.6399  -5.3603  -5.1605
    -0.4258   0.1229   0.6448   0.9903   3.2235   3.3415   3.5803   4.2461
     4.3258   5.1007   5.2142   5.7698   5.9693   6.1819   6.3599   6.5747

     occupation numbers 
     1.0000   1.0000   1.0000   1.0000   1.0000   1.0000   1.0000   1.0000
     1.0000   1.0000   1.0000   1.0000   1.0000   1.0000   1.0000   1.0000
     1.0000   1.0000   1.0000   1.0000   1.0000   1.0000   1.0000   1.0000
     1.0000   1.0000   1.0000   1.0000   1.0000   1.0000   1.0000   1.0000
     1.0000   1.0000   1.0000   1.0000   1.0000   1.0000   1.0000   1.0000

          k = 0.1667 0.5412 1.1563 (  9209 PWs)   bands (ev):

   -14.2919 -14.2899 -14.2883 -14.2873 -14.2832 -14.2830 -14.2803 -14.2801
   -14.2682 -14.2677 -14.2624 -14.2615 -14.2491 -14.2482 -14.2390 -14.2382
   -14.2344 -14.2340 -14.2260 -14.2254  -5.6232  -5.4958  -5.3910  -5.2613
    -0.4753  -0.2742   0.5955   0.7297   3.5314   3.5838   3.8128   4.0559
     4.2963   4.6565   5.2571   5.5446   5.8407   6.0653   6.2814   6.4502

     occupation numbers 
     1.0000   1.0000   1.0000   1.0000   1.0000   1.0000   1.0000   1.0000
     1.0000   1.0000   1.0000   1.0000   1.0000   1.0000   1.0000   1.0000
     1.0000   1.0000   1.0000   1.0000   1.0000   1.0000   1.0000   1.0000
     1.0000   1.0000   1.0000   1.0000   1.0000   1.0000   1.0000   1.0000
     1.0000   1.0000   1.0000   1.0000   1.0000   1.0000   1.0000   1.0000

          k = 0.1667 0.9020 0.1652 (  9231 PWs)   bands (ev):

   -14.2893 -14.2874 -14.2853 -14.2849 -14.2839 -14.2796 -14.2775 -14.2770
   -14.2720 -14.2702 -14.2695 -14.2645 -14.2524 -14.2487 -14.2395 -14.2395
   -14.2342 -14.2314 -14.2255 -14.2244  -5.8334  -5.6639  -5.2811  -5.1167
    -0.3033   0.1802   0.5226   0.7043   3.1681   3.9101   4.2524   4.5015
     4.9267   5.0003   5.1945   5.3736   5.7993   6.2166   6.2947   6.5872

     occupation numbers 
     1.0000   1.0000   1.0000   1.0000   1.0000   1.0000   1.0000   1.0000
     1.0000   1.0000   1.0000   1.0000   1.0000   1.0000   1.0000   1.0000
     1.0000   1.0000   1.0000   1.0000   1.0000   1.0000   1.0000   1.0000
     1.0000   1.0000   1.0000   1.0000   1.0000   1.0000   1.0000   1.0000
     1.0000   1.0000   1.0000   1.0000   1.0000   1.0000   1.0000   1.0000

          k = 0.1667 0.9020 0.4956 (  9223 PWs)   bands (ev):

   -14.2913 -14.2881 -14.2863 -14.2854 -14.2845 -14.2800 -14.2774 -14.2767
   -14.2718 -14.2703 -14.2679 -14.2639 -14.2510 -14.2478 -14.2391 -14.2390
   -14.2343 -14.2320 -14.2255 -14.2245  -5.7444  -5.5846  -5.2603  -5.1088
    -0.2682   0.2695   0.5336   0.6896   3.1661   3.2890   3.5763   4.0590
     4.4674   5.0662   5.2436   5.5922   5.7279   5.9114   6.2080   6.3995

     occupation numbers 
     1.0000   1.0000   1.0000   1.0000   1.0000   1.0000   1.0000   1.0000
     1.0000   1.0000   1.0000   1.0000   1.0000   1.0000   1.0000   1.0000
     1.0000   1.0000   1.0000   1.0000   1.0000   1.0000   1.0000   1.0000
     1.0000   1.0000   1.0000   1.0000   1.0000   1.0000   1.0000   1.0000
     1.0000   1.0000   1.0000   1.0000   1.0000   1.0000   1.0000   1.0000

          k = 0.1667 0.9020 0.8259 (  9223 PWs)   bands (ev):

   -14.2931 -14.2907 -14.2876 -14.2870 -14.2840 -14.2807 -14.2774 -14.2768
   -14.2710 -14.2703 -14.2660 -14.2634 -14.2487 -14.2465 -14.2383 -14.2382
   -14.2343 -14.2328 -14.2254 -14.2247  -5.5928  -5.4508  -5.2489  -5.1169
    -0.2211   0.2362   0.5758   0.7340   2.7694   3.0683   3.5165   3.7086
     3.9181   4.6408   4.9353   5.2266   5.5116   5.6378   5.8245   6.3056

     occupation numbers 
     1.0000   1.0000   1.0000   1.0000   1.0000   1.0000   1.0000   1.0000
     1.0000   1.0000   1.0000   1.0000   1.0000   1.0000   1.0000   1.0000
     1.0000   1.0000   1.0000   1.0000   1.0000   1.0000   1.0000   1.0000
     1.0000   1.0000   1.0000   1.0000   1.0000   1.0000   1.0000   1.0000
     1.0000   1.0000   1.0000   1.0000   1.0000   1.0000   1.0000   1.0000

          k = 0.1667 0.9020 1.1563 (  9215 PWs)   bands (ev):

   -14.2939 -14.2930 -14.2885 -14.2883 -14.2830 -14.2818 -14.2774 -14.2771
   -14.2704 -14.2702 -14.2644 -14.2635 -14.2466 -14.2459 -14.2376 -14.2376
   -14.2340 -14.2335 -14.2252 -14.2249  -5.4298  -5.3356  -5.2609  -5.1716
    -0.1430   0.0228   0.6970   0.7532   2.7763   3.0955   3.1302   3.4864
     3.9243   4.3372   4.5616   4.9680   5.1135   5.3366   5.8621   6.0233

     occupation numbers 
     1.0000   1.0000   1.0000   1.0000   1.0000   1.0000   1.0000   1.0000
     1.0000   1.0000   1.0000   1.0000   1.0000   1.0000   1.0000   1.0000
     1.0000   1.0000   1.0000   1.0000   1.0000   1.0000   1.0000   1.0000
     1.0000   1.0000   1.0000   1.0000   1.0000   1.0000   1.0000   1.0000
     1.0000   1.0000   1.0000   1.0000   1.0000   1.0000   1.0000   1.0000

          k = 0.1667 1.2628 0.1652 (  9245 PWs)   bands (ev):

   -14.2898 -14.2884 -14.2875 -14.2866 -14.2796 -14.2769 -14.2758 -14.2748
   -14.2729 -14.2716 -14.2699 -14.2672 -14.2489 -14.2461 -14.2446 -14.2430
   -14.2292 -14.2276 -14.2257 -14.2253  -5.5092  -5.4215  -5.2763  -5.2425
    -0.3825  -0.1039   0.0211   0.2275   3.6921   4.1498   4.4757   4.7317
     4.9038   4.9842   5.3346   5.5510   5.9332   6.0633   6.1521   6.2898

     occupation numbers 
     1.0000   1.0000   1.0000   1.0000   1.0000   1.0000   1.0000   1.0000
     1.0000   1.0000   1.0000   1.0000   1.0000   1.0000   1.0000   1.0000
     1.0000   1.0000   1.0000   1.0000   1.0000   1.0000   1.0000   1.0000
     1.0000   1.0000   1.0000   1.0000   1.0000   1.0000   1.0000   1.0000
     1.0000   1.0000   1.0000   1.0000   1.0000   1.0000   1.0000   1.0000

          k = 0.1667 1.2628 0.4956 (  9233 PWs)   bands (ev):

   -14.2918 -14.2902 -14.2893 -14.2883 -14.2796 -14.2771 -14.2757 -14.2749
   -14.2720 -14.2713 -14.2687 -14.2666 -14.2479 -14.2459 -14.2430 -14.2421
   -14.2294 -14.2280 -14.2255 -14.2253  -5.4435  -5.3633  -5.2410  -5.2073
    -0.2384   0.0339   0.1585   0.3033   3.4395   3.6466   3.8748   4.1695
     4.2389   4.7403   5.0846   5.2566   5.3739   5.6619   5.9635   6.2728

     occupation numbers 
     1.0000   1.0000   1.0000   1.0000   1.0000   1.0000   1.0000   1.0000
     1.0000   1.0000   1.0000   1.0000   1.0000   1.0000   1.0000   1.0000
     1.0000   1.0000   1.0000   1.0000   1.0000   1.0000   1.0000   1.0000
     1.0000   1.0000   1.0000   1.0000   1.0000   1.0000   1.0000   1.0000
     1.0000   1.0000   1.0000   1.0000   1.0000   1.0000   1.0000   1.0000

          k = 0.1667 1.2628 0.8259 (  9221 PWs)   bands (ev):

   -14.2943 -14.2930 -14.2915 -14.2908 -14.2795 -14.2777 -14.2756 -14.2750
   -14.2710 -14.2707 -14.2674 -14.2660 -14.2463 -14.2452 -14.2411 -14.2407
   -14.2295 -14.2286 -14.2254 -14.2253  -5.3388  -5.2722  -5.1969  -5.1623
     0.0038   0.2431   0.3822   0.4326   2.7901   3.2073   3.2992   3.7123
     3.7613   4.1988   4.3912   4.8595   4.9371   5.2321   5.8190   5.9783

     occupation numbers 
     1.0000   1.0000   1.0000   1.0000   1.0000   1.0000   1.0000   1.0000
     1.0000   1.0000   1.0000   1.0000   1.0000   1.0000   1.0000   1.0000
     1.0000   1.0000   1.0000   1.0000   1.0000   1.0000   1.0000   1.0000
     1.0000   1.0000   1.0000   1.0000   1.0000   1.0000   1.0000   1.0000
     1.0000   1.0000   1.0000   1.0000   1.0000   1.0000   1.0000   1.0000

          k = 0.1667 1.2628 1.1563 (  9212 PWs)   bands (ev):

   -14.2958 -14.2953 -14.2928 -14.2926 -14.2791 -14.2785 -14.2754 -14.2752
   -14.2704 -14.2703 -14.2664 -14.2659 -14.2449 -14.2445 -14.2398 -14.2396
   -14.2294 -14.2291 -14.2253 -14.2253  -5.2410  -5.2013  -5.1736  -5.1453
     0.2336   0.3306   0.5778   0.5994   2.5254   2.7220   3.0526   3.2705
     3.5022   3.6482   4.0758   4.3726   4.9339   5.1343   5.7440   5.7800

     occupation numbers 
     1.0000   1.0000   1.0000   1.0000   1.0000   1.0000   1.0000   1.0000
     1.0000   1.0000   1.0000   1.0000   1.0000   1.0000   1.0000   1.0000
     1.0000   1.0000   1.0000   1.0000   1.0000   1.0000   1.0000   1.0000
     1.0000   1.0000   1.0000   1.0000   1.0000   1.0000   1.0000   1.0000
     1.0000   1.0000   1.0000   1.0000   1.0000   1.0000   1.0000   1.0000

          k =-0.5000 0.1804 0.1652 (  9192 PWs)   bands (ev):

   -14.2968 -14.2968 -14.2856 -14.2856 -14.2800 -14.2800 -14.2794 -14.2794
   -14.2669 -14.2669 -14.2619 -14.2619 -14.2562 -14.2562 -14.2400 -14.2400
   -14.2323 -14.2323 -14.2254 -14.2254  -6.1642  -6.1642  -5.2736  -5.2736
     0.3663   0.3663   1.8222   1.8222   3.2796   3.2796   4.1923   4.1923
     4.5671   4.5671   5.0986   5.0986   5.4322   5.4322   6.5533   6.5533

     occupation numbers 
     1.0000   1.0000   1.0000   1.0000   1.0000   1.0000   1.0000   1.0000
     1.0000   1.0000   1.0000   1.0000   1.0000   1.0000   1.0000   1.0000
     1.0000   1.0000   1.0000   1.0000   1.0000   1.0000   1.0000   1.0000
     1.0000   1.0000   1.0000   1.0000   1.0000   1.0000   1.0000   1.0000
     1.0000   1.0000   1.0000   1.0000   1.0000   1.0000   1.0000   1.0000

          k =-0.5000 0.1804 0.4956 (  9208 PWs)   bands (ev):

   -14.2961 -14.2961 -14.2858 -14.2858 -14.2805 -14.2805 -14.2798 -14.2798
   -14.2655 -14.2655 -14.2623 -14.2623 -14.2548 -14.2548 -14.2403 -14.2403
   -14.2324 -14.2324 -14.2256 -14.2256  -6.0609  -6.0609  -5.2735  -5.2735
     0.0545   0.0545   1.3806   1.3806   3.4520   3.4520   4.2407   4.2407
     4.9113   4.9113   5.2591   5.2591   5.9241   5.9241   6.4282   6.4282

     occupation numbers 
     1.0000   1.0000   1.0000   1.0000   1.0000   1.0000   1.0000   1.0000
     1.0000   1.0000   1.0000   1.0000   1.0000   1.0000   1.0000   1.0000
     1.0000   1.0000   1.0000   1.0000   1.0000   1.0000   1.0000   1.0000
     1.0000   1.0000   1.0000   1.0000   1.0000   1.0000   1.0000   1.0000
     1.0000   1.0000   1.0000   1.0000   1.0000   1.0000   1.0000   1.0000

          k =-0.5000 0.1804 0.8259 (  9210 PWs)   bands (ev):

   -14.2950 -14.2950 -14.2865 -14.2865 -14.2815 -14.2815 -14.2801 -14.2801
   -14.2636 -14.2636 -14.2628 -14.2628 -14.2526 -14.2526 -14.2408 -14.2408
   -14.2324 -14.2324 -14.2257 -14.2257  -5.8801  -5.8801  -5.3041  -5.3041
    -0.3160  -0.3160   0.8523   0.8523   3.7583   3.7583   4.5143   4.5143
     5.0496   5.0496   5.5129   5.5129   6.1419   6.1419   6.6513   6.6513

     occupation numbers 
     1.0000   1.0000   1.0000   1.0000   1.0000   1.0000   1.0000   1.0000
     1.0000   1.0000   1.0000   1.0000   1.0000   1.0000   1.0000   1.0000
     1.0000   1.0000   1.0000   1.0000   1.0000   1.0000   1.0000   1.0000
     1.0000   1.0000   1.0000   1.0000   1.0000   1.0000   1.0000   1.0000
     1.0000   1.0000   1.0000   1.0000   1.0000   1.0000   1.0000   1.0000

          k =-0.5000 0.1804 1.1563 (  9224 PWs)   bands (ev):

   -14.2941 -14.2941 -14.2872 -14.2872 -14.2821 -14.2821 -14.2804 -14.2804
   -14.2634 -14.2634 -14.2620 -14.2620 -14.2510 -14.2510 -14.2412 -14.2412
   -14.2324 -14.2324 -14.2259 -14.2259  -5.6877  -5.6877  -5.3878  -5.3878
    -0.5362  -0.5362   0.5094   0.5094   4.1686   4.1686   4.8139   4.8139
     4.8833   4.8833   5.3505   5.3505   6.5523   6.5523   6.8204   6.8204

     occupation numbers 
     1.0000   1.0000   1.0000   1.0000   1.0000   1.0000   1.0000   1.0000
     1.0000   1.0000   1.0000   1.0000   1.0000   1.0000   1.0000   1.0000
     1.0000   1.0000   1.0000   1.0000   1.0000   1.0000   1.0000   1.0000
     1.0000   1.0000   1.0000   1.0000   1.0000   1.0000   1.0000   1.0000
     1.0000   1.0000   1.0000   1.0000   1.0000   1.0000   1.0000   1.0000

          k =-0.5000 0.5412 0.1652 (  9220 PWs)   bands (ev):

   -14.2923 -14.2923 -14.2839 -14.2839 -14.2817 -14.2817 -14.2799 -14.2799
   -14.2670 -14.2670 -14.2662 -14.2662 -14.2534 -14.2534 -14.2377 -14.2377
   -14.2345 -14.2345 -14.2254 -14.2254  -6.0186  -6.0186  -5.2237  -5.2237
     0.1738   0.1738   1.3183   1.3183   3.4079   3.4079   4.0535   4.0535
     4.8721   4.8721   5.0397   5.0397   5.7153   5.7153   6.5631   6.5631

     occupation numbers 
     1.0000   1.0000   1.0000   1.0000   1.0000   1.0000   1.0000   1.0000
     1.0000   1.0000   1.0000   1.0000   1.0000   1.0000   1.0000   1.0000
     1.0000   1.0000   1.0000   1.0000   1.0000   1.0000   1.0000   1.0000
     1.0000   1.0000   1.0000   1.0000   1.0000   1.0000   1.0000   1.0000
     1.0000   1.0000   1.0000   1.0000   1.0000   1.0000   1.0000   1.0000

          k =-0.5000 0.5412 0.4956 (  9198 PWs)   bands (ev):

   -14.2920 -14.2920 -14.2850 -14.2850 -14.2820 -14.2820 -14.2799 -14.2799
   -14.2667 -14.2667 -14.2655 -14.2655 -14.2521 -14.2521 -14.2379 -14.2379
   -14.2346 -14.2346 -14.2254 -14.2254  -5.9210  -5.9210  -5.2200  -5.2200
     0.0292   0.0292   1.1218   1.1218   3.3816   3.3816   3.8538   3.8538
     4.5027   4.5027   5.5538   5.5538   6.1224   6.1224   6.5254   6.5254

     occupation numbers 
     1.0000   1.0000   1.0000   1.0000   1.0000   1.0000   1.0000   1.0000
     1.0000   1.0000   1.0000   1.0000   1.0000   1.0000   1.0000   1.0000
     1.0000   1.0000   1.0000   1.0000   1.0000   1.0000   1.0000   1.0000
     1.0000   1.0000   1.0000   1.0000   1.0000   1.0000   1.0000   1.0000
     1.0000   1.0000   1.0000   1.0000   1.0000   1.0000   1.0000   1.0000

          k =-0.5000 0.5412 0.8259 (  9196 PWs)   bands (ev):

   -14.2914 -14.2914 -14.2869 -14.2869 -14.2826 -14.2826 -14.2799 -14.2799
   -14.2668 -14.2668 -14.2640 -14.2640 -14.2501 -14.2501 -14.2381 -14.2381
   -14.2347 -14.2347 -14.2255 -14.2255  -5.7521  -5.7521  -5.2413  -5.2413
    -0.1963  -0.1963   0.8333   0.8333   3.3809   3.3809   4.0222   4.0222
     4.3809   4.3809   5.5717   5.5717   5.9902   5.9902   6.4906   6.4906

     occupation numbers 
     1.0000   1.0000   1.0000   1.0000   1.0000   1.0000   1.0000   1.0000
     1.0000   1.0000   1.0000   1.0000   1.0000   1.0000   1.0000   1.0000
     1.0000   1.0000   1.0000   1.0000   1.0000   1.0000   1.0000   1.0000
     1.0000   1.0000   1.0000   1.0000   1.0000   1.0000   1.0000   1.0000
     1.0000   1.0000   1.0000   1.0000   1.0000   1.0000   1.0000   1.0000

          k =-0.5000 0.5412 1.1563 (  9224 PWs)   bands (ev):

   -14.2904 -14.2904 -14.2888 -14.2888 -14.2830 -14.2830 -14.2799 -14.2799
   -14.2670 -14.2670 -14.2630 -14.2630 -14.2485 -14.2485 -14.2384 -14.2384
   -14.2347 -14.2347 -14.2255 -14.2255  -5.5755  -5.5755  -5.3104  -5.3104
    -0.3579  -0.3579   0.6159   0.6159   3.6157   3.6157   3.9796   3.9796
     4.6437   4.6437   5.1420   5.1420   5.8199   5.8199   6.2985   6.2985

     occupation numbers 
     1.0000   1.0000   1.0000   1.0000   1.0000   1.0000   1.0000   1.0000
     1.0000   1.0000   1.0000   1.0000   1.0000   1.0000   1.0000   1.0000
     1.0000   1.0000   1.0000   1.0000   1.0000   1.0000   1.0000   1.0000
     1.0000   1.0000   1.0000   1.0000   1.0000   1.0000   1.0000   1.0000
     1.0000   1.0000   1.0000   1.0000   1.0000   1.0000   1.0000   1.0000

          k =-0.5000 0.9020 0.1652 (  9230 PWs)   bands (ev):

   -14.2887 -14.2887 -14.2847 -14.2847 -14.2819 -14.2819 -14.2776 -14.2776
   -14.2702 -14.2702 -14.2676 -14.2676 -14.2503 -14.2503 -14.2396 -14.2396
   -14.2328 -14.2328 -14.2249 -14.2249  -5.7619  -5.7619  -5.1854  -5.1854
    -0.1010  -0.1010   0.6274   0.6274   3.6989   3.6989   4.2282   4.2282
     5.0393   5.0393   5.2443   5.2443   5.7763   5.7763   6.4616   6.4616

     occupation numbers 
     1.0000   1.0000   1.0000   1.0000   1.0000   1.0000   1.0000   1.0000
     1.0000   1.0000   1.0000   1.0000   1.0000   1.0000   1.0000   1.0000
     1.0000   1.0000   1.0000   1.0000   1.0000   1.0000   1.0000   1.0000
     1.0000   1.0000   1.0000   1.0000   1.0000   1.0000   1.0000   1.0000
     1.0000   1.0000   1.0000   1.0000   1.0000   1.0000   1.0000   1.0000

          k =-0.5000 0.9020 0.4956 (  9230 PWs)   bands (ev):

   -14.2900 -14.2900 -14.2858 -14.2858 -14.2822 -14.2822 -14.2772 -14.2772
   -14.2699 -14.2699 -14.2669 -14.2669 -14.2491 -14.2491 -14.2392 -14.2392
   -14.2331 -14.2331 -14.2249 -14.2249  -5.6775  -5.6775  -5.1713  -5.1713
    -0.0508  -0.0508   0.6402   0.6402   3.2867   3.2867   3.9825   3.9825
     4.4467   4.4467   5.4952   5.4952   5.6824   5.6824   6.3599   6.3599

     occupation numbers 
     1.0000   1.0000   1.0000   1.0000   1.0000   1.0000   1.0000   1.0000
     1.0000   1.0000   1.0000   1.0000   1.0000   1.0000   1.0000   1.0000
     1.0000   1.0000   1.0000   1.0000   1.0000   1.0000   1.0000   1.0000
     1.0000   1.0000   1.0000   1.0000   1.0000   1.0000   1.0000   1.0000
     1.0000   1.0000   1.0000   1.0000   1.0000   1.0000   1.0000   1.0000

          k =-0.5000 0.9020 0.8259 (  9226 PWs)   bands (ev):

   -14.2918 -14.2918 -14.2875 -14.2875 -14.2827 -14.2827 -14.2769 -14.2769
   -14.2696 -14.2696 -14.2658 -14.2658 -14.2472 -14.2472 -14.2386 -14.2386
   -14.2335 -14.2335 -14.2250 -14.2250  -5.5355  -5.5355  -5.1692  -5.1692
    -0.0237  -0.0237   0.6673   0.6673   2.9246   2.9246   3.6555   3.6555
     4.3245   4.3245   4.9631   4.9631   5.4388   5.4388   6.1401   6.1401

     occupation numbers 
     1.0000   1.0000   1.0000   1.0000   1.0000   1.0000   1.0000   1.0000
     1.0000   1.0000   1.0000   1.0000   1.0000   1.0000   1.0000   1.0000
     1.0000   1.0000   1.0000   1.0000   1.0000   1.0000   1.0000   1.0000
     1.0000   1.0000   1.0000   1.0000   1.0000   1.0000   1.0000   1.0000
     1.0000   1.0000   1.0000   1.0000   1.0000   1.0000   1.0000   1.0000

          k =-0.5000 0.9020 1.1563 (  9214 PWs)   bands (ev):

   -14.2931 -14.2931 -14.2888 -14.2888 -14.2829 -14.2829 -14.2767 -14.2767
   -14.2695 -14.2695 -14.2650 -14.2650 -14.2457 -14.2457 -14.2380 -14.2380
   -14.2337 -14.2337 -14.2249 -14.2249  -5.3941  -5.3941  -5.2049  -5.2049
    -0.0492  -0.0492   0.7000   0.7000   2.9317   2.9317   3.2634   3.2634
     4.3081   4.3081   4.6403   4.6403   5.3145   5.3145   5.7774   5.7774

     occupation numbers 
     1.0000   1.0000   1.0000   1.0000   1.0000   1.0000   1.0000   1.0000
     1.0000   1.0000   1.0000   1.0000   1.0000   1.0000   1.0000   1.0000
     1.0000   1.0000   1.0000   1.0000   1.0000   1.0000   1.0000   1.0000
     1.0000   1.0000   1.0000   1.0000   1.0000   1.0000   1.0000   1.0000
     1.0000   1.0000   1.0000   1.0000   1.0000   1.0000   1.0000   1.0000

          k =-0.5000 1.2628 0.1652 (  9218 PWs)   bands (ev):

   -14.2888 -14.2888 -14.2875 -14.2875 -14.2776 -14.2776 -14.2764 -14.2764
   -14.2710 -14.2710 -14.2692 -14.2692 -14.2473 -14.2473 -14.2439 -14.2439
   -14.2284 -14.2284 -14.2255 -14.2255  -5.4705  -5.4705  -5.2544  -5.2544
    -0.2004  -0.2004   0.0560   0.0560   4.1706   4.1706   4.5113   4.5113
     4.9894   4.9894   5.1982   5.1982   5.8885   5.8885   6.1908   6.1908

     occupation numbers 
     1.0000   1.0000   1.0000   1.0000   1.0000   1.0000   1.0000   1.0000
     1.0000   1.0000   1.0000   1.0000   1.0000   1.0000   1.0000   1.0000
     1.0000   1.0000   1.0000   1.0000   1.0000   1.0000   1.0000   1.0000
     1.0000   1.0000   1.0000   1.0000   1.0000   1.0000   1.0000   1.0000
     1.0000   1.0000   1.0000   1.0000   1.0000   1.0000   1.0000   1.0000

          k =-0.5000 1.2628 0.4956 (  9242 PWs)   bands (ev):

   -14.2907 -14.2907 -14.2892 -14.2892 -14.2780 -14.2780 -14.2762 -14.2762
   -14.2702 -14.2702 -14.2687 -14.2687 -14.2462 -14.2462 -14.2431 -14.2431
   -14.2285 -14.2285 -14.2256 -14.2256  -5.4084  -5.4084  -5.2193  -5.2193
    -0.0645  -0.0645   0.1725   0.1725   3.5789   3.5789   4.0675   4.0675
     4.5805   4.5805   5.0187   5.0187   5.5087   5.5087   5.9348   5.9348

     occupation numbers 
     1.0000   1.0000   1.0000   1.0000   1.0000   1.0000   1.0000   1.0000
     1.0000   1.0000   1.0000   1.0000   1.0000   1.0000   1.0000   1.0000
     1.0000   1.0000   1.0000   1.0000   1.0000   1.0000   1.0000   1.0000
     1.0000   1.0000   1.0000   1.0000   1.0000   1.0000   1.0000   1.0000
     1.0000   1.0000   1.0000   1.0000   1.0000   1.0000   1.0000   1.0000

          k =-0.5000 1.2628 0.8259 (  9206 PWs)   bands (ev):

   -14.2932 -14.2932 -14.2915 -14.2915 -14.2786 -14.2786 -14.2762 -14.2762
   -14.2692 -14.2692 -14.2677 -14.2677 -14.2446 -14.2446 -14.2419 -14.2419
   -14.2287 -14.2287 -14.2256 -14.2256  -5.3107  -5.3107  -5.1746  -5.1746
     0.1431   0.1431   0.3746   0.3746   2.9924   2.9924   3.4862   3.4862
     4.0311   4.0311   4.4780   4.4780   5.3491   5.3491   5.7145   5.7145

     occupation numbers 
     1.0000   1.0000   1.0000   1.0000   1.0000   1.0000   1.0000   1.0000
     1.0000   1.0000   1.0000   1.0000   1.0000   1.0000   1.0000   1.0000
     1.0000   1.0000   1.0000   1.0000   1.0000   1.0000   1.0000   1.0000
     1.0000   1.0000   1.0000   1.0000   1.0000   1.0000   1.0000   1.0000
     1.0000   1.0000   1.0000   1.0000   1.0000   1.0000   1.0000   1.0000

          k =-0.5000 1.2628 1.1563 (  9234 PWs)   bands (ev):

   -14.2949 -14.2949 -14.2932 -14.2932 -14.2790 -14.2790 -14.2764 -14.2764
   -14.2687 -14.2687 -14.2670 -14.2670 -14.2434 -14.2434 -14.2410 -14.2410
   -14.2288 -14.2288 -14.2256 -14.2256  -5.2253  -5.2253  -5.1553  -5.1553
     0.2897   0.2897   0.5726   0.5726   2.7647   2.7647   3.0145   3.0145
     3.6378   3.6378   3.9640   3.9640   5.4464   5.4464   5.6251   5.6251

     occupation numbers 
     1.0000   1.0000   1.0000   1.0000   1.0000   1.0000   1.0000   1.0000
     1.0000   1.0000   1.0000   1.0000   1.0000   1.0000   1.0000   1.0000
     1.0000   1.0000   1.0000   1.0000   1.0000   1.0000   1.0000   1.0000
     1.0000   1.0000   1.0000   1.0000   1.0000   1.0000   1.0000   1.0000
     1.0000   1.0000   1.0000   1.0000   1.0000   1.0000   1.0000   1.0000

     highest occupied level (ev):     6.8678

!    total energy              =    -827.74055911 Ry
     estimated scf accuracy    <          3.7E-10 Ry

     The total energy is the sum of the following terms:
     one-electron contribution =    -275.58969809 Ry
     hartree contribution      =     185.46759319 Ry
     xc contribution           =    -308.82343654 Ry
     ewald contribution        =    -428.67814494 Ry
     DFT-D3 Dispersion         =      -0.11687273 Ry

     convergence has been achieved in  12 iterations

     Forces acting on atoms (cartesian axes, Ry/au):

     atom    1 type  2   force =    -0.00935353   -0.00000000   -0.00022538
     atom    2 type  1   force =     0.01053644    0.00000000    0.00197760
     atom    3 type  2   force =     0.00935353   -0.00000000   -0.00022538
     atom    4 type  1   force =    -0.01053644    0.00000000    0.00197760
     atom    5 type  2   force =    -0.00935353    0.00000000    0.00022538
     atom    6 type  1   force =     0.01053644    0.00000000   -0.00197760
     atom    7 type  2   force =     0.00935353   -0.00000000    0.00022538
     atom    8 type  1   force =    -0.01053644   -0.00000000   -0.00197760
     The non-local contrib.  to forces
     atom    1 type  2   force =    -0.09244894    0.00000000    0.11671983
     atom    2 type  1   force =     0.33401842    0.00000000    0.30231907
     atom    3 type  2   force =     0.09244894    0.00000000    0.11671983
     atom    4 type  1   force =    -0.33401842    0.00000000    0.30231907
     atom    5 type  2   force =    -0.09244894    0.00000000   -0.11671983
     atom    6 type  1   force =     0.33401842    0.00000000   -0.30231907
     atom    7 type  2   force =     0.09244894    0.00000000   -0.11671983
     atom    8 type  1   force =    -0.33401842    0.00000000   -0.30231907
     The ionic contribution  to forces
     atom    1 type  2   force =     0.86370877    0.00000000   -1.44942454
     atom    2 type  1   force =    -0.56806871    0.00000000   -0.92228429
     atom    3 type  2   force =    -0.86370877    0.00000000   -1.44942454
     atom    4 type  1   force =     0.56806871   -0.00000000   -0.92228429
     atom    5 type  2   force =     0.86370877    0.00000000    1.44942454
     atom    6 type  1   force =    -0.56806871    0.00000000    0.92228429
     atom    7 type  2   force =    -0.86370877   -0.00000000    1.44942454
     atom    8 type  1   force =     0.56806871    0.00000000    0.92228429
     The local contribution  to forces
     atom    1 type  2   force =    -0.79100810    0.00000000    1.34322362
     atom    2 type  1   force =     0.25218671   -0.00000000    0.62513505
     atom    3 type  2   force =     0.79100810    0.00000000    1.34322362
     atom    4 type  1   force =    -0.25218671   -0.00000000    0.62513505
     atom    5 type  2   force =    -0.79100810    0.00000000   -1.34322362
     atom    6 type  1   force =     0.25218671   -0.00000000   -0.62513505
     atom    7 type  2   force =     0.79100810    0.00000000   -1.34322362
     atom    8 type  1   force =    -0.25218671   -0.00000000   -0.62513505
     The core correction contribution to forces
     atom    1 type  2   force =     0.01069291   -0.00000000   -0.01286881
     atom    2 type  1   force =    -0.00757647   -0.00000000   -0.00459764
     atom    3 type  2   force =    -0.01069291   -0.00000000   -0.01286881
     atom    4 type  1   force =     0.00757647    0.00000000   -0.00459764
     atom    5 type  2   force =     0.01069291   -0.00000000    0.01286881
     atom    6 type  1   force =    -0.00757647   -0.00000000    0.00459764
     atom    7 type  2   force =    -0.01069291   -0.00000000    0.01286881
     atom    8 type  1   force =     0.00757647    0.00000000    0.00459764
     The Hubbard contrib.    to forces
     atom    1 type  2   force =     0.00000000    0.00000000    0.00000000
     atom    2 type  1   force =     0.00000000    0.00000000    0.00000000
     atom    3 type  2   force =     0.00000000    0.00000000    0.00000000
     atom    4 type  1   force =     0.00000000    0.00000000    0.00000000
     atom    5 type  2   force =     0.00000000    0.00000000    0.00000000
     atom    6 type  1   force =     0.00000000    0.00000000    0.00000000
     atom    7 type  2   force =     0.00000000    0.00000000    0.00000000
     atom    8 type  1   force =     0.00000000    0.00000000    0.00000000
     The SCF correction term to forces
     atom    1 type  2   force =     0.00000154   -0.00000000   -0.00000153
     atom    2 type  1   force =     0.00000330   -0.00000000    0.00000378
     atom    3 type  2   force =    -0.00000154   -0.00000000   -0.00000153
     atom    4 type  1   force =    -0.00000330   -0.00000000    0.00000378
     atom    5 type  2   force =     0.00000154    0.00000000    0.00000153
     atom    6 type  1   force =     0.00000330    0.00000000   -0.00000378
     atom    7 type  2   force =    -0.00000154    0.00000000    0.00000153
     atom    8 type  1   force =    -0.00000330    0.00000000   -0.00000378

     DFT-D3 dispersion contribution to forces:
     atom    1 type  2   force =    -0.00029972    0.00000000    0.00212604
     atom    2 type  1   force =    -0.00002681   -0.00000000    0.00140163
     atom    3 type  2   force =     0.00029972   -0.00000000    0.00212604
     atom    4 type  1   force =     0.00002681    0.00000000    0.00140163
     atom    5 type  2   force =    -0.00029972    0.00000000   -0.00212604
     atom    6 type  1   force =    -0.00002681   -0.00000000   -0.00140163
     atom    7 type  2   force =     0.00029972   -0.00000000   -0.00212604
     atom    8 type  1   force =     0.00002681    0.00000000   -0.00140163

     Total force =     0.028458     Total SCF correction =     0.000011

     DFT-D3 dispersion Force =     0.005128

     Writing all to output data dir ./tmp/SnSe_pnma.save/ :
     XML data file, charge density, pseudopotentials, collected wavefunctions
 
     init_run     :      2.37s CPU      2.63s WALL (       1 calls)
     electrons    :     60.51s CPU     64.17s WALL (       1 calls)
     forces       :      1.23s CPU      1.42s WALL (       1 calls)
     force_dftd3  :      0.08s CPU      0.09s WALL (       1 calls)

     Called by init_run:
     wfcinit      :      1.43s CPU      1.46s WALL (       1 calls)
     wfcinit:atom :      0.02s CPU      0.02s WALL (      11 calls)
     wfcinit:wfcr :      1.25s CPU      1.26s WALL (      11 calls)
     potinit      :      0.25s CPU      0.29s WALL (       1 calls)
     hinit0       :      0.20s CPU      0.21s WALL (       1 calls)

     Called by electrons:
     c_bands      :     44.35s CPU     44.65s WALL (      12 calls)
     sum_band     :     11.03s CPU     12.66s WALL (      12 calls)
     v_of_rho     :      1.86s CPU      1.92s WALL (      13 calls)
     v_h          :      0.15s CPU      0.15s WALL (      13 calls)
     v_xc         :      1.84s CPU      1.89s WALL (      14 calls)
     newd         :      3.34s CPU      5.13s WALL (      13 calls)
     mix_rho      :      0.21s CPU      0.22s WALL (      12 calls)
     energy_dftd3 :      0.05s CPU      0.05s WALL (       1 calls)

     Called by c_bands:
     init_us_2    :      1.35s CPU      1.37s WALL (     286 calls)
     cegterg      :     39.36s CPU     39.52s WALL (     132 calls)

     Called by sum_band:
     sum_band:wei :      0.00s CPU      0.00s WALL (      12 calls)
     sum_band:loo :      7.15s CPU      7.17s WALL (      12 calls)
     sum_band:buf :      0.09s CPU      0.09s WALL (     132 calls)
     sum_band:ini :      0.59s CPU      0.59s WALL (     132 calls)
     sum_band:cal :      0.81s CPU      0.81s WALL (     132 calls)
     sum_band:bec :      0.01s CPU      0.01s WALL (     132 calls)
     addusdens    :      3.35s CPU      4.93s WALL (      12 calls)
                                        0.00s GPU  (      12 calls)
     addusd:skk   :      0.02s CPU      0.02s WALL (      24 calls)
                                        0.00s GPU  (      24 calls)

     Called by *egterg:
     cdiaghg      :      0.94s CPU      0.94s WALL (     608 calls)
     cegterg:over :      1.90s CPU      1.90s WALL (     476 calls)
     cegterg:upda :      1.10s CPU      1.11s WALL (     476 calls)
     cegterg:last :      2.90s CPU      2.90s WALL (     330 calls)
     h_psi        :     29.71s CPU     29.85s WALL (     619 calls)
     s_psi        :      2.89s CPU      2.90s WALL (     619 calls)
     g_psi        :      0.11s CPU      0.11s WALL (     476 calls)

     Called by h_psi:
     h_psi:calbec :      2.62s CPU      2.63s WALL (     619 calls)
     vloc_psi     :     23.94s CPU     24.06s WALL (     619 calls)
     add_vuspsi   :      2.91s CPU      2.92s WALL (     619 calls)

     General routines
     calbec       :      3.69s CPU      3.70s WALL (     795 calls)
     fft          :      0.95s CPU      0.98s WALL (     178 calls)
     ffts         :      0.03s CPU      0.03s WALL (      25 calls)
     fftw         :     16.34s CPU     16.40s WALL (   37276 calls)
     interpolate  :      0.10s CPU      0.10s WALL (      13 calls)
 
     Parallel routines
 
     PWSCF        :   1m 4.39s CPU   1m 9.25s WALL

 
   This run was terminated on:  16:27:20  20May2026            

=------------------------------------------------------------------------------=
   JOB DONE.
=------------------------------------------------------------------------------=
