
     Program PWSCF v.7.3.1 starts on 19May2026 at 21:26:16 

     This program is part of the open-source Quantum ESPRESSO suite
     for quantum simulation of materials; please cite
         "P. Giannozzi et al., J. Phys.:Condens. Matter 21 395502 (2009);
         "P. Giannozzi et al., J. Phys.:Condens. Matter 29 465901 (2017);
         "P. Giannozzi et al., J. Chem. Phys. 152 154105 (2020);
          URL http://www.quantum-espresso.org", 
     in publications or presentations arising from this work. More details at
     http://www.quantum-espresso.org/quote

     Parallel version (MPI & OpenMP), running on       6 processor cores
     Number of MPI processes:                 6
     Threads/MPI process:                     1

     MPI processes distributed on     1 nodes
     12248 MiB available memory on the printing compute node when the environment starts
 
     Waiting for input...
     Reading input from standard input

     Current dimensions of program PWSCF are:
     Max number of different atomic species (ntypx) = 10
     Max number of k-points (npk) =  40000
     Max angular momentum in pseudopotentials (lmaxx) =  4
 
     K-points division:     npool     =       3
     R & G space division:  proc/nbgrp/npool/nimage =       2
     Subspace diagonalization in iterative solution of the eigenvalue problem:
     a serial algorithm will be used

 
     Parallelization info
     --------------------
     sticks:   dense  smooth     PW     G-vecs:    dense   smooth      PW
     Min        2110     844    252                66961    16909    2726
     Max        2111     845    253                66962    16910    2727
     Sum        4221    1689    505               133923    33819    5453
 
     Using Slab Decomposition
 


     bravais-lattice index     =            8
     lattice parameter (alat)  =      22.4877  a.u.
     unit-cell volume          =    1526.0243 (a.u.)^3
     number of atoms/cell      =            8
     number of atomic types    =            2
     number of electrons       =        80.00
     number of Kohn-Sham states=           40
     kinetic-energy cutoff     =      30.0000  Ry
     charge density cutoff     =     300.0000  Ry
     scf convergence threshold =      1.0E-08
     mixing beta               =       0.7000
     number of iterations used =            8  plain     mixing
     Exchange-correlation= SLA  PW   PBE  PBE
                           (   1   4   3   4   0   0   0)

     celldm(1)=  22.487741  celldm(2)=   0.350538  celldm(3)=   0.382815
     celldm(4)=   0.000000  celldm(5)=   0.000000  celldm(6)=   0.000000

     crystal axes: (cart. coord. in units of alat)
               a(1) = (   1.000000   0.000000   0.000000 )  
               a(2) = (   0.000000   0.350538   0.000000 )  
               a(3) = (   0.000000   0.000000   0.382815 )  

     reciprocal axes: (cart. coord. in units 2 pi/alat)
               b(1) = (  1.000000  0.000000  0.000000 )  
               b(2) = (  0.000000  2.852759  0.000000 )  
               b(3) = (  0.000000  0.000000  2.612227 )  


     PseudoPot. # 1 for Sn read from file:
     ../pseudo/Sn_pbe_v1.uspp.F.UPF
     MD5 check sum: 4cf58ce39ec5d5d420df3dd08604eb00
     Pseudo is Ultrasoft + core correction, Zval = 14.0
     Generated by new atomic code, or converted to UPF format
     Using radial grid of  891 points,  6 beta functions with: 
                l(1) =   0
                l(2) =   0
                l(3) =   1
                l(4) =   1
                l(5) =   2
                l(6) =   2
     Q(r) pseudized with  6 coefficients,  rinner =    1.200   1.200   1.200
                                                       1.200   1.200

     PseudoPot. # 2 for Se read from file:
     ../pseudo/Se_pbe_v1.uspp.F.UPF
     MD5 check sum: 1b3568f3a8ae88f9a2a0ad0698632c85
     Pseudo is Ultrasoft + core correction, Zval =  6.0
     Generated by new atomic code, or converted to UPF format
     Using radial grid of  877 points,  6 beta functions with: 
                l(1) =   0
                l(2) =   0
                l(3) =   1
                l(4) =   1
                l(5) =   2
                l(6) =   2
     Q(r) pseudized with  8 coefficients,  rinner =    1.300   1.300   1.300
                                                       1.300   1.300

     atomic species   valence    mass     pseudopotential
     Sn               14.00   118.71000     Sn( 1.00)
     Se                6.00    78.97100     Se( 1.00)

      8 Sym. Ops., with inversion, found ( 6 have fractional translation)


                                    s                        frac. trans.

      isym =  1     identity                                     

 cryst.   s( 1) = (     1          0          0      )
                  (     0          1          0      )
                  (     0          0          1      )

 cart.    s( 1) = (  1.0000000  0.0000000  0.0000000 )
                  (  0.0000000  1.0000000  0.0000000 )
                  (  0.0000000  0.0000000  1.0000000 )


      isym =  2     180 deg rotation - cart. axis [0,0,1]        

 cryst.   s( 2) = (    -1          0          0      )    f =(  0.5000000 )
                  (     0         -1          0      )       ( -0.0000000 )
                  (     0          0          1      )       ( -0.5000000 )

 cart.    s( 2) = ( -1.0000000  0.0000000  0.0000000 )    f =(  0.5000000 )
                  (  0.0000000 -1.0000000  0.0000000 )       ( -0.0000000 )
                  (  0.0000000  0.0000000  1.0000000 )       ( -0.1914076 )


      isym =  3     180 deg rotation - cart. axis [0,1,0]        

 cryst.   s( 3) = (    -1          0          0      )    f =(  0.0000000 )
                  (     0          1          0      )       ( -0.5000000 )
                  (     0          0         -1      )       (  0.0000000 )

 cart.    s( 3) = ( -1.0000000  0.0000000  0.0000000 )    f =(  0.0000000 )
                  (  0.0000000  1.0000000  0.0000000 )       ( -0.1752689 )
                  (  0.0000000  0.0000000 -1.0000000 )       (  0.0000000 )


      isym =  4     180 deg rotation - cart. axis [1,0,0]        

 cryst.   s( 4) = (     1          0          0      )    f =(  0.5000000 )
                  (     0         -1          0      )       (  0.5000000 )
                  (     0          0         -1      )       (  0.5000000 )

 cart.    s( 4) = (  1.0000000  0.0000000  0.0000000 )    f =(  0.5000000 )
                  (  0.0000000 -1.0000000  0.0000000 )       (  0.1752689 )
                  (  0.0000000  0.0000000 -1.0000000 )       (  0.1914076 )


      isym =  5     inversion                                    

 cryst.   s( 5) = (    -1          0          0      )
                  (     0         -1          0      )
                  (     0          0         -1      )

 cart.    s( 5) = ( -1.0000000  0.0000000  0.0000000 )
                  (  0.0000000 -1.0000000  0.0000000 )
                  (  0.0000000  0.0000000 -1.0000000 )


      isym =  6     inv. 180 deg rotation - cart. axis [0,0,1]   

 cryst.   s( 6) = (     1          0          0      )    f =(  0.5000000 )
                  (     0          1          0      )       (  0.0000000 )
                  (     0          0         -1      )       (  0.5000000 )

 cart.    s( 6) = (  1.0000000  0.0000000  0.0000000 )    f =(  0.5000000 )
                  (  0.0000000  1.0000000  0.0000000 )       (  0.0000000 )
                  (  0.0000000  0.0000000 -1.0000000 )       (  0.1914076 )


      isym =  7     inv. 180 deg rotation - cart. axis [0,1,0]   

 cryst.   s( 7) = (     1          0          0      )    f =(  0.0000000 )
                  (     0         -1          0      )       (  0.5000000 )
                  (     0          0          1      )       (  0.0000000 )

 cart.    s( 7) = (  1.0000000  0.0000000  0.0000000 )    f =(  0.0000000 )
                  (  0.0000000 -1.0000000  0.0000000 )       (  0.1752689 )
                  (  0.0000000  0.0000000  1.0000000 )       (  0.0000000 )


      isym =  8     inv. 180 deg rotation - cart. axis [1,0,0]   

 cryst.   s( 8) = (    -1          0          0      )    f =(  0.5000000 )
                  (     0          1          0      )       ( -0.5000000 )
                  (     0          0          1      )       ( -0.5000000 )

 cart.    s( 8) = ( -1.0000000  0.0000000  0.0000000 )    f =(  0.5000000 )
                  (  0.0000000  1.0000000  0.0000000 )       ( -0.1752689 )
                  (  0.0000000  0.0000000  1.0000000 )       ( -0.1914076 )


     point group D_2h (mmm) 
     there are  8 classes
     the character table:

       E     C2    C2'   C2''  i     s_v   s_v'  s_v''
A_g    1.00  1.00  1.00  1.00  1.00  1.00  1.00  1.00
B_1g   1.00  1.00 -1.00 -1.00  1.00  1.00 -1.00 -1.00
B_2g   1.00 -1.00  1.00 -1.00  1.00 -1.00  1.00 -1.00
B_3g   1.00 -1.00 -1.00  1.00  1.00 -1.00 -1.00  1.00
A_u    1.00  1.00  1.00  1.00 -1.00 -1.00 -1.00 -1.00
B_1u   1.00  1.00 -1.00 -1.00 -1.00 -1.00  1.00  1.00
B_2u   1.00 -1.00  1.00 -1.00 -1.00  1.00 -1.00  1.00
B_3u   1.00 -1.00 -1.00  1.00 -1.00  1.00  1.00 -1.00

     the symmetry operations in each class and the name of the first element:

     E        1
          identity                                               
     C2       2
          180 deg rotation - cart. axis [0,0,1]                  
     C2'      4
          180 deg rotation - cart. axis [1,0,0]                  
     C2''     3
          180 deg rotation - cart. axis [0,1,0]                  
     i        5
          inversion                                              
     s_v      6
          inv. 180 deg rotation - cart. axis [0,0,1]             
     s_v'     8
          inv. 180 deg rotation - cart. axis [1,0,0]             
     s_v''    7
          inv. 180 deg rotation - cart. axis [0,1,0]             

   Cartesian axes

     site n.     atom                  positions (alat units)
         1        Se     tau(   1) = (   0.8549563   0.0876345   0.1849947  )
         2        Sn     tau(   2) = (   0.1165395   0.0876345   0.0429852  )
         3        Se     tau(   3) = (   0.6450437   0.2629034   0.3764022  )
         4        Sn     tau(   4) = (   0.3834605   0.2629034   0.2343927  )
         5        Se     tau(   5) = (   0.3549563   0.0876345   0.0064129  )
         6        Sn     tau(   6) = (   0.6165395   0.0876345   0.1484224  )
         7        Se     tau(   7) = (   0.1450437   0.2629034   0.1978205  )
         8        Sn     tau(   8) = (   0.8834605   0.2629034   0.3398300  )

     --------------------------------------------
     DFT-D3 Dispersion Correction (3-body terms):
     --------------------------------------------
       Reference C6 values for interpolation: 

         atom   Coordination number   C6
         Se         0.000           427.35
         Se         0.990           427.57
         Se         1.981           421.05
         Sn         0.000          1255.14
         Sn         0.951          1084.09
         Sn         1.950          1010.83
         Sn         2.926           818.29
         Sn         3.912           672.20

       Values used:

         atom   Coordination number  R0_AB[au]  C6      C8
         Se         3.278            3.332    421.05  29958.36
         Sn         3.869            3.957    676.02  84848.55
         Se         3.278            3.332    421.05  29958.36
         Sn         3.869            3.957    676.02  84848.55
         Se         3.278            3.332    421.05  29958.36
         Sn         3.869            3.957    676.02  84848.55
         Se         3.278            3.332    421.05  29958.36
         Sn         3.869            3.957    676.02  84848.55

         Molecular C6 ( Ry / a.u.^6 ) =     34604.59


   Crystallographic axes

     site n.     atom                  positions (cryst. coord.)
         1        Se     tau(   1) = (  0.8549563  0.2500000  0.4832481  )
         2        Sn     tau(   2) = (  0.1165395  0.2500000  0.1122870  )
         3        Se     tau(   3) = (  0.6450437  0.7500000  0.9832481  )
         4        Sn     tau(   4) = (  0.3834605  0.7500000  0.6122870  )
         5        Se     tau(   5) = (  0.3549563  0.2500000  0.0167519  )
         6        Sn     tau(   6) = (  0.6165395  0.2500000  0.3877130  )
         7        Se     tau(   7) = (  0.1450437  0.7500000  0.5167519  )
         8        Sn     tau(   8) = (  0.8834605  0.7500000  0.8877130  )

     number of k points=    32
                       cart. coord. in units 2pi/alat
        k(    1) = (   0.1666667   0.1782975   0.1632642), wk =   0.0833333
        k(    2) = (   0.1666667   0.1782975   0.4897926), wk =   0.0833333
        k(    3) = (   0.1666667   0.1782975   0.8163209), wk =   0.0833333
        k(    4) = (   0.1666667   0.1782975   1.1428493), wk =   0.0833333
        k(    5) = (   0.1666667   0.5348924   0.1632642), wk =   0.0833333
        k(    6) = (   0.1666667   0.5348924   0.4897926), wk =   0.0833333
        k(    7) = (   0.1666667   0.5348924   0.8163209), wk =   0.0833333
        k(    8) = (   0.1666667   0.5348924   1.1428493), wk =   0.0833333
        k(    9) = (   0.1666667   0.8914873   0.1632642), wk =   0.0833333
        k(   10) = (   0.1666667   0.8914873   0.4897926), wk =   0.0833333
        k(   11) = (   0.1666667   0.8914873   0.8163209), wk =   0.0833333
        k(   12) = (   0.1666667   0.8914873   1.1428493), wk =   0.0833333
        k(   13) = (   0.1666667   1.2480822   0.1632642), wk =   0.0833333
        k(   14) = (   0.1666667   1.2480822   0.4897926), wk =   0.0833333
        k(   15) = (   0.1666667   1.2480822   0.8163209), wk =   0.0833333
        k(   16) = (   0.1666667   1.2480822   1.1428493), wk =   0.0833333
        k(   17) = (  -0.5000000   0.1782975   0.1632642), wk =   0.0416667
        k(   18) = (  -0.5000000   0.1782975   0.4897926), wk =   0.0416667
        k(   19) = (  -0.5000000   0.1782975   0.8163209), wk =   0.0416667
        k(   20) = (  -0.5000000   0.1782975   1.1428493), wk =   0.0416667
        k(   21) = (  -0.5000000   0.5348924   0.1632642), wk =   0.0416667
        k(   22) = (  -0.5000000   0.5348924   0.4897926), wk =   0.0416667
        k(   23) = (  -0.5000000   0.5348924   0.8163209), wk =   0.0416667
        k(   24) = (  -0.5000000   0.5348924   1.1428493), wk =   0.0416667
        k(   25) = (  -0.5000000   0.8914873   0.1632642), wk =   0.0416667
        k(   26) = (  -0.5000000   0.8914873   0.4897926), wk =   0.0416667
        k(   27) = (  -0.5000000   0.8914873   0.8163209), wk =   0.0416667
        k(   28) = (  -0.5000000   0.8914873   1.1428493), wk =   0.0416667
        k(   29) = (  -0.5000000   1.2480822   0.1632642), wk =   0.0416667
        k(   30) = (  -0.5000000   1.2480822   0.4897926), wk =   0.0416667
        k(   31) = (  -0.5000000   1.2480822   0.8163209), wk =   0.0416667
        k(   32) = (  -0.5000000   1.2480822   1.1428493), wk =   0.0416667

                       cryst. coord.
        k(    1) = (   0.1666667   0.0625000   0.0625000), wk =   0.0833333
        k(    2) = (   0.1666667   0.0625000   0.1875000), wk =   0.0833333
        k(    3) = (   0.1666667   0.0625000   0.3125000), wk =   0.0833333
        k(    4) = (   0.1666667   0.0625000   0.4375000), wk =   0.0833333
        k(    5) = (   0.1666667   0.1875000   0.0625000), wk =   0.0833333
        k(    6) = (   0.1666667   0.1875000   0.1875000), wk =   0.0833333
        k(    7) = (   0.1666667   0.1875000   0.3125000), wk =   0.0833333
        k(    8) = (   0.1666667   0.1875000   0.4375000), wk =   0.0833333
        k(    9) = (   0.1666667   0.3125000   0.0625000), wk =   0.0833333
        k(   10) = (   0.1666667   0.3125000   0.1875000), wk =   0.0833333
        k(   11) = (   0.1666667   0.3125000   0.3125000), wk =   0.0833333
        k(   12) = (   0.1666667   0.3125000   0.4375000), wk =   0.0833333
        k(   13) = (   0.1666667   0.4375000   0.0625000), wk =   0.0833333
        k(   14) = (   0.1666667   0.4375000   0.1875000), wk =   0.0833333
        k(   15) = (   0.1666667   0.4375000   0.3125000), wk =   0.0833333
        k(   16) = (   0.1666667   0.4375000   0.4375000), wk =   0.0833333
        k(   17) = (  -0.5000000   0.0625000   0.0625000), wk =   0.0416667
        k(   18) = (  -0.5000000   0.0625000   0.1875000), wk =   0.0416667
        k(   19) = (  -0.5000000   0.0625000   0.3125000), wk =   0.0416667
        k(   20) = (  -0.5000000   0.0625000   0.4375000), wk =   0.0416667
        k(   21) = (  -0.5000000   0.1875000   0.0625000), wk =   0.0416667
        k(   22) = (  -0.5000000   0.1875000   0.1875000), wk =   0.0416667
        k(   23) = (  -0.5000000   0.1875000   0.3125000), wk =   0.0416667
        k(   24) = (  -0.5000000   0.1875000   0.4375000), wk =   0.0416667
        k(   25) = (  -0.5000000   0.3125000   0.0625000), wk =   0.0416667
        k(   26) = (  -0.5000000   0.3125000   0.1875000), wk =   0.0416667
        k(   27) = (  -0.5000000   0.3125000   0.3125000), wk =   0.0416667
        k(   28) = (  -0.5000000   0.3125000   0.4375000), wk =   0.0416667
        k(   29) = (  -0.5000000   0.4375000   0.0625000), wk =   0.0416667
        k(   30) = (  -0.5000000   0.4375000   0.1875000), wk =   0.0416667
        k(   31) = (  -0.5000000   0.4375000   0.3125000), wk =   0.0416667
        k(   32) = (  -0.5000000   0.4375000   0.4375000), wk =   0.0416667

     Dense  grid:   133923 G-vectors     FFT dimensions: ( 128,  48,  48)

     Smooth grid:    33819 G-vectors     FFT dimensions: (  80,  30,  32)

     Dynamical RAM for                 wfc:       1.29 MB

     Dynamical RAM for     wfc (w. buffer):      15.51 MB

     Dynamical RAM for           str. fact:       2.04 MB

     Dynamical RAM for           local pot:       0.00 MB

     Dynamical RAM for          nlocal pot:       4.65 MB

     Dynamical RAM for                qrad:       2.78 MB

     Dynamical RAM for          rho,v,vnew:       6.44 MB

     Dynamical RAM for               rhoin:       2.15 MB

     Dynamical RAM for            rho*nmix:      16.35 MB

     Dynamical RAM for           G-vectors:       3.96 MB

     Dynamical RAM for          h,s,v(r/c):       0.29 MB

     Dynamical RAM for          <psi|beta>:       0.09 MB

     Dynamical RAM for                 psi:       2.58 MB

     Dynamical RAM for                hpsi:       2.58 MB

     Dynamical RAM for                spsi:       2.58 MB

     Dynamical RAM for      wfcinit/wfcrot:       3.42 MB

     Dynamical RAM for           addusdens:      65.39 MB

     Dynamical RAM for          addusforce:      67.28 MB

     Estimated static dynamical RAM per process >      46.22 MB

     Estimated max dynamical RAM per process >     129.85 MB

     Estimated total dynamical RAM >     713.69 MB

     Initial potential from superposition of free atoms

     starting charge      75.9995, renormalised to      80.0000
     Starting wfcs are   52 randomized atomic wfcs

     total cpu time spent up to now is        1.5 secs

     Self-consistent Calculation

     iteration #  1     ecut=    30.00 Ry     beta= 0.70
     Davidson diagonalization with overlap

---- Real-time Memory Report at c_bands before calling an iterative solver
           211 MiB given to the printing process from OS
             0 MiB allocation reported by mallinfo(arena+hblkhd)
         11786 MiB available memory on the node where the printing process lives
------------------
     ethr =  1.00E-02,  avg # of iterations =  2.0

     total cpu time spent up to now is        4.1 secs

     total energy              =    -826.59231230 Ry
     estimated scf accuracy    <       2.73326802 Ry

     iteration #  2     ecut=    30.00 Ry     beta= 0.70
     Davidson diagonalization with overlap

---- Real-time Memory Report at c_bands before calling an iterative solver
           256 MiB given to the printing process from OS
             0 MiB allocation reported by mallinfo(arena+hblkhd)
         11302 MiB available memory on the node where the printing process lives
------------------
     ethr =  3.42E-03,  avg # of iterations =  3.0

     total cpu time spent up to now is        6.3 secs

     total energy              =    -827.50276576 Ry
     estimated scf accuracy    <       1.08549902 Ry

     iteration #  3     ecut=    30.00 Ry     beta= 0.70
     Davidson diagonalization with overlap

---- Real-time Memory Report at c_bands before calling an iterative solver
           280 MiB given to the printing process from OS
             0 MiB allocation reported by mallinfo(arena+hblkhd)
         11196 MiB available memory on the node where the printing process lives
------------------
     ethr =  1.36E-03,  avg # of iterations =  2.7

     total cpu time spent up to now is        8.2 secs

     total energy              =    -827.72802433 Ry
     estimated scf accuracy    <       0.01199106 Ry

     iteration #  4     ecut=    30.00 Ry     beta= 0.70
     Davidson diagonalization with overlap

---- Real-time Memory Report at c_bands before calling an iterative solver
           283 MiB given to the printing process from OS
             0 MiB allocation reported by mallinfo(arena+hblkhd)
         11190 MiB available memory on the node where the printing process lives
------------------
     ethr =  1.50E-05,  avg # of iterations =  4.9

     total cpu time spent up to now is       10.7 secs

     total energy              =    -827.73533995 Ry
     estimated scf accuracy    <       0.00599537 Ry

     iteration #  5     ecut=    30.00 Ry     beta= 0.70
     Davidson diagonalization with overlap

---- Real-time Memory Report at c_bands before calling an iterative solver
           285 MiB given to the printing process from OS
             0 MiB allocation reported by mallinfo(arena+hblkhd)
         11185 MiB available memory on the node where the printing process lives
------------------
     ethr =  7.49E-06,  avg # of iterations =  2.6

     total cpu time spent up to now is       12.7 secs

     total energy              =    -827.73660520 Ry
     estimated scf accuracy    <       0.00051581 Ry

     iteration #  6     ecut=    30.00 Ry     beta= 0.70
     Davidson diagonalization with overlap

---- Real-time Memory Report at c_bands before calling an iterative solver
           288 MiB given to the printing process from OS
             0 MiB allocation reported by mallinfo(arena+hblkhd)
         11183 MiB available memory on the node where the printing process lives
------------------
     ethr =  6.45E-07,  avg # of iterations =  4.5

     total cpu time spent up to now is       15.0 secs

     total energy              =    -827.73660380 Ry
     estimated scf accuracy    <       0.00105502 Ry

     iteration #  7     ecut=    30.00 Ry     beta= 0.70
     Davidson diagonalization with overlap

---- Real-time Memory Report at c_bands before calling an iterative solver
           291 MiB given to the printing process from OS
             0 MiB allocation reported by mallinfo(arena+hblkhd)
         11178 MiB available memory on the node where the printing process lives
------------------
     ethr =  6.45E-07,  avg # of iterations =  3.1

     total cpu time spent up to now is       16.9 secs

     total energy              =    -827.73675278 Ry
     estimated scf accuracy    <       0.00002189 Ry

     iteration #  8     ecut=    30.00 Ry     beta= 0.70
     Davidson diagonalization with overlap

---- Real-time Memory Report at c_bands before calling an iterative solver
           292 MiB given to the printing process from OS
             0 MiB allocation reported by mallinfo(arena+hblkhd)
         11177 MiB available memory on the node where the printing process lives
------------------
     ethr =  2.74E-08,  avg # of iterations =  4.8

     total cpu time spent up to now is       19.3 secs

     total energy              =    -827.73676849 Ry
     estimated scf accuracy    <       0.00001466 Ry

     iteration #  9     ecut=    30.00 Ry     beta= 0.70
     Davidson diagonalization with overlap

---- Real-time Memory Report at c_bands before calling an iterative solver
           293 MiB given to the printing process from OS
             0 MiB allocation reported by mallinfo(arena+hblkhd)
         11176 MiB available memory on the node where the printing process lives
------------------
     ethr =  1.83E-08,  avg # of iterations =  2.0

     total cpu time spent up to now is       21.1 secs

     total energy              =    -827.73677034 Ry
     estimated scf accuracy    <       0.00000054 Ry

     iteration # 10     ecut=    30.00 Ry     beta= 0.70
     Davidson diagonalization with overlap

---- Real-time Memory Report at c_bands before calling an iterative solver
           294 MiB given to the printing process from OS
             0 MiB allocation reported by mallinfo(arena+hblkhd)
         11176 MiB available memory on the node where the printing process lives
------------------
     ethr =  6.74E-10,  avg # of iterations =  4.5

     total cpu time spent up to now is       23.5 secs

     total energy              =    -827.73677066 Ry
     estimated scf accuracy    <       0.00000006 Ry

     iteration # 11     ecut=    30.00 Ry     beta= 0.70
     Davidson diagonalization with overlap

---- Real-time Memory Report at c_bands before calling an iterative solver
           295 MiB given to the printing process from OS
             0 MiB allocation reported by mallinfo(arena+hblkhd)
         11172 MiB available memory on the node where the printing process lives
------------------
     ethr =  7.84E-11,  avg # of iterations =  4.5

     total cpu time spent up to now is       25.7 secs

     total energy              =    -827.73677066 Ry
     estimated scf accuracy    <       0.00000002 Ry

     iteration # 12     ecut=    30.00 Ry     beta= 0.70
     Davidson diagonalization with overlap

---- Real-time Memory Report at c_bands before calling an iterative solver
           295 MiB given to the printing process from OS
             0 MiB allocation reported by mallinfo(arena+hblkhd)
         11172 MiB available memory on the node where the printing process lives
------------------
     ethr =  3.06E-11,  avg # of iterations =  2.9

     total cpu time spent up to now is       27.5 secs

     End of self-consistent calculation

          k = 0.1667 0.1783 0.1633 (  4232 PWs)   bands (ev):

   -14.1454 -14.1374 -14.1335 -14.1299 -14.1268 -14.1255 -14.1253 -14.1241
   -14.1144 -14.1105 -14.1092 -14.1076 -14.1037 -14.1006 -14.0858 -14.0815
   -14.0791 -14.0757 -14.0708 -14.0668  -6.1813  -5.9356  -5.3266  -5.0009
     0.1843   0.9419   1.6484   2.0657   2.8021   3.9773   4.1396   4.3803
     4.6044   4.6464   5.1585   5.4323   5.6468   5.9426   6.5059   6.7904

     occupation numbers 
     1.0000   1.0000   1.0000   1.0000   1.0000   1.0000   1.0000   1.0000
     1.0000   1.0000   1.0000   1.0000   1.0000   1.0000   1.0000   1.0000
     1.0000   1.0000   1.0000   1.0000   1.0000   1.0000   1.0000   1.0000
     1.0000   1.0000   1.0000   1.0000   1.0000   1.0000   1.0000   1.0000
     1.0000   1.0000   1.0000   1.0000   1.0000   1.0000   1.0000   1.0000

          k = 0.1667 0.1783 0.4898 (  4217 PWs)   bands (ev):

   -14.1443 -14.1371 -14.1336 -14.1301 -14.1277 -14.1265 -14.1252 -14.1242
   -14.1129 -14.1103 -14.1096 -14.1060 -14.1029 -14.0993 -14.0860 -14.0820
   -14.0790 -14.0760 -14.0706 -14.0672  -6.0714  -5.8353  -5.3150  -5.0200
    -0.1400   0.6492   1.1724   1.7079   2.8842   4.0393   4.2481   4.6903
     4.9299   5.1707   5.1772   5.5372   5.9802   6.2848   6.4658   6.7588

     occupation numbers 
     1.0000   1.0000   1.0000   1.0000   1.0000   1.0000   1.0000   1.0000
     1.0000   1.0000   1.0000   1.0000   1.0000   1.0000   1.0000   1.0000
     1.0000   1.0000   1.0000   1.0000   1.0000   1.0000   1.0000   1.0000
     1.0000   1.0000   1.0000   1.0000   1.0000   1.0000   1.0000   1.0000
     1.0000   1.0000   1.0000   1.0000   1.0000   1.0000   1.0000   1.0000

          k = 0.1667 0.1783 0.8163 (  4222 PWs)   bands (ev):

   -14.1424 -14.1371 -14.1336 -14.1310 -14.1286 -14.1279 -14.1252 -14.1246
   -14.1118 -14.1104 -14.1089 -14.1047 -14.1006 -14.0975 -14.0860 -14.0831
   -14.0784 -14.0764 -14.0702 -14.0679  -5.8761  -5.6582  -5.3299  -5.0835
    -0.4731   0.1372   0.7434   1.2119   3.1804   4.2713   4.4791   5.0123
     5.1112   5.3216   5.5288   5.7192   6.1380   6.5886   6.6305   7.0048

     occupation numbers 
     1.0000   1.0000   1.0000   1.0000   1.0000   1.0000   1.0000   1.0000
     1.0000   1.0000   1.0000   1.0000   1.0000   1.0000   1.0000   1.0000
     1.0000   1.0000   1.0000   1.0000   1.0000   1.0000   1.0000   1.0000
     1.0000   1.0000   1.0000   1.0000   1.0000   1.0000   1.0000   1.0000
     1.0000   1.0000   1.0000   1.0000   1.0000   1.0000   1.0000   1.0000

          k = 0.1667 0.1783 1.1428 (  4219 PWs)   bands (ev):

   -14.1401 -14.1381 -14.1331 -14.1322 -14.1291 -14.1290 -14.1251 -14.1249
   -14.1116 -14.1111 -14.1064 -14.1048 -14.0980 -14.0968 -14.0854 -14.0844
   -14.0777 -14.0770 -14.0695 -14.0687  -5.6487  -5.4987  -5.3723  -5.2157
    -0.5695  -0.3435   0.6183   0.7974   3.6529   4.1693   4.8333   5.0557
     5.2509   5.3472   5.5343   5.8563   6.4239   6.7692   6.9110   6.9981

     occupation numbers 
     1.0000   1.0000   1.0000   1.0000   1.0000   1.0000   1.0000   1.0000
     1.0000   1.0000   1.0000   1.0000   1.0000   1.0000   1.0000   1.0000
     1.0000   1.0000   1.0000   1.0000   1.0000   1.0000   1.0000   1.0000
     1.0000   1.0000   1.0000   1.0000   1.0000   1.0000   1.0000   1.0000
     1.0000   1.0000   1.0000   1.0000   1.0000   1.0000   1.0000   1.0000

          k = 0.1667 0.5349 0.1633 (  4229 PWs)   bands (ev):

   -14.1400 -14.1348 -14.1299 -14.1299 -14.1270 -14.1268 -14.1262 -14.1257
   -14.1151 -14.1135 -14.1131 -14.1065 -14.1023 -14.0978 -14.0831 -14.0817
   -14.0789 -14.0785 -14.0704 -14.0674  -6.0264  -5.8006  -5.2536  -4.9780
     0.0187   0.6680   1.3355   1.4665   2.9156   3.8753   4.1500   4.4125
     4.7357   4.9624   5.1627   5.4606   5.7628   6.3235   6.5618   6.6775

     occupation numbers 
     1.0000   1.0000   1.0000   1.0000   1.0000   1.0000   1.0000   1.0000
     1.0000   1.0000   1.0000   1.0000   1.0000   1.0000   1.0000   1.0000
     1.0000   1.0000   1.0000   1.0000   1.0000   1.0000   1.0000   1.0000
     1.0000   1.0000   1.0000   1.0000   1.0000   1.0000   1.0000   1.0000
     1.0000   1.0000   1.0000   1.0000   1.0000   1.0000   1.0000   1.0000

          k = 0.1667 0.5349 0.4898 (  4241 PWs)   bands (ev):

   -14.1396 -14.1347 -14.1315 -14.1304 -14.1275 -14.1274 -14.1260 -14.1257
   -14.1156 -14.1135 -14.1112 -14.1058 -14.1009 -14.0967 -14.0833 -14.0812
   -14.0794 -14.0788 -14.0702 -14.0677  -5.9222  -5.7063  -5.2405  -4.9899
    -0.1457   0.5774   1.0189   1.3682   3.0461   3.4779   3.7306   4.4212
     4.6288   5.1620   5.5074   5.5927   6.2315   6.3430   6.5835   6.7542

     occupation numbers 
     1.0000   1.0000   1.0000   1.0000   1.0000   1.0000   1.0000   1.0000
     1.0000   1.0000   1.0000   1.0000   1.0000   1.0000   1.0000   1.0000
     1.0000   1.0000   1.0000   1.0000   1.0000   1.0000   1.0000   1.0000
     1.0000   1.0000   1.0000   1.0000   1.0000   1.0000   1.0000   1.0000
     1.0000   1.0000   1.0000   1.0000   1.0000   1.0000   1.0000   1.0000

          k = 0.1667 0.5349 0.8163 (  4232 PWs)   bands (ev):

   -14.1389 -14.1345 -14.1338 -14.1313 -14.1281 -14.1280 -14.1261 -14.1257
   -14.1154 -14.1140 -14.1087 -14.1051 -14.0982 -14.0953 -14.0833 -14.0808
   -14.0802 -14.0789 -14.0698 -14.0682  -5.7391  -5.5418  -5.2495  -5.0378
    -0.3402   0.2390   0.7727   1.1310   3.3035   3.4286   3.6787   4.3723
     4.4592   5.2358   5.3231   5.8853   6.0877   6.3101   6.4971   6.7277

     occupation numbers 
     1.0000   1.0000   1.0000   1.0000   1.0000   1.0000   1.0000   1.0000
     1.0000   1.0000   1.0000   1.0000   1.0000   1.0000   1.0000   1.0000
     1.0000   1.0000   1.0000   1.0000   1.0000   1.0000   1.0000   1.0000
     1.0000   1.0000   1.0000   1.0000   1.0000   1.0000   1.0000   1.0000
     1.0000   1.0000   1.0000   1.0000   1.0000   1.0000   1.0000   1.0000

          k = 0.1667 0.5349 1.1428 (  4230 PWs)   bands (ev):

   -14.1379 -14.1362 -14.1336 -14.1325 -14.1286 -14.1285 -14.1262 -14.1260
   -14.1150 -14.1145 -14.1065 -14.1053 -14.0956 -14.0946 -14.0829 -14.0819
   -14.0796 -14.0791 -14.0693 -14.0687  -5.5299  -5.3957  -5.2840  -5.1474
    -0.3806  -0.1683   0.7304   0.8699   3.6161   3.6696   3.9100   4.1615
     4.4144   4.7650   5.3788   5.6655   5.9777   6.2075   6.4368   6.6104

     occupation numbers 
     1.0000   1.0000   1.0000   1.0000   1.0000   1.0000   1.0000   1.0000
     1.0000   1.0000   1.0000   1.0000   1.0000   1.0000   1.0000   1.0000
     1.0000   1.0000   1.0000   1.0000   1.0000   1.0000   1.0000   1.0000
     1.0000   1.0000   1.0000   1.0000   1.0000   1.0000   1.0000   1.0000
     1.0000   1.0000   1.0000   1.0000   1.0000   1.0000   1.0000   1.0000

          k = 0.1667 0.8915 0.1633 (  4249 PWs)   bands (ev):

   -14.1358 -14.1336 -14.1315 -14.1310 -14.1289 -14.1240 -14.1233 -14.1229
   -14.1174 -14.1165 -14.1146 -14.1077 -14.0990 -14.0947 -14.0850 -14.0847
   -14.0784 -14.0752 -14.0693 -14.0680  -5.7477  -5.5685  -5.1671  -4.9945
    -0.2143   0.2997   0.6435   0.8574   3.2486   3.9975   4.3462   4.6199
     5.0325   5.0904   5.3269   5.5063   5.9175   6.3489   6.4349   6.7464

     occupation numbers 
     1.0000   1.0000   1.0000   1.0000   1.0000   1.0000   1.0000   1.0000
     1.0000   1.0000   1.0000   1.0000   1.0000   1.0000   1.0000   1.0000
     1.0000   1.0000   1.0000   1.0000   1.0000   1.0000   1.0000   1.0000
     1.0000   1.0000   1.0000   1.0000   1.0000   1.0000   1.0000   1.0000
     1.0000   1.0000   1.0000   1.0000   1.0000   1.0000   1.0000   1.0000

          k = 0.1667 0.8915 0.4898 (  4253 PWs)   bands (ev):

   -14.1379 -14.1349 -14.1326 -14.1315 -14.1295 -14.1244 -14.1230 -14.1223
   -14.1174 -14.1166 -14.1126 -14.1074 -14.0975 -14.0938 -14.0844 -14.0841
   -14.0785 -14.0758 -14.0693 -14.0681  -5.6571  -5.4878  -5.1481  -4.9887
    -0.1785   0.3905   0.6596   0.8291   3.2499   3.3694   3.6736   4.1839
     4.5996   5.1879   5.3379   5.7150   5.8392   6.0605   6.3428   6.5432

     occupation numbers 
     1.0000   1.0000   1.0000   1.0000   1.0000   1.0000   1.0000   1.0000
     1.0000   1.0000   1.0000   1.0000   1.0000   1.0000   1.0000   1.0000
     1.0000   1.0000   1.0000   1.0000   1.0000   1.0000   1.0000   1.0000
     1.0000   1.0000   1.0000   1.0000   1.0000   1.0000   1.0000   1.0000
     1.0000   1.0000   1.0000   1.0000   1.0000   1.0000   1.0000   1.0000

          k = 0.1667 0.8915 0.8163 (  4249 PWs)   bands (ev):

   -14.1400 -14.1377 -14.1341 -14.1332 -14.1289 -14.1253 -14.1227 -14.1222
   -14.1168 -14.1164 -14.1103 -14.1070 -14.0950 -14.0927 -14.0836 -14.0833
   -14.0785 -14.0767 -14.0691 -14.0683  -5.5021  -5.3513  -5.1402  -5.0010
    -0.1291   0.3554   0.7032   0.8641   2.8556   3.1650   3.6110   3.8152
     4.0500   4.7386   5.0365   5.3448   5.6337   5.7963   5.9820   6.4663

     occupation numbers 
     1.0000   1.0000   1.0000   1.0000   1.0000   1.0000   1.0000   1.0000
     1.0000   1.0000   1.0000   1.0000   1.0000   1.0000   1.0000   1.0000
     1.0000   1.0000   1.0000   1.0000   1.0000   1.0000   1.0000   1.0000
     1.0000   1.0000   1.0000   1.0000   1.0000   1.0000   1.0000   1.0000
     1.0000   1.0000   1.0000   1.0000   1.0000   1.0000   1.0000   1.0000

          k = 0.1667 0.8915 1.1428 (  4228 PWs)   bands (ev):

   -14.1410 -14.1401 -14.1350 -14.1347 -14.1278 -14.1265 -14.1226 -14.1224
   -14.1162 -14.1161 -14.1085 -14.1073 -14.0928 -14.0920 -14.0828 -14.0826
   -14.0782 -14.0776 -14.0688 -14.0686  -5.3339  -5.2346  -5.1549  -5.0611
    -0.0451   0.1307   0.8269   0.8834   2.8648   3.1925   3.2336   3.6019
     4.0141   4.4301   4.6823   5.0865   5.2494   5.4813   6.0344   6.1904

     occupation numbers 
     1.0000   1.0000   1.0000   1.0000   1.0000   1.0000   1.0000   1.0000
     1.0000   1.0000   1.0000   1.0000   1.0000   1.0000   1.0000   1.0000
     1.0000   1.0000   1.0000   1.0000   1.0000   1.0000   1.0000   1.0000
     1.0000   1.0000   1.0000   1.0000   1.0000   1.0000   1.0000   1.0000
     1.0000   1.0000   1.0000   1.0000   1.0000   1.0000   1.0000   1.0000

          k = 0.1667 1.2481 0.1633 (  4263 PWs)   bands (ev):

   -14.1367 -14.1351 -14.1343 -14.1331 -14.1248 -14.1224 -14.1204 -14.1196
   -14.1183 -14.1164 -14.1147 -14.1109 -14.0950 -14.0919 -14.0902 -14.0885
   -14.0735 -14.0716 -14.0697 -14.0693  -5.4153  -5.3212  -5.1691  -5.1354
    -0.2819   0.0078   0.1561   0.3750   3.7713   4.2278   4.5674   4.8396
     5.0126   5.0878   5.4522   5.6789   6.0494   6.1958   6.2792   6.4241

     occupation numbers 
     1.0000   1.0000   1.0000   1.0000   1.0000   1.0000   1.0000   1.0000
     1.0000   1.0000   1.0000   1.0000   1.0000   1.0000   1.0000   1.0000
     1.0000   1.0000   1.0000   1.0000   1.0000   1.0000   1.0000   1.0000
     1.0000   1.0000   1.0000   1.0000   1.0000   1.0000   1.0000   1.0000
     1.0000   1.0000   1.0000   1.0000   1.0000   1.0000   1.0000   1.0000

          k = 0.1667 1.2481 0.4898 (  4256 PWs)   bands (ev):

   -14.1388 -14.1372 -14.1360 -14.1349 -14.1248 -14.1226 -14.1199 -14.1196
   -14.1175 -14.1163 -14.1133 -14.1104 -14.0940 -14.0918 -14.0884 -14.0875
   -14.0737 -14.0721 -14.0695 -14.0693  -5.3485  -5.2623  -5.1344  -5.1004
    -0.1375   0.1458   0.2910   0.4451   3.5230   3.7267   3.9651   4.2573
     4.3520   4.8386   5.2097   5.3860   5.5038   5.7921   6.1358   6.4338

     occupation numbers 
     1.0000   1.0000   1.0000   1.0000   1.0000   1.0000   1.0000   1.0000
     1.0000   1.0000   1.0000   1.0000   1.0000   1.0000   1.0000   1.0000
     1.0000   1.0000   1.0000   1.0000   1.0000   1.0000   1.0000   1.0000
     1.0000   1.0000   1.0000   1.0000   1.0000   1.0000   1.0000   1.0000
     1.0000   1.0000   1.0000   1.0000   1.0000   1.0000   1.0000   1.0000

          k = 0.1667 1.2481 0.8163 (  4232 PWs)   bands (ev):

   -14.1416 -14.1404 -14.1382 -14.1375 -14.1247 -14.1231 -14.1197 -14.1195
   -14.1164 -14.1157 -14.1118 -14.1099 -14.0923 -14.0911 -14.0864 -14.0860
   -14.0738 -14.0728 -14.0694 -14.0692  -5.2416  -5.1701  -5.0915  -5.0558
     0.1057   0.3563   0.5088   0.5626   2.8745   3.3010   3.3934   3.7933
     3.8771   4.2987   4.5244   4.9918   5.0739   5.3602   5.9890   6.1448

     occupation numbers 
     1.0000   1.0000   1.0000   1.0000   1.0000   1.0000   1.0000   1.0000
     1.0000   1.0000   1.0000   1.0000   1.0000   1.0000   1.0000   1.0000
     1.0000   1.0000   1.0000   1.0000   1.0000   1.0000   1.0000   1.0000
     1.0000   1.0000   1.0000   1.0000   1.0000   1.0000   1.0000   1.0000
     1.0000   1.0000   1.0000   1.0000   1.0000   1.0000   1.0000   1.0000

          k = 0.1667 1.2481 1.1428 (  4226 PWs)   bands (ev):

   -14.1432 -14.1428 -14.1396 -14.1394 -14.1244 -14.1238 -14.1197 -14.1196
   -14.1156 -14.1154 -14.1106 -14.1099 -14.0908 -14.0904 -14.0849 -14.0848
   -14.0737 -14.0734 -14.0693 -14.0692  -5.1410  -5.0987  -5.0692  -5.0398
     0.3382   0.4416   0.6967   0.7209   2.6119   2.8105   3.1559   3.3569
     3.6371   3.7600   4.2052   4.5090   5.0617   5.2593   5.9008   5.9393

     occupation numbers 
     1.0000   1.0000   1.0000   1.0000   1.0000   1.0000   1.0000   1.0000
     1.0000   1.0000   1.0000   1.0000   1.0000   1.0000   1.0000   1.0000
     1.0000   1.0000   1.0000   1.0000   1.0000   1.0000   1.0000   1.0000
     1.0000   1.0000   1.0000   1.0000   1.0000   1.0000   1.0000   1.0000
     1.0000   1.0000   1.0000   1.0000   1.0000   1.0000   1.0000   1.0000

          k =-0.5000 0.1783 0.1633 (  4248 PWs)   bands (ev):

   -14.1421 -14.1421 -14.1313 -14.1313 -14.1263 -14.1263 -14.1246 -14.1246
   -14.1113 -14.1113 -14.1098 -14.1098 -14.1019 -14.1019 -14.0840 -14.0840
   -14.0770 -14.0770 -14.0687 -14.0687  -6.0798  -6.0798  -5.1424  -5.1424
     0.4509   0.4509   1.9629   1.9629   3.3808   3.3808   4.2910   4.2910
     4.6808   4.6808   5.2338   5.2338   5.5699   5.5699   6.6895   6.6895

     occupation numbers 
     1.0000   1.0000   1.0000   1.0000   1.0000   1.0000   1.0000   1.0000
     1.0000   1.0000   1.0000   1.0000   1.0000   1.0000   1.0000   1.0000
     1.0000   1.0000   1.0000   1.0000   1.0000   1.0000   1.0000   1.0000
     1.0000   1.0000   1.0000   1.0000   1.0000   1.0000   1.0000   1.0000
     1.0000   1.0000   1.0000   1.0000   1.0000   1.0000   1.0000   1.0000

          k =-0.5000 0.1783 0.4898 (  4224 PWs)   bands (ev):

   -14.1414 -14.1414 -14.1313 -14.1313 -14.1271 -14.1271 -14.1247 -14.1247
   -14.1104 -14.1104 -14.1094 -14.1094 -14.1007 -14.1007 -14.0842 -14.0842
   -14.0772 -14.0772 -14.0688 -14.0688  -5.9747  -5.9747  -5.1461  -5.1461
     0.1437   0.1437   1.5168   1.5168   3.5641   3.5641   4.3412   4.3412
     5.0174   5.0174   5.3896   5.3896   6.0522   6.0522   6.5703   6.5703

     occupation numbers 
     1.0000   1.0000   1.0000   1.0000   1.0000   1.0000   1.0000   1.0000
     1.0000   1.0000   1.0000   1.0000   1.0000   1.0000   1.0000   1.0000
     1.0000   1.0000   1.0000   1.0000   1.0000   1.0000   1.0000   1.0000
     1.0000   1.0000   1.0000   1.0000   1.0000   1.0000   1.0000   1.0000
     1.0000   1.0000   1.0000   1.0000   1.0000   1.0000   1.0000   1.0000

          k =-0.5000 0.1783 0.8163 (  4228 PWs)   bands (ev):

   -14.1402 -14.1402 -14.1319 -14.1319 -14.1281 -14.1281 -14.1251 -14.1251
   -14.1107 -14.1107 -14.1073 -14.1073 -14.0988 -14.0988 -14.0846 -14.0846
   -14.0774 -14.0774 -14.0690 -14.0690  -5.7901  -5.7901  -5.1838  -5.1838
    -0.2194  -0.2194   0.9851   0.9851   3.8733   3.8733   4.6164   4.6164
     5.1563   5.1563   5.6368   5.6368   6.2675   6.2675   6.7853   6.7853

     occupation numbers 
     1.0000   1.0000   1.0000   1.0000   1.0000   1.0000   1.0000   1.0000
     1.0000   1.0000   1.0000   1.0000   1.0000   1.0000   1.0000   1.0000
     1.0000   1.0000   1.0000   1.0000   1.0000   1.0000   1.0000   1.0000
     1.0000   1.0000   1.0000   1.0000   1.0000   1.0000   1.0000   1.0000
     1.0000   1.0000   1.0000   1.0000   1.0000   1.0000   1.0000   1.0000

          k =-0.5000 0.1783 1.1428 (  4214 PWs)   bands (ev):

   -14.1391 -14.1391 -14.1328 -14.1328 -14.1287 -14.1287 -14.1254 -14.1254
   -14.1110 -14.1110 -14.1057 -14.1057 -14.0975 -14.0975 -14.0848 -14.0848
   -14.0775 -14.0775 -14.0691 -14.0691  -5.5926  -5.5926  -5.2755  -5.2755
    -0.4333  -0.4333   0.6394   0.6394   4.2837   4.2837   4.9160   4.9160
     4.9891   4.9891   5.4782   5.4782   6.6737   6.6737   6.9432   6.9432

     occupation numbers 
     1.0000   1.0000   1.0000   1.0000   1.0000   1.0000   1.0000   1.0000
     1.0000   1.0000   1.0000   1.0000   1.0000   1.0000   1.0000   1.0000
     1.0000   1.0000   1.0000   1.0000   1.0000   1.0000   1.0000   1.0000
     1.0000   1.0000   1.0000   1.0000   1.0000   1.0000   1.0000   1.0000
     1.0000   1.0000   1.0000   1.0000   1.0000   1.0000   1.0000   1.0000

          k =-0.5000 0.5349 0.1633 (  4238 PWs)   bands (ev):

   -14.1376 -14.1376 -14.1297 -14.1297 -14.1271 -14.1271 -14.1260 -14.1260
   -14.1137 -14.1137 -14.1108 -14.1108 -14.0995 -14.0995 -14.0821 -14.0821
   -14.0790 -14.0790 -14.0688 -14.0688  -5.9326  -5.9326  -5.0964  -5.0964
     0.2638   0.2638   1.4574   1.4574   3.5095   3.5095   4.1559   4.1559
     4.9922   4.9922   5.1602   5.1602   5.8364   5.8364   6.7141   6.7141

     occupation numbers 
     1.0000   1.0000   1.0000   1.0000   1.0000   1.0000   1.0000   1.0000
     1.0000   1.0000   1.0000   1.0000   1.0000   1.0000   1.0000   1.0000
     1.0000   1.0000   1.0000   1.0000   1.0000   1.0000   1.0000   1.0000
     1.0000   1.0000   1.0000   1.0000   1.0000   1.0000   1.0000   1.0000
     1.0000   1.0000   1.0000   1.0000   1.0000   1.0000   1.0000   1.0000

          k =-0.5000 0.5349 0.4898 (  4234 PWs)   bands (ev):

   -14.1374 -14.1374 -14.1309 -14.1309 -14.1273 -14.1273 -14.1259 -14.1259
   -14.1138 -14.1138 -14.1095 -14.1095 -14.0983 -14.0983 -14.0821 -14.0821
   -14.0793 -14.0793 -14.0688 -14.0688  -5.8333  -5.8333  -5.0959  -5.0959
     0.1226   0.1226   1.2561   1.2561   3.4764   3.4764   3.9725   3.9725
     4.6313   4.6313   5.6616   5.6616   6.2373   6.2373   6.6684   6.6684

     occupation numbers 
     1.0000   1.0000   1.0000   1.0000   1.0000   1.0000   1.0000   1.0000
     1.0000   1.0000   1.0000   1.0000   1.0000   1.0000   1.0000   1.0000
     1.0000   1.0000   1.0000   1.0000   1.0000   1.0000   1.0000   1.0000
     1.0000   1.0000   1.0000   1.0000   1.0000   1.0000   1.0000   1.0000
     1.0000   1.0000   1.0000   1.0000   1.0000   1.0000   1.0000   1.0000

          k =-0.5000 0.5349 0.8163 (  4228 PWs)   bands (ev):

   -14.1370 -14.1370 -14.1328 -14.1328 -14.1279 -14.1279 -14.1257 -14.1257
   -14.1140 -14.1140 -14.1078 -14.1078 -14.0964 -14.0964 -14.0821 -14.0821
   -14.0797 -14.0797 -14.0688 -14.0688  -5.6608  -5.6608  -5.1233  -5.1233
    -0.0975  -0.0975   0.9642   0.9642   3.4745   3.4745   4.1427   4.1427
     4.5018   4.5018   5.6907   5.6907   6.1018   6.1018   6.6327   6.6327

     occupation numbers 
     1.0000   1.0000   1.0000   1.0000   1.0000   1.0000   1.0000   1.0000
     1.0000   1.0000   1.0000   1.0000   1.0000   1.0000   1.0000   1.0000
     1.0000   1.0000   1.0000   1.0000   1.0000   1.0000   1.0000   1.0000
     1.0000   1.0000   1.0000   1.0000   1.0000   1.0000   1.0000   1.0000
     1.0000   1.0000   1.0000   1.0000   1.0000   1.0000   1.0000   1.0000

          k =-0.5000 0.5349 1.1428 (  4204 PWs)   bands (ev):

   -14.1364 -14.1364 -14.1345 -14.1345 -14.1283 -14.1283 -14.1256 -14.1256
   -14.1141 -14.1141 -14.1066 -14.1066 -14.0949 -14.0949 -14.0822 -14.0822
   -14.0799 -14.0799 -14.0688 -14.0688  -5.4795  -5.4795  -5.1993  -5.1993
    -0.2545  -0.2545   0.7451   0.7451   3.7107   3.7107   4.0851   4.0851
     4.7597   4.7597   5.2665   5.2665   5.9457   5.9457   6.4461   6.4461

     occupation numbers 
     1.0000   1.0000   1.0000   1.0000   1.0000   1.0000   1.0000   1.0000
     1.0000   1.0000   1.0000   1.0000   1.0000   1.0000   1.0000   1.0000
     1.0000   1.0000   1.0000   1.0000   1.0000   1.0000   1.0000   1.0000
     1.0000   1.0000   1.0000   1.0000   1.0000   1.0000   1.0000   1.0000
     1.0000   1.0000   1.0000   1.0000   1.0000   1.0000   1.0000   1.0000

          k =-0.5000 0.8915 0.1633 (  4244 PWs)   bands (ev):

   -14.1351 -14.1351 -14.1306 -14.1306 -14.1268 -14.1268 -14.1234 -14.1234
   -14.1166 -14.1166 -14.1114 -14.1114 -14.0964 -14.0964 -14.0849 -14.0849
   -14.0767 -14.0767 -14.0686 -14.0686  -5.6722  -5.6722  -5.0664  -5.0664
     0.0000   0.0000   0.7627   0.7627   3.7999   3.7999   4.3311   4.3311
     5.1601   5.1601   5.3503   5.3503   5.8862   5.8862   6.6088   6.6088

     occupation numbers 
     1.0000   1.0000   1.0000   1.0000   1.0000   1.0000   1.0000   1.0000
     1.0000   1.0000   1.0000   1.0000   1.0000   1.0000   1.0000   1.0000
     1.0000   1.0000   1.0000   1.0000   1.0000   1.0000   1.0000   1.0000
     1.0000   1.0000   1.0000   1.0000   1.0000   1.0000   1.0000   1.0000
     1.0000   1.0000   1.0000   1.0000   1.0000   1.0000   1.0000   1.0000

          k =-0.5000 0.8915 0.4898 (  4240 PWs)   bands (ev):

   -14.1366 -14.1366 -14.1320 -14.1320 -14.1271 -14.1271 -14.1228 -14.1228
   -14.1162 -14.1162 -14.1107 -14.1107 -14.0952 -14.0952 -14.0845 -14.0845
   -14.0770 -14.0770 -14.0686 -14.0686  -5.5863  -5.5863  -5.0543  -5.0543
     0.0518   0.0518   0.7713   0.7713   3.3783   3.3783   4.0984   4.0984
     4.5676   4.5676   5.6034   5.6034   5.7968   5.7968   6.5046   6.5046

     occupation numbers 
     1.0000   1.0000   1.0000   1.0000   1.0000   1.0000   1.0000   1.0000
     1.0000   1.0000   1.0000   1.0000   1.0000   1.0000   1.0000   1.0000
     1.0000   1.0000   1.0000   1.0000   1.0000   1.0000   1.0000   1.0000
     1.0000   1.0000   1.0000   1.0000   1.0000   1.0000   1.0000   1.0000
     1.0000   1.0000   1.0000   1.0000   1.0000   1.0000   1.0000   1.0000

          k =-0.5000 0.8915 0.8163 (  4230 PWs)   bands (ev):

   -14.1387 -14.1387 -14.1340 -14.1340 -14.1273 -14.1273 -14.1223 -14.1223
   -14.1157 -14.1157 -14.1096 -14.1096 -14.0933 -14.0933 -14.0838 -14.0838
   -14.0774 -14.0774 -14.0686 -14.0686  -5.4413  -5.4413  -5.0560  -5.0560
     0.0807   0.0807   0.7937   0.7937   3.0202   3.0202   3.7719   3.7719
     4.4260   4.4260   5.0727   5.0727   5.5736   5.5736   6.3009   6.3009

     occupation numbers 
     1.0000   1.0000   1.0000   1.0000   1.0000   1.0000   1.0000   1.0000
     1.0000   1.0000   1.0000   1.0000   1.0000   1.0000   1.0000   1.0000
     1.0000   1.0000   1.0000   1.0000   1.0000   1.0000   1.0000   1.0000
     1.0000   1.0000   1.0000   1.0000   1.0000   1.0000   1.0000   1.0000
     1.0000   1.0000   1.0000   1.0000   1.0000   1.0000   1.0000   1.0000

          k =-0.5000 0.8915 1.1428 (  4228 PWs)   bands (ev):

   -14.1401 -14.1401 -14.1354 -14.1354 -14.1275 -14.1275 -14.1220 -14.1220
   -14.1154 -14.1154 -14.1089 -14.1089 -14.0918 -14.0918 -14.0833 -14.0833
   -14.0777 -14.0777 -14.0686 -14.0686  -5.2962  -5.2962  -5.0962  -5.0962
     0.0557   0.0557   0.8255   0.8255   3.0292   3.0292   3.3679   3.3679
     4.4134   4.4134   4.7374   4.7374   5.4694   5.4694   5.9444   5.9444

     occupation numbers 
     1.0000   1.0000   1.0000   1.0000   1.0000   1.0000   1.0000   1.0000
     1.0000   1.0000   1.0000   1.0000   1.0000   1.0000   1.0000   1.0000
     1.0000   1.0000   1.0000   1.0000   1.0000   1.0000   1.0000   1.0000
     1.0000   1.0000   1.0000   1.0000   1.0000   1.0000   1.0000   1.0000
     1.0000   1.0000   1.0000   1.0000   1.0000   1.0000   1.0000   1.0000

          k =-0.5000 1.2481 0.1633 (  4252 PWs)   bands (ev):

   -14.1357 -14.1357 -14.1341 -14.1341 -14.1226 -14.1226 -14.1217 -14.1217
   -14.1161 -14.1161 -14.1133 -14.1133 -14.0931 -14.0931 -14.0895 -14.0895
   -14.0725 -14.0725 -14.0695 -14.0695  -5.3738  -5.3738  -5.1469  -5.1469
    -0.0852  -0.0852   0.1835   0.1835   4.2699   4.2699   4.6124   4.6124
     5.0940   5.0940   5.3110   5.3110   6.0013   6.0013   6.3170   6.3170

     occupation numbers 
     1.0000   1.0000   1.0000   1.0000   1.0000   1.0000   1.0000   1.0000
     1.0000   1.0000   1.0000   1.0000   1.0000   1.0000   1.0000   1.0000
     1.0000   1.0000   1.0000   1.0000   1.0000   1.0000   1.0000   1.0000
     1.0000   1.0000   1.0000   1.0000   1.0000   1.0000   1.0000   1.0000
     1.0000   1.0000   1.0000   1.0000   1.0000   1.0000   1.0000   1.0000

          k =-0.5000 1.2481 0.4898 (  4250 PWs)   bands (ev):

   -14.1376 -14.1376 -14.1360 -14.1360 -14.1230 -14.1230 -14.1214 -14.1214
   -14.1152 -14.1152 -14.1128 -14.1128 -14.0921 -14.0921 -14.0886 -14.0886
   -14.0726 -14.0726 -14.0696 -14.0696  -5.3108  -5.3108  -5.1122  -5.1122
     0.0501   0.0501   0.2975   0.2975   3.6693   3.6693   4.1677   4.1677
     4.6824   4.6824   5.1221   5.1221   5.6584   5.6584   6.0864   6.0864

     occupation numbers 
     1.0000   1.0000   1.0000   1.0000   1.0000   1.0000   1.0000   1.0000
     1.0000   1.0000   1.0000   1.0000   1.0000   1.0000   1.0000   1.0000
     1.0000   1.0000   1.0000   1.0000   1.0000   1.0000   1.0000   1.0000
     1.0000   1.0000   1.0000   1.0000   1.0000   1.0000   1.0000   1.0000
     1.0000   1.0000   1.0000   1.0000   1.0000   1.0000   1.0000   1.0000

          k =-0.5000 1.2481 0.8163 (  4246 PWs)   bands (ev):

   -14.1403 -14.1403 -14.1385 -14.1385 -14.1234 -14.1234 -14.1213 -14.1213
   -14.1141 -14.1141 -14.1119 -14.1119 -14.0904 -14.0904 -14.0874 -14.0874
   -14.0728 -14.0728 -14.0696 -14.0696  -5.2114  -5.2114  -5.0683  -5.0683
     0.2559   0.2559   0.4951   0.4951   3.0871   3.0871   3.5869   3.5869
     4.1318   4.1318   4.5813   4.5813   5.5100   5.5100   5.8761   5.8761

     occupation numbers 
     1.0000   1.0000   1.0000   1.0000   1.0000   1.0000   1.0000   1.0000
     1.0000   1.0000   1.0000   1.0000   1.0000   1.0000   1.0000   1.0000
     1.0000   1.0000   1.0000   1.0000   1.0000   1.0000   1.0000   1.0000
     1.0000   1.0000   1.0000   1.0000   1.0000   1.0000   1.0000   1.0000
     1.0000   1.0000   1.0000   1.0000   1.0000   1.0000   1.0000   1.0000

          k =-0.5000 1.2481 1.1428 (  4220 PWs)   bands (ev):

   -14.1421 -14.1421 -14.1403 -14.1403 -14.1238 -14.1238 -14.1214 -14.1214
   -14.1135 -14.1135 -14.1112 -14.1112 -14.0890 -14.0890 -14.0864 -14.0864
   -14.0730 -14.0730 -14.0697 -14.0697  -5.1242  -5.1242  -5.0502  -5.0502
     0.3988   0.3988   0.6896   0.6896   2.8662   2.8662   3.1158   3.1158
     3.7473   3.7473   4.0671   4.0671   5.6051   5.6051   5.7855   5.7855

     occupation numbers 
     1.0000   1.0000   1.0000   1.0000   1.0000   1.0000   1.0000   1.0000
     1.0000   1.0000   1.0000   1.0000   1.0000   1.0000   1.0000   1.0000
     1.0000   1.0000   1.0000   1.0000   1.0000   1.0000   1.0000   1.0000
     1.0000   1.0000   1.0000   1.0000   1.0000   1.0000   1.0000   1.0000
     1.0000   1.0000   1.0000   1.0000   1.0000   1.0000   1.0000   1.0000

     highest occupied level (ev):     7.0048

!    total energy              =    -827.73677067 Ry
     estimated scf accuracy    <          7.3E-10 Ry

     The total energy is the sum of the following terms:
     one-electron contribution =    -272.97654371 Ry
     hartree contribution      =     184.59012911 Ry
     xc contribution           =    -308.87481040 Ry
     ewald contribution        =    -430.35800932 Ry
     DFT-D3 Dispersion         =      -0.11753635 Ry

     convergence has been achieved in  12 iterations

     Forces acting on atoms (cartesian axes, Ry/au):

     atom    1 type  2   force =    -0.00732567    0.00000000   -0.00061376
     atom    2 type  1   force =     0.00792005    0.00000000    0.00111401
     atom    3 type  2   force =     0.00732567    0.00000000   -0.00061376
     atom    4 type  1   force =    -0.00792005    0.00000000    0.00111401
     atom    5 type  2   force =    -0.00732567    0.00000000    0.00061376
     atom    6 type  1   force =     0.00792005    0.00000000   -0.00111401
     atom    7 type  2   force =     0.00732567    0.00000000    0.00061376
     atom    8 type  1   force =    -0.00792005   -0.00000000   -0.00111401
     The non-local contrib.  to forces
     atom    1 type  2   force =    -0.09669942    0.00000000    0.11674820
     atom    2 type  1   force =     0.33762862    0.00000000    0.30262729
     atom    3 type  2   force =     0.09669942    0.00000000    0.11674820
     atom    4 type  1   force =    -0.33762862    0.00000000    0.30262729
     atom    5 type  2   force =    -0.09669942    0.00000000   -0.11674820
     atom    6 type  1   force =     0.33762862    0.00000000   -0.30262729
     atom    7 type  2   force =     0.09669942    0.00000000   -0.11674820
     atom    8 type  1   force =    -0.33762862    0.00000000   -0.30262729
     The ionic contribution  to forces
     atom    1 type  2   force =     0.94083285   -0.00000000   -1.41284073
     atom    2 type  1   force =    -0.57615237   -0.00000000   -0.87438195
     atom    3 type  2   force =    -0.94083285   -0.00000000   -1.41284073
     atom    4 type  1   force =     0.57615237   -0.00000000   -0.87438195
     atom    5 type  2   force =     0.94083285   -0.00000000    1.41284073
     atom    6 type  1   force =    -0.57615237   -0.00000000    0.87438195
     atom    7 type  2   force =    -0.94083285   -0.00000000    1.41284073
     atom    8 type  1   force =     0.57615237   -0.00000000    0.87438195
     The local contribution  to forces
     atom    1 type  2   force =    -0.86220876    0.00000000    1.30663117
     atom    2 type  1   force =     0.25398793   -0.00000000    0.57641320
     atom    3 type  2   force =     0.86220876    0.00000000    1.30663117
     atom    4 type  1   force =    -0.25398793   -0.00000000    0.57641320
     atom    5 type  2   force =    -0.86220876   -0.00000000   -1.30663117
     atom    6 type  1   force =     0.25398793   -0.00000000   -0.57641320
     atom    7 type  2   force =     0.86220876    0.00000000   -1.30663117
     atom    8 type  1   force =    -0.25398793   -0.00000000   -0.57641320
     The core correction contribution to forces
     atom    1 type  2   force =     0.01121767    0.00000000   -0.01308647
     atom    2 type  1   force =    -0.00728950   -0.00000000   -0.00471710
     atom    3 type  2   force =    -0.01121767    0.00000000   -0.01308647
     atom    4 type  1   force =     0.00728950   -0.00000000   -0.00471710
     atom    5 type  2   force =     0.01121767    0.00000000    0.01308647
     atom    6 type  1   force =    -0.00728950    0.00000000    0.00471710
     atom    7 type  2   force =    -0.01121767    0.00000000    0.01308647
     atom    8 type  1   force =     0.00728950    0.00000000    0.00471710
     The Hubbard contrib.    to forces
     atom    1 type  2   force =     0.00000000    0.00000000    0.00000000
     atom    2 type  1   force =     0.00000000    0.00000000    0.00000000
     atom    3 type  2   force =     0.00000000    0.00000000    0.00000000
     atom    4 type  1   force =     0.00000000    0.00000000    0.00000000
     atom    5 type  2   force =     0.00000000    0.00000000    0.00000000
     atom    6 type  1   force =     0.00000000    0.00000000    0.00000000
     atom    7 type  2   force =     0.00000000    0.00000000    0.00000000
     atom    8 type  1   force =     0.00000000    0.00000000    0.00000000
     The SCF correction term to forces
     atom    1 type  2   force =    -0.00000082    0.00000000   -0.00000035
     atom    2 type  1   force =     0.00002333   -0.00000000    0.00001643
     atom    3 type  2   force =     0.00000082    0.00000000   -0.00000035
     atom    4 type  1   force =    -0.00002333    0.00000000    0.00001643
     atom    5 type  2   force =    -0.00000082   -0.00000000    0.00000035
     atom    6 type  1   force =     0.00002333   -0.00000000   -0.00001643
     atom    7 type  2   force =     0.00000082   -0.00000000    0.00000035
     atom    8 type  1   force =    -0.00002333   -0.00000000   -0.00001643

     DFT-D3 dispersion contribution to forces:
     atom    1 type  2   force =    -0.00046717    0.00000000    0.00193442
     atom    2 type  1   force =    -0.00027796   -0.00000000    0.00115613
     atom    3 type  2   force =     0.00046717    0.00000000    0.00193442
     atom    4 type  1   force =     0.00027796    0.00000000    0.00115613
     atom    5 type  2   force =    -0.00046717   -0.00000000   -0.00193442
     atom    6 type  1   force =    -0.00027796   -0.00000000   -0.00115613
     atom    7 type  2   force =     0.00046717   -0.00000000   -0.00193442
     atom    8 type  1   force =     0.00027796    0.00000000   -0.00115613

     Total force =     0.021727     Total SCF correction =     0.000057

     DFT-D3 dispersion Force =     0.004636

     Writing all to output data dir ./tmp/SnSe_pnma.save/ :
     XML data file, charge density, pseudopotentials, collected wavefunctions
 
     init_run     :      1.18s CPU      1.31s WALL (       1 calls)
     electrons    :     24.34s CPU     26.06s WALL (       1 calls)
     forces       :      0.49s CPU      0.57s WALL (       1 calls)
     force_dftd3  :      0.05s CPU      0.05s WALL (       1 calls)

     Called by init_run:
     wfcinit      :      0.69s CPU      0.72s WALL (       1 calls)
     wfcinit:atom :      0.01s CPU      0.01s WALL (      11 calls)
     wfcinit:wfcr :      0.60s CPU      0.60s WALL (      11 calls)
     potinit      :      0.09s CPU      0.10s WALL (       1 calls)
     hinit0       :      0.19s CPU      0.20s WALL (       1 calls)

     Called by electrons:
     c_bands      :     17.77s CPU     17.99s WALL (      12 calls)
     sum_band     :      4.16s CPU      4.94s WALL (      12 calls)
     v_of_rho     :      0.78s CPU      0.82s WALL (      13 calls)
     v_h          :      0.05s CPU      0.05s WALL (      13 calls)
     v_xc         :      0.79s CPU      0.83s WALL (      14 calls)
     newd         :      1.64s CPU      2.36s WALL (      13 calls)
     mix_rho      :      0.09s CPU      0.09s WALL (      12 calls)
     energy_dftd3 :      0.05s CPU      0.05s WALL (       1 calls)

     Called by c_bands:
     init_us_2    :      0.55s CPU      0.57s WALL (     286 calls)
     cegterg      :     15.67s CPU     15.80s WALL (     132 calls)

     Called by sum_band:
     sum_band:wei :      0.00s CPU      0.00s WALL (      12 calls)
     sum_band:loo :      2.42s CPU      2.44s WALL (      12 calls)
     sum_band:buf :      0.04s CPU      0.04s WALL (     132 calls)
     sum_band:ini :      0.24s CPU      0.25s WALL (     132 calls)
     sum_band:cal :      0.37s CPU      0.37s WALL (     132 calls)
     sum_band:bec :      0.01s CPU      0.01s WALL (     132 calls)
     addusdens    :      1.54s CPU      2.22s WALL (      12 calls)
                                        0.00s GPU  (      12 calls)
     addusd:skk   :      0.01s CPU      0.01s WALL (      24 calls)
                                        0.00s GPU  (      24 calls)

     Called by *egterg:
     cdiaghg      :      0.94s CPU      0.94s WALL (     606 calls)
     cegterg:over :      0.87s CPU      0.87s WALL (     474 calls)
     cegterg:upda :      0.51s CPU      0.51s WALL (     474 calls)
     cegterg:last :      1.20s CPU      1.20s WALL (     319 calls)
     h_psi        :     10.95s CPU     11.02s WALL (     617 calls)
     s_psi        :      1.26s CPU      1.27s WALL (     617 calls)
     g_psi        :      0.05s CPU      0.05s WALL (     474 calls)

     Called by h_psi:
     h_psi:calbec :      1.22s CPU      1.23s WALL (     617 calls)
     vloc_psi     :      8.31s CPU      8.37s WALL (     617 calls)
     add_vuspsi   :      1.32s CPU      1.32s WALL (     617 calls)

     General routines
     calbec       :      1.71s CPU      1.72s WALL (     793 calls)
     fft          :      0.34s CPU      0.36s WALL (     178 calls)
     ffts         :      0.01s CPU      0.02s WALL (      25 calls)
     fftw         :      6.69s CPU      6.73s WALL (   36654 calls)
     interpolate  :      0.04s CPU      0.04s WALL (      13 calls)
 
     Parallel routines
 
     PWSCF        :     26.21s CPU     28.58s WALL

 
   This run was terminated on:  21:26:45  19May2026            

=------------------------------------------------------------------------------=
   JOB DONE.
=------------------------------------------------------------------------------=
