
     Program PWSCF v.7.3.1 starts on 20May2026 at 18: 1:41 

     This program is part of the open-source Quantum ESPRESSO suite
     for quantum simulation of materials; please cite
         "P. Giannozzi et al., J. Phys.:Condens. Matter 21 395502 (2009);
         "P. Giannozzi et al., J. Phys.:Condens. Matter 29 465901 (2017);
         "P. Giannozzi et al., J. Chem. Phys. 152 154105 (2020);
          URL http://www.quantum-espresso.org", 
     in publications or presentations arising from this work. More details at
     http://www.quantum-espresso.org/quote

     Parallel version (MPI & OpenMP), running on       6 processor cores
     Number of MPI processes:                 6
     Threads/MPI process:                     1

     MPI processes distributed on     1 nodes
     9718 MiB available memory on the printing compute node when the environment starts
 
     Waiting for input...
     Reading input from standard input

     Current dimensions of program PWSCF are:
     Max number of different atomic species (ntypx) = 10
     Max number of k-points (npk) =  40000
     Max angular momentum in pseudopotentials (lmaxx) =  4
 
     K-points division:     npool     =       3
     R & G space division:  proc/nbgrp/npool/nimage =       2
     Subspace diagonalization in iterative solution of the eigenvalue problem:
     a serial algorithm will be used

 
     Parallelization info
     --------------------
     sticks:   dense  smooth     PW     G-vecs:    dense   smooth      PW
     Min        4319    1729    490               193254    48910    7345
     Max        4320    1730    491               193255    48911    7346
     Sum        8639    3459    981               386509    97821   14691
 
     Using Slab Decomposition
 


     bravais-lattice index     =            8
     lattice parameter (alat)  =      22.9413  a.u.
     unit-cell volume          =    1556.8013 (a.u.)^3
     number of atoms/cell      =            8
     number of atomic types    =            2
     number of electrons       =        80.00
     number of Kohn-Sham states=           40
     kinetic-energy cutoff     =      60.0000  Ry
     charge density cutoff     =     600.0000  Ry
     scf convergence threshold =      1.0E-08
     mixing beta               =       0.7000
     number of iterations used =            8  plain     mixing
     Exchange-correlation= SLA  PW   PBE  PBE
                           (   1   4   3   4   0   0   0)

     celldm(1)=  22.941275  celldm(2)=   0.343608  celldm(3)=   0.375247
     celldm(4)=   0.000000  celldm(5)=   0.000000  celldm(6)=   0.000000

     crystal axes: (cart. coord. in units of alat)
               a(1) = (   1.000000   0.000000   0.000000 )  
               a(2) = (   0.000000   0.343608   0.000000 )  
               a(3) = (   0.000000   0.000000   0.375247 )  

     reciprocal axes: (cart. coord. in units 2 pi/alat)
               b(1) = (  1.000000  0.000000  0.000000 )  
               b(2) = (  0.000000  2.910294  0.000000 )  
               b(3) = (  0.000000  0.000000  2.664911 )  


     PseudoPot. # 1 for Sn read from file:
     ../pseudo/Sn_pbe_v1.uspp.F.UPF
     MD5 check sum: 4cf58ce39ec5d5d420df3dd08604eb00
     Pseudo is Ultrasoft + core correction, Zval = 14.0
     Generated by new atomic code, or converted to UPF format
     Using radial grid of  891 points,  6 beta functions with: 
                l(1) =   0
                l(2) =   0
                l(3) =   1
                l(4) =   1
                l(5) =   2
                l(6) =   2
     Q(r) pseudized with  6 coefficients,  rinner =    1.200   1.200   1.200
                                                       1.200   1.200

     PseudoPot. # 2 for Se read from file:
     ../pseudo/Se_pbe_v1.uspp.F.UPF
     MD5 check sum: 1b3568f3a8ae88f9a2a0ad0698632c85
     Pseudo is Ultrasoft + core correction, Zval =  6.0
     Generated by new atomic code, or converted to UPF format
     Using radial grid of  877 points,  6 beta functions with: 
                l(1) =   0
                l(2) =   0
                l(3) =   1
                l(4) =   1
                l(5) =   2
                l(6) =   2
     Q(r) pseudized with  8 coefficients,  rinner =    1.300   1.300   1.300
                                                       1.300   1.300

     atomic species   valence    mass     pseudopotential
     Sn               14.00   118.71000     Sn( 1.00)
     Se                6.00    78.97100     Se( 1.00)

      8 Sym. Ops., with inversion, found ( 6 have fractional translation)


                                    s                        frac. trans.

      isym =  1     identity                                     

 cryst.   s( 1) = (     1          0          0      )
                  (     0          1          0      )
                  (     0          0          1      )

 cart.    s( 1) = (  1.0000000  0.0000000  0.0000000 )
                  (  0.0000000  1.0000000  0.0000000 )
                  (  0.0000000  0.0000000  1.0000000 )


      isym =  2     180 deg rotation - cart. axis [0,0,1]        

 cryst.   s( 2) = (    -1          0          0      )    f =(  0.5000000 )
                  (     0         -1          0      )       (  0.0000000 )
                  (     0          0          1      )       ( -0.5000000 )

 cart.    s( 2) = ( -1.0000000  0.0000000  0.0000000 )    f =(  0.5000000 )
                  (  0.0000000 -1.0000000  0.0000000 )       (  0.0000000 )
                  (  0.0000000  0.0000000  1.0000000 )       ( -0.1876236 )


      isym =  3     180 deg rotation - cart. axis [0,1,0]        

 cryst.   s( 3) = (    -1          0          0      )    f =(  0.0000000 )
                  (     0          1          0      )       (  0.5000000 )
                  (     0          0         -1      )       (  0.0000000 )

 cart.    s( 3) = ( -1.0000000  0.0000000  0.0000000 )    f =(  0.0000000 )
                  (  0.0000000  1.0000000  0.0000000 )       (  0.1718040 )
                  (  0.0000000  0.0000000 -1.0000000 )       (  0.0000000 )


      isym =  4     180 deg rotation - cart. axis [1,0,0]        

 cryst.   s( 4) = (     1          0          0      )    f =(  0.5000000 )
                  (     0         -1          0      )       ( -0.5000000 )
                  (     0          0         -1      )       ( -0.5000000 )

 cart.    s( 4) = (  1.0000000  0.0000000  0.0000000 )    f =(  0.5000000 )
                  (  0.0000000 -1.0000000  0.0000000 )       ( -0.1718040 )
                  (  0.0000000  0.0000000 -1.0000000 )       ( -0.1876236 )


      isym =  5     inversion                                    

 cryst.   s( 5) = (    -1          0          0      )
                  (     0         -1          0      )
                  (     0          0         -1      )

 cart.    s( 5) = ( -1.0000000  0.0000000  0.0000000 )
                  (  0.0000000 -1.0000000  0.0000000 )
                  (  0.0000000  0.0000000 -1.0000000 )


      isym =  6     inv. 180 deg rotation - cart. axis [0,0,1]   

 cryst.   s( 6) = (     1          0          0      )    f =(  0.5000000 )
                  (     0          1          0      )       (  0.0000000 )
                  (     0          0         -1      )       ( -0.5000000 )

 cart.    s( 6) = (  1.0000000  0.0000000  0.0000000 )    f =(  0.5000000 )
                  (  0.0000000  1.0000000  0.0000000 )       (  0.0000000 )
                  (  0.0000000  0.0000000 -1.0000000 )       ( -0.1876236 )


      isym =  7     inv. 180 deg rotation - cart. axis [0,1,0]   

 cryst.   s( 7) = (     1          0          0      )    f =(  0.0000000 )
                  (     0         -1          0      )       ( -0.5000000 )
                  (     0          0          1      )       (  0.0000000 )

 cart.    s( 7) = (  1.0000000  0.0000000  0.0000000 )    f =(  0.0000000 )
                  (  0.0000000 -1.0000000  0.0000000 )       ( -0.1718040 )
                  (  0.0000000  0.0000000  1.0000000 )       (  0.0000000 )


      isym =  8     inv. 180 deg rotation - cart. axis [1,0,0]   

 cryst.   s( 8) = (    -1          0          0      )    f =(  0.5000000 )
                  (     0          1          0      )       (  0.5000000 )
                  (     0          0          1      )       ( -0.5000000 )

 cart.    s( 8) = ( -1.0000000  0.0000000  0.0000000 )    f =(  0.5000000 )
                  (  0.0000000  1.0000000  0.0000000 )       (  0.1718040 )
                  (  0.0000000  0.0000000  1.0000000 )       ( -0.1876236 )


     point group D_2h (mmm) 
     there are  8 classes
     the character table:

       E     C2    C2'   C2''  i     s_v   s_v'  s_v''
A_g    1.00  1.00  1.00  1.00  1.00  1.00  1.00  1.00
B_1g   1.00  1.00 -1.00 -1.00  1.00  1.00 -1.00 -1.00
B_2g   1.00 -1.00  1.00 -1.00  1.00 -1.00  1.00 -1.00
B_3g   1.00 -1.00 -1.00  1.00  1.00 -1.00 -1.00  1.00
A_u    1.00  1.00  1.00  1.00 -1.00 -1.00 -1.00 -1.00
B_1u   1.00  1.00 -1.00 -1.00 -1.00 -1.00  1.00  1.00
B_2u   1.00 -1.00  1.00 -1.00 -1.00  1.00 -1.00  1.00
B_3u   1.00 -1.00 -1.00  1.00 -1.00  1.00  1.00 -1.00

     the symmetry operations in each class and the name of the first element:

     E        1
          identity                                               
     C2       2
          180 deg rotation - cart. axis [0,0,1]                  
     C2'      4
          180 deg rotation - cart. axis [1,0,0]                  
     C2''     3
          180 deg rotation - cart. axis [0,1,0]                  
     i        5
          inversion                                              
     s_v      6
          inv. 180 deg rotation - cart. axis [0,0,1]             
     s_v'     8
          inv. 180 deg rotation - cart. axis [1,0,0]             
     s_v''    7
          inv. 180 deg rotation - cart. axis [0,1,0]             

   Cartesian axes

     site n.     atom                  positions (alat units)
         1        Se     tau(   1) = (   0.8549563   0.0859020   0.1813374  )
         2        Sn     tau(   2) = (   0.1165395   0.0859020   0.0421354  )
         3        Se     tau(   3) = (   0.6450437   0.2577059   0.3689610  )
         4        Sn     tau(   4) = (   0.3834605   0.2577059   0.2297589  )
         5        Se     tau(   5) = (   0.3549563   0.0859020   0.0062861  )
         6        Sn     tau(   6) = (   0.6165395   0.0859020   0.1454882  )
         7        Se     tau(   7) = (   0.1450437   0.2577059   0.1939097  )
         8        Sn     tau(   8) = (   0.8834605   0.2577059   0.3331117  )

     --------------------------------------------
     DFT-D3 Dispersion Correction (3-body terms):
     --------------------------------------------
       Reference C6 values for interpolation: 

         atom   Coordination number   C6
         Se         0.000           427.35
         Se         0.990           427.57
         Se         1.981           421.05
         Sn         0.000          1255.14
         Sn         0.951          1084.09
         Sn         1.950          1010.83
         Sn         2.926           818.29
         Sn         3.912           672.20

       Values used:

         atom   Coordination number  R0_AB[au]  C6      C8
         Se         3.184            3.332    421.05  29958.36
         Sn         3.712            3.957    684.58  85922.05
         Se         3.184            3.332    421.05  29958.36
         Sn         3.712            3.957    684.58  85922.05
         Se         3.184            3.332    421.05  29958.36
         Sn         3.712            3.957    684.58  85922.05
         Se         3.184            3.332    421.05  29958.36
         Sn         3.712            3.957    684.58  85922.05

         Molecular C6 ( Ry / a.u.^6 ) =     34846.53


   Crystallographic axes

     site n.     atom                  positions (cryst. coord.)
         1        Se     tau(   1) = (  0.8549563  0.2500000  0.4832481  )
         2        Sn     tau(   2) = (  0.1165395  0.2500000  0.1122870  )
         3        Se     tau(   3) = (  0.6450437  0.7500000  0.9832481  )
         4        Sn     tau(   4) = (  0.3834605  0.7500000  0.6122870  )
         5        Se     tau(   5) = (  0.3549563  0.2500000  0.0167519  )
         6        Sn     tau(   6) = (  0.6165395  0.2500000  0.3877130  )
         7        Se     tau(   7) = (  0.1450437  0.7500000  0.5167519  )
         8        Sn     tau(   8) = (  0.8834605  0.7500000  0.8877130  )

     number of k points=    32
                       cart. coord. in units 2pi/alat
        k(    1) = (   0.1666667   0.1818934   0.1665569), wk =   0.0833333
        k(    2) = (   0.1666667   0.1818934   0.4996707), wk =   0.0833333
        k(    3) = (   0.1666667   0.1818934   0.8327845), wk =   0.0833333
        k(    4) = (   0.1666667   0.1818934   1.1658984), wk =   0.0833333
        k(    5) = (   0.1666667   0.5456801   0.1665569), wk =   0.0833333
        k(    6) = (   0.1666667   0.5456801   0.4996707), wk =   0.0833333
        k(    7) = (   0.1666667   0.5456801   0.8327845), wk =   0.0833333
        k(    8) = (   0.1666667   0.5456801   1.1658984), wk =   0.0833333
        k(    9) = (   0.1666667   0.9094668   0.1665569), wk =   0.0833333
        k(   10) = (   0.1666667   0.9094668   0.4996707), wk =   0.0833333
        k(   11) = (   0.1666667   0.9094668   0.8327845), wk =   0.0833333
        k(   12) = (   0.1666667   0.9094668   1.1658984), wk =   0.0833333
        k(   13) = (   0.1666667   1.2732536   0.1665569), wk =   0.0833333
        k(   14) = (   0.1666667   1.2732536   0.4996707), wk =   0.0833333
        k(   15) = (   0.1666667   1.2732536   0.8327845), wk =   0.0833333
        k(   16) = (   0.1666667   1.2732536   1.1658984), wk =   0.0833333
        k(   17) = (  -0.5000000   0.1818934   0.1665569), wk =   0.0416667
        k(   18) = (  -0.5000000   0.1818934   0.4996707), wk =   0.0416667
        k(   19) = (  -0.5000000   0.1818934   0.8327845), wk =   0.0416667
        k(   20) = (  -0.5000000   0.1818934   1.1658984), wk =   0.0416667
        k(   21) = (  -0.5000000   0.5456801   0.1665569), wk =   0.0416667
        k(   22) = (  -0.5000000   0.5456801   0.4996707), wk =   0.0416667
        k(   23) = (  -0.5000000   0.5456801   0.8327845), wk =   0.0416667
        k(   24) = (  -0.5000000   0.5456801   1.1658984), wk =   0.0416667
        k(   25) = (  -0.5000000   0.9094668   0.1665569), wk =   0.0416667
        k(   26) = (  -0.5000000   0.9094668   0.4996707), wk =   0.0416667
        k(   27) = (  -0.5000000   0.9094668   0.8327845), wk =   0.0416667
        k(   28) = (  -0.5000000   0.9094668   1.1658984), wk =   0.0416667
        k(   29) = (  -0.5000000   1.2732536   0.1665569), wk =   0.0416667
        k(   30) = (  -0.5000000   1.2732536   0.4996707), wk =   0.0416667
        k(   31) = (  -0.5000000   1.2732536   0.8327845), wk =   0.0416667
        k(   32) = (  -0.5000000   1.2732536   1.1658984), wk =   0.0416667

                       cryst. coord.
        k(    1) = (   0.1666667   0.0625000   0.0625000), wk =   0.0833333
        k(    2) = (   0.1666667   0.0625000   0.1875000), wk =   0.0833333
        k(    3) = (   0.1666667   0.0625000   0.3125000), wk =   0.0833333
        k(    4) = (   0.1666667   0.0625000   0.4375000), wk =   0.0833333
        k(    5) = (   0.1666667   0.1875000   0.0625000), wk =   0.0833333
        k(    6) = (   0.1666667   0.1875000   0.1875000), wk =   0.0833333
        k(    7) = (   0.1666667   0.1875000   0.3125000), wk =   0.0833333
        k(    8) = (   0.1666667   0.1875000   0.4375000), wk =   0.0833333
        k(    9) = (   0.1666667   0.3125000   0.0625000), wk =   0.0833333
        k(   10) = (   0.1666667   0.3125000   0.1875000), wk =   0.0833333
        k(   11) = (   0.1666667   0.3125000   0.3125000), wk =   0.0833333
        k(   12) = (   0.1666667   0.3125000   0.4375000), wk =   0.0833333
        k(   13) = (   0.1666667   0.4375000   0.0625000), wk =   0.0833333
        k(   14) = (   0.1666667   0.4375000   0.1875000), wk =   0.0833333
        k(   15) = (   0.1666667   0.4375000   0.3125000), wk =   0.0833333
        k(   16) = (   0.1666667   0.4375000   0.4375000), wk =   0.0833333
        k(   17) = (  -0.5000000   0.0625000   0.0625000), wk =   0.0416667
        k(   18) = (  -0.5000000   0.0625000   0.1875000), wk =   0.0416667
        k(   19) = (  -0.5000000   0.0625000   0.3125000), wk =   0.0416667
        k(   20) = (  -0.5000000   0.0625000   0.4375000), wk =   0.0416667
        k(   21) = (  -0.5000000   0.1875000   0.0625000), wk =   0.0416667
        k(   22) = (  -0.5000000   0.1875000   0.1875000), wk =   0.0416667
        k(   23) = (  -0.5000000   0.1875000   0.3125000), wk =   0.0416667
        k(   24) = (  -0.5000000   0.1875000   0.4375000), wk =   0.0416667
        k(   25) = (  -0.5000000   0.3125000   0.0625000), wk =   0.0416667
        k(   26) = (  -0.5000000   0.3125000   0.1875000), wk =   0.0416667
        k(   27) = (  -0.5000000   0.3125000   0.3125000), wk =   0.0416667
        k(   28) = (  -0.5000000   0.3125000   0.4375000), wk =   0.0416667
        k(   29) = (  -0.5000000   0.4375000   0.0625000), wk =   0.0416667
        k(   30) = (  -0.5000000   0.4375000   0.1875000), wk =   0.0416667
        k(   31) = (  -0.5000000   0.4375000   0.3125000), wk =   0.0416667
        k(   32) = (  -0.5000000   0.4375000   0.4375000), wk =   0.0416667

     Dense  grid:   386509 G-vectors     FFT dimensions: ( 180,  64,  72)

     Smooth grid:    97821 G-vectors     FFT dimensions: ( 120,  40,  48)

     Dynamical RAM for                 wfc:       3.73 MB

     Dynamical RAM for     wfc (w. buffer):      44.74 MB

     Dynamical RAM for           str. fact:       5.90 MB

     Dynamical RAM for           local pot:       0.00 MB

     Dynamical RAM for          nlocal pot:      13.42 MB

     Dynamical RAM for                qrad:       3.93 MB

     Dynamical RAM for          rho,v,vnew:      18.34 MB

     Dynamical RAM for               rhoin:       6.11 MB

     Dynamical RAM for            rho*nmix:      47.18 MB

     Dynamical RAM for           G-vectors:      11.43 MB

     Dynamical RAM for          h,s,v(r/c):       0.29 MB

     Dynamical RAM for          <psi|beta>:       0.09 MB

     Dynamical RAM for                 psi:       7.46 MB

     Dynamical RAM for                hpsi:       7.46 MB

     Dynamical RAM for                spsi:       7.46 MB

     Dynamical RAM for      wfcinit/wfcrot:       9.76 MB

     Dynamical RAM for           addusdens:     188.72 MB

     Dynamical RAM for          addusforce:     194.15 MB

     Estimated static dynamical RAM per process >     128.54 MB

     Estimated max dynamical RAM per process >     369.87 MB

     Estimated total dynamical RAM >       1.98 GB

     Initial potential from superposition of free atoms

     starting charge      75.9995, renormalised to      80.0000
     Starting wfcs are   52 randomized atomic wfcs

     total cpu time spent up to now is        4.1 secs

     Self-consistent Calculation

     iteration #  1     ecut=    60.00 Ry     beta= 0.70
     Davidson diagonalization with overlap

---- Real-time Memory Report at c_bands before calling an iterative solver
           406 MiB given to the printing process from OS
             0 MiB allocation reported by mallinfo(arena+hblkhd)
          8672 MiB available memory on the node where the printing process lives
------------------
     ethr =  1.00E-02,  avg # of iterations =  2.0

     total cpu time spent up to now is       11.2 secs

     total energy              =    -826.60100318 Ry
     estimated scf accuracy    <       2.73563797 Ry

     iteration #  2     ecut=    60.00 Ry     beta= 0.70
     Davidson diagonalization with overlap

---- Real-time Memory Report at c_bands before calling an iterative solver
           512 MiB given to the printing process from OS
             0 MiB allocation reported by mallinfo(arena+hblkhd)
          8383 MiB available memory on the node where the printing process lives
------------------
     ethr =  3.42E-03,  avg # of iterations =  3.0

     total cpu time spent up to now is       19.2 secs

     total energy              =    -827.50181157 Ry
     estimated scf accuracy    <       1.10551158 Ry

     iteration #  3     ecut=    60.00 Ry     beta= 0.70
     Davidson diagonalization with overlap

---- Real-time Memory Report at c_bands before calling an iterative solver
           552 MiB given to the printing process from OS
             0 MiB allocation reported by mallinfo(arena+hblkhd)
          8215 MiB available memory on the node where the printing process lives
------------------
     ethr =  1.38E-03,  avg # of iterations =  2.8

     total cpu time spent up to now is       26.5 secs

     total energy              =    -827.73048997 Ry
     estimated scf accuracy    <       0.01437002 Ry

     iteration #  4     ecut=    60.00 Ry     beta= 0.70
     Davidson diagonalization with overlap

---- Real-time Memory Report at c_bands before calling an iterative solver
           555 MiB given to the printing process from OS
             0 MiB allocation reported by mallinfo(arena+hblkhd)
          8205 MiB available memory on the node where the printing process lives
------------------
     ethr =  1.80E-05,  avg # of iterations =  4.9

     total cpu time spent up to now is       35.9 secs

     total energy              =    -827.73869715 Ry
     estimated scf accuracy    <       0.00613238 Ry

     iteration #  5     ecut=    60.00 Ry     beta= 0.70
     Davidson diagonalization with overlap

---- Real-time Memory Report at c_bands before calling an iterative solver
           559 MiB given to the printing process from OS
             0 MiB allocation reported by mallinfo(arena+hblkhd)
          8194 MiB available memory on the node where the printing process lives
------------------
     ethr =  7.67E-06,  avg # of iterations =  2.2

     total cpu time spent up to now is       42.6 secs

     total energy              =    -827.73971779 Ry
     estimated scf accuracy    <       0.00072102 Ry

     iteration #  6     ecut=    60.00 Ry     beta= 0.70
     Davidson diagonalization with overlap

---- Real-time Memory Report at c_bands before calling an iterative solver
           563 MiB given to the printing process from OS
             0 MiB allocation reported by mallinfo(arena+hblkhd)
          8191 MiB available memory on the node where the printing process lives
------------------
     ethr =  9.01E-07,  avg # of iterations =  4.4

     total cpu time spent up to now is       50.8 secs

     total energy              =    -827.73983722 Ry
     estimated scf accuracy    <       0.00109879 Ry

     iteration #  7     ecut=    60.00 Ry     beta= 0.70
     Davidson diagonalization with overlap

---- Real-time Memory Report at c_bands before calling an iterative solver
           566 MiB given to the printing process from OS
             0 MiB allocation reported by mallinfo(arena+hblkhd)
          8186 MiB available memory on the node where the printing process lives
------------------
     ethr =  9.01E-07,  avg # of iterations =  2.8

     total cpu time spent up to now is       58.1 secs

     total energy              =    -827.73998920 Ry
     estimated scf accuracy    <       0.00002644 Ry

     iteration #  8     ecut=    60.00 Ry     beta= 0.70
     Davidson diagonalization with overlap

---- Real-time Memory Report at c_bands before calling an iterative solver
           568 MiB given to the printing process from OS
             0 MiB allocation reported by mallinfo(arena+hblkhd)
          8183 MiB available memory on the node where the printing process lives
------------------
     ethr =  3.31E-08,  avg # of iterations =  5.0

     total cpu time spent up to now is       66.9 secs

     total energy              =    -827.74001058 Ry
     estimated scf accuracy    <       0.00002617 Ry

     iteration #  9     ecut=    60.00 Ry     beta= 0.70
     Davidson diagonalization with overlap

---- Real-time Memory Report at c_bands before calling an iterative solver
           571 MiB given to the printing process from OS
             0 MiB allocation reported by mallinfo(arena+hblkhd)
          8180 MiB available memory on the node where the printing process lives
------------------
     ethr =  3.27E-08,  avg # of iterations =  2.0

     total cpu time spent up to now is       73.8 secs

     total energy              =    -827.74001267 Ry
     estimated scf accuracy    <       0.00000211 Ry

     iteration # 10     ecut=    60.00 Ry     beta= 0.70
     Davidson diagonalization with overlap

---- Real-time Memory Report at c_bands before calling an iterative solver
           577 MiB given to the printing process from OS
             0 MiB allocation reported by mallinfo(arena+hblkhd)
          8172 MiB available memory on the node where the printing process lives
------------------
     ethr =  2.63E-09,  avg # of iterations =  5.1

     total cpu time spent up to now is       83.3 secs

     total energy              =    -827.74001406 Ry
     estimated scf accuracy    <       0.00000032 Ry

     iteration # 11     ecut=    60.00 Ry     beta= 0.70
     Davidson diagonalization with overlap

---- Real-time Memory Report at c_bands before calling an iterative solver
           578 MiB given to the printing process from OS
             0 MiB allocation reported by mallinfo(arena+hblkhd)
          8177 MiB available memory on the node where the printing process lives
------------------
     ethr =  3.97E-10,  avg # of iterations =  3.5

     total cpu time spent up to now is       91.3 secs

     total energy              =    -827.74001407 Ry
     estimated scf accuracy    <       0.00000013 Ry

     iteration # 12     ecut=    60.00 Ry     beta= 0.70
     Davidson diagonalization with overlap

---- Real-time Memory Report at c_bands before calling an iterative solver
           580 MiB given to the printing process from OS
             0 MiB allocation reported by mallinfo(arena+hblkhd)
          8177 MiB available memory on the node where the printing process lives
------------------
     ethr =  1.57E-10,  avg # of iterations =  3.3

     total cpu time spent up to now is       98.6 secs

     End of self-consistent calculation

          k = 0.1667 0.1819 0.1666 ( 12239 PWs)   bands (ev):

   -14.4065 -14.3990 -14.3948 -14.3906 -14.3878 -14.3862 -14.3853 -14.3846
   -14.3775 -14.3706 -14.3672 -14.3662 -14.3642 -14.3607 -14.3489 -14.3452
   -14.3408 -14.3378 -14.3348 -14.3316  -6.3166  -6.0918  -5.5309  -5.2372
     0.0565   0.7670   1.3998   1.8345   2.6718   3.8092   3.9876   4.1997
     4.4082   4.4762   4.9315   5.1860   5.3870   5.6422   6.2788   6.5632

     occupation numbers 
     1.0000   1.0000   1.0000   1.0000   1.0000   1.0000   1.0000   1.0000
     1.0000   1.0000   1.0000   1.0000   1.0000   1.0000   1.0000   1.0000
     1.0000   1.0000   1.0000   1.0000   1.0000   1.0000   1.0000   1.0000
     1.0000   1.0000   1.0000   1.0000   1.0000   1.0000   1.0000   1.0000
     1.0000   1.0000   1.0000   1.0000   1.0000   1.0000   1.0000   1.0000

          k = 0.1667 0.1819 0.4997 ( 12228 PWs)   bands (ev):

   -14.4055 -14.3989 -14.3949 -14.3910 -14.3877 -14.3869 -14.3855 -14.3854
   -14.3757 -14.3699 -14.3670 -14.3665 -14.3628 -14.3594 -14.3492 -14.3459
   -14.3404 -14.3379 -14.3347 -14.3320  -6.2100  -5.9945  -5.5146  -5.2484
    -0.2712   0.4574   0.9502   1.4632   2.7470   3.8814   4.0902   4.4729
     4.7347   4.9558   5.0012   5.2870   5.7631   6.0705   6.1917   6.5121

     occupation numbers 
     1.0000   1.0000   1.0000   1.0000   1.0000   1.0000   1.0000   1.0000
     1.0000   1.0000   1.0000   1.0000   1.0000   1.0000   1.0000   1.0000
     1.0000   1.0000   1.0000   1.0000   1.0000   1.0000   1.0000   1.0000
     1.0000   1.0000   1.0000   1.0000   1.0000   1.0000   1.0000   1.0000
     1.0000   1.0000   1.0000   1.0000   1.0000   1.0000   1.0000   1.0000

          k = 0.1667 0.1819 0.8328 ( 12211 PWs)   bands (ev):

   -14.4038 -14.3990 -14.3949 -14.3919 -14.3879 -14.3877 -14.3866 -14.3859
   -14.3730 -14.3693 -14.3674 -14.3671 -14.3599 -14.3574 -14.3493 -14.3471
   -14.3397 -14.3381 -14.3344 -14.3327  -6.0216  -5.8238  -5.5197  -5.2973
    -0.6150  -0.0573   0.5262   0.9610   3.0391   4.1140   4.3264   4.8297
     4.8703   5.1156   5.2991   5.5396   5.9130   6.3506   6.4148   6.7519

     occupation numbers 
     1.0000   1.0000   1.0000   1.0000   1.0000   1.0000   1.0000   1.0000
     1.0000   1.0000   1.0000   1.0000   1.0000   1.0000   1.0000   1.0000
     1.0000   1.0000   1.0000   1.0000   1.0000   1.0000   1.0000   1.0000
     1.0000   1.0000   1.0000   1.0000   1.0000   1.0000   1.0000   1.0000
     1.0000   1.0000   1.0000   1.0000   1.0000   1.0000   1.0000   1.0000

          k = 0.1667 0.1819 1.1659 ( 12201 PWs)   bands (ev):

   -14.4018 -14.4000 -14.3943 -14.3932 -14.3883 -14.3882 -14.3868 -14.3865
   -14.3707 -14.3695 -14.3676 -14.3674 -14.3573 -14.3564 -14.3490 -14.3482
   -14.3390 -14.3384 -14.3340 -14.3334  -5.8055  -5.6682  -5.5548  -5.4119
    -0.7288  -0.5224   0.3861   0.5517   3.5113   4.0282   4.6715   4.8708
     5.0553   5.1333   5.2916   5.6258   6.2001   6.5618   6.6928   6.7770

     occupation numbers 
     1.0000   1.0000   1.0000   1.0000   1.0000   1.0000   1.0000   1.0000
     1.0000   1.0000   1.0000   1.0000   1.0000   1.0000   1.0000   1.0000
     1.0000   1.0000   1.0000   1.0000   1.0000   1.0000   1.0000   1.0000
     1.0000   1.0000   1.0000   1.0000   1.0000   1.0000   1.0000   1.0000
     1.0000   1.0000   1.0000   1.0000   1.0000   1.0000   1.0000   1.0000

          k = 0.1667 0.5457 0.1666 ( 12247 PWs)   bands (ev):

   -14.4013 -14.3957 -14.3919 -14.3896 -14.3890 -14.3881 -14.3858 -14.3851
   -14.3778 -14.3715 -14.3713 -14.3707 -14.3613 -14.3576 -14.3461 -14.3432
   -14.3421 -14.3407 -14.3342 -14.3318  -6.1648  -5.9586  -5.4545  -5.2049
    -0.1176   0.4850   1.0835   1.2405   2.7833   3.7243   3.9838   4.2100
     4.5481   4.8099   4.9300   5.2032   5.5462   6.0593   6.3108   6.4354

     occupation numbers 
     1.0000   1.0000   1.0000   1.0000   1.0000   1.0000   1.0000   1.0000
     1.0000   1.0000   1.0000   1.0000   1.0000   1.0000   1.0000   1.0000
     1.0000   1.0000   1.0000   1.0000   1.0000   1.0000   1.0000   1.0000
     1.0000   1.0000   1.0000   1.0000   1.0000   1.0000   1.0000   1.0000
     1.0000   1.0000   1.0000   1.0000   1.0000   1.0000   1.0000   1.0000

          k = 0.1667 0.5457 0.4997 ( 12221 PWs)   bands (ev):

   -14.4008 -14.3957 -14.3924 -14.3909 -14.3892 -14.3885 -14.3859 -14.3855
   -14.3766 -14.3719 -14.3708 -14.3698 -14.3599 -14.3565 -14.3463 -14.3435
   -14.3420 -14.3406 -14.3341 -14.3321  -6.0638  -5.8671  -5.4373  -5.2102
    -0.2838   0.3818   0.7921   1.1343   2.9131   3.3296   3.5640   4.1899
     4.3997   4.9134   5.3245   5.4106   6.0329   6.1365   6.3442   6.5080

     occupation numbers 
     1.0000   1.0000   1.0000   1.0000   1.0000   1.0000   1.0000   1.0000
     1.0000   1.0000   1.0000   1.0000   1.0000   1.0000   1.0000   1.0000
     1.0000   1.0000   1.0000   1.0000   1.0000   1.0000   1.0000   1.0000
     1.0000   1.0000   1.0000   1.0000   1.0000   1.0000   1.0000   1.0000
     1.0000   1.0000   1.0000   1.0000   1.0000   1.0000   1.0000   1.0000

          k = 0.1667 0.5457 0.8328 ( 12210 PWs)   bands (ev):

   -14.3998 -14.3955 -14.3938 -14.3927 -14.3896 -14.3891 -14.3862 -14.3860
   -14.3749 -14.3725 -14.3701 -14.3690 -14.3574 -14.3550 -14.3464 -14.3445
   -14.3415 -14.3405 -14.3339 -14.3326  -5.8873  -5.7085  -5.4376  -5.2460
    -0.4864   0.0414   0.5547   0.8913   3.1679   3.2803   3.5114   4.1576
     4.2325   5.0047   5.1393   5.6893   5.8873   6.0934   6.2640   6.4689

     occupation numbers 
     1.0000   1.0000   1.0000   1.0000   1.0000   1.0000   1.0000   1.0000
     1.0000   1.0000   1.0000   1.0000   1.0000   1.0000   1.0000   1.0000
     1.0000   1.0000   1.0000   1.0000   1.0000   1.0000   1.0000   1.0000
     1.0000   1.0000   1.0000   1.0000   1.0000   1.0000   1.0000   1.0000
     1.0000   1.0000   1.0000   1.0000   1.0000   1.0000   1.0000   1.0000

          k = 0.1667 0.5457 1.1659 ( 12190 PWs)   bands (ev):

   -14.3983 -14.3963 -14.3948 -14.3939 -14.3898 -14.3896 -14.3865 -14.3863
   -14.3737 -14.3731 -14.3693 -14.3687 -14.3550 -14.3542 -14.3462 -14.3455
   -14.3409 -14.3405 -14.3335 -14.3331  -5.6886  -5.5659  -5.4657  -5.3409
    -0.5421  -0.3486   0.5006   0.6310   3.4715   3.5238   3.7443   3.9816
     4.2140   4.5815   5.1721   5.4605   5.7458   5.9670   6.1736   6.3390

     occupation numbers 
     1.0000   1.0000   1.0000   1.0000   1.0000   1.0000   1.0000   1.0000
     1.0000   1.0000   1.0000   1.0000   1.0000   1.0000   1.0000   1.0000
     1.0000   1.0000   1.0000   1.0000   1.0000   1.0000   1.0000   1.0000
     1.0000   1.0000   1.0000   1.0000   1.0000   1.0000   1.0000   1.0000
     1.0000   1.0000   1.0000   1.0000   1.0000   1.0000   1.0000   1.0000

          k = 0.1667 0.9095 0.1666 ( 12209 PWs)   bands (ev):

   -14.3952 -14.3937 -14.3913 -14.3910 -14.3906 -14.3870 -14.3837 -14.3833
   -14.3788 -14.3757 -14.3751 -14.3724 -14.3581 -14.3548 -14.3460 -14.3459
   -14.3412 -14.3387 -14.3328 -14.3317  -5.8935  -5.7308  -5.3606  -5.2020
    -0.3666   0.0964   0.4371   0.5976   3.1123   3.8486   4.1862   4.4180
     4.8507   4.9391   5.1021   5.2812   5.7169   6.1247   6.1971   6.4762

     occupation numbers 
     1.0000   1.0000   1.0000   1.0000   1.0000   1.0000   1.0000   1.0000
     1.0000   1.0000   1.0000   1.0000   1.0000   1.0000   1.0000   1.0000
     1.0000   1.0000   1.0000   1.0000   1.0000   1.0000   1.0000   1.0000
     1.0000   1.0000   1.0000   1.0000   1.0000   1.0000   1.0000   1.0000
     1.0000   1.0000   1.0000   1.0000   1.0000   1.0000   1.0000   1.0000

          k = 0.1667 0.9095 0.4997 ( 12223 PWs)   bands (ev):

   -14.3971 -14.3938 -14.3924 -14.3918 -14.3913 -14.3873 -14.3838 -14.3833
   -14.3781 -14.3759 -14.3741 -14.3717 -14.3568 -14.3539 -14.3456 -14.3455
   -14.3412 -14.3392 -14.3328 -14.3318  -5.8056  -5.6524  -5.3386  -5.1925
    -0.3318   0.1845   0.4444   0.5924   3.1072   3.2329   3.5083   3.9716
     4.3747   4.9801   5.1784   5.5063   5.6502   5.8091   6.1140   6.3002

     occupation numbers 
     1.0000   1.0000   1.0000   1.0000   1.0000   1.0000   1.0000   1.0000
     1.0000   1.0000   1.0000   1.0000   1.0000   1.0000   1.0000   1.0000
     1.0000   1.0000   1.0000   1.0000   1.0000   1.0000   1.0000   1.0000
     1.0000   1.0000   1.0000   1.0000   1.0000   1.0000   1.0000   1.0000
     1.0000   1.0000   1.0000   1.0000   1.0000   1.0000   1.0000   1.0000

          k = 0.1667 0.9095 0.8328 ( 12220 PWs)   bands (ev):

   -14.3987 -14.3961 -14.3936 -14.3932 -14.3909 -14.3880 -14.3840 -14.3835
   -14.3771 -14.3761 -14.3727 -14.3710 -14.3547 -14.3527 -14.3449 -14.3449
   -14.3412 -14.3398 -14.3326 -14.3320  -5.6564  -5.5204  -5.3247  -5.1977
    -0.2862   0.1524   0.4859   0.6424   2.7088   3.0001   3.4482   3.6353
     3.8270   4.5729   4.8651   5.1445   5.4268   5.5268   5.7169   6.1937

     occupation numbers 
     1.0000   1.0000   1.0000   1.0000   1.0000   1.0000   1.0000   1.0000
     1.0000   1.0000   1.0000   1.0000   1.0000   1.0000   1.0000   1.0000
     1.0000   1.0000   1.0000   1.0000   1.0000   1.0000   1.0000   1.0000
     1.0000   1.0000   1.0000   1.0000   1.0000   1.0000   1.0000   1.0000
     1.0000   1.0000   1.0000   1.0000   1.0000   1.0000   1.0000   1.0000

          k = 0.1667 0.9095 1.1659 ( 12211 PWs)   bands (ev):

   -14.3993 -14.3984 -14.3944 -14.3943 -14.3900 -14.3890 -14.3840 -14.3839
   -14.3764 -14.3761 -14.3715 -14.3709 -14.3527 -14.3520 -14.3444 -14.3444
   -14.3409 -14.3404 -14.3324 -14.3322  -5.4968  -5.4063  -5.3349  -5.2488
    -0.2122  -0.0532   0.6054   0.6612   2.7139   3.0257   3.0587   3.4040
     3.8636   4.2724   4.4786   4.8860   5.0193   5.2360   5.7431   5.9079

     occupation numbers 
     1.0000   1.0000   1.0000   1.0000   1.0000   1.0000   1.0000   1.0000
     1.0000   1.0000   1.0000   1.0000   1.0000   1.0000   1.0000   1.0000
     1.0000   1.0000   1.0000   1.0000   1.0000   1.0000   1.0000   1.0000
     1.0000   1.0000   1.0000   1.0000   1.0000   1.0000   1.0000   1.0000
     1.0000   1.0000   1.0000   1.0000   1.0000   1.0000   1.0000   1.0000

          k = 0.1667 1.2733 0.1666 ( 12208 PWs)   bands (ev):

   -14.3954 -14.3942 -14.3932 -14.3926 -14.3864 -14.3834 -14.3833 -14.3821
   -14.3790 -14.3778 -14.3764 -14.3747 -14.3549 -14.3523 -14.3509 -14.3494
   -14.3361 -14.3347 -14.3327 -14.3325  -5.5750  -5.4916  -5.3511  -5.3174
    -0.4539  -0.1829  -0.0732   0.1247   3.6369   4.0949   4.4112   4.6558
     4.8282   4.9114   5.2518   5.4622   5.8519   5.9714   6.0633   6.1959

     occupation numbers 
     1.0000   1.0000   1.0000   1.0000   1.0000   1.0000   1.0000   1.0000
     1.0000   1.0000   1.0000   1.0000   1.0000   1.0000   1.0000   1.0000
     1.0000   1.0000   1.0000   1.0000   1.0000   1.0000   1.0000   1.0000
     1.0000   1.0000   1.0000   1.0000   1.0000   1.0000   1.0000   1.0000
     1.0000   1.0000   1.0000   1.0000   1.0000   1.0000   1.0000   1.0000

          k = 0.1667 1.2733 0.4997 ( 12224 PWs)   bands (ev):

   -14.3973 -14.3957 -14.3949 -14.3942 -14.3863 -14.3837 -14.3832 -14.3822
   -14.3782 -14.3775 -14.3754 -14.3740 -14.3540 -14.3522 -14.3496 -14.3486
   -14.3362 -14.3350 -14.3326 -14.3325  -5.5101  -5.4338  -5.3155  -5.2821
    -0.3100  -0.0453   0.0658   0.2043   3.3807   3.5901   3.8111   4.1068
     4.1611   4.6726   4.9981   5.1666   5.2837   5.5713   5.8436   6.1606

     occupation numbers 
     1.0000   1.0000   1.0000   1.0000   1.0000   1.0000   1.0000   1.0000
     1.0000   1.0000   1.0000   1.0000   1.0000   1.0000   1.0000   1.0000
     1.0000   1.0000   1.0000   1.0000   1.0000   1.0000   1.0000   1.0000
     1.0000   1.0000   1.0000   1.0000   1.0000   1.0000   1.0000   1.0000
     1.0000   1.0000   1.0000   1.0000   1.0000   1.0000   1.0000   1.0000

          k = 0.1667 1.2733 0.8328 ( 12225 PWs)   bands (ev):

   -14.3996 -14.3983 -14.3971 -14.3965 -14.3862 -14.3844 -14.3830 -14.3824
   -14.3773 -14.3770 -14.3743 -14.3733 -14.3526 -14.3515 -14.3478 -14.3473
   -14.3362 -14.3355 -14.3325 -14.3324  -5.4069  -5.3435  -5.2705  -5.2367
    -0.0685   0.1628   0.2935   0.3414   2.7307   3.1406   3.2331   3.6406
     3.6953   4.1295   4.2987   4.7676   4.8421   5.1437   5.7019   5.8635

     occupation numbers 
     1.0000   1.0000   1.0000   1.0000   1.0000   1.0000   1.0000   1.0000
     1.0000   1.0000   1.0000   1.0000   1.0000   1.0000   1.0000   1.0000
     1.0000   1.0000   1.0000   1.0000   1.0000   1.0000   1.0000   1.0000
     1.0000   1.0000   1.0000   1.0000   1.0000   1.0000   1.0000   1.0000
     1.0000   1.0000   1.0000   1.0000   1.0000   1.0000   1.0000   1.0000

          k = 0.1667 1.2733 1.1659 ( 12215 PWs)   bands (ev):

   -14.4010 -14.4005 -14.3984 -14.3982 -14.3858 -14.3852 -14.3828 -14.3826
   -14.3768 -14.3767 -14.3735 -14.3731 -14.3512 -14.3509 -14.3466 -14.3465
   -14.3361 -14.3358 -14.3324 -14.3324  -5.3110  -5.2729  -5.2464  -5.2190
     0.1596   0.2522   0.4939   0.5136   2.4646   2.6597   2.9794   3.2083
     3.4095   3.5706   3.9857   4.2772   4.8461   5.0487   5.6361   5.6705

     occupation numbers 
     1.0000   1.0000   1.0000   1.0000   1.0000   1.0000   1.0000   1.0000
     1.0000   1.0000   1.0000   1.0000   1.0000   1.0000   1.0000   1.0000
     1.0000   1.0000   1.0000   1.0000   1.0000   1.0000   1.0000   1.0000
     1.0000   1.0000   1.0000   1.0000   1.0000   1.0000   1.0000   1.0000
     1.0000   1.0000   1.0000   1.0000   1.0000   1.0000   1.0000   1.0000

          k =-0.5000 0.1819 0.1666 ( 12254 PWs)   bands (ev):

   -14.4035 -14.4035 -14.3921 -14.3921 -14.3870 -14.3870 -14.3850 -14.3850
   -14.3744 -14.3744 -14.3666 -14.3666 -14.3622 -14.3622 -14.3473 -14.3473
   -14.3390 -14.3390 -14.3331 -14.3331  -6.2235  -6.2235  -5.3648  -5.3648
     0.3061   0.3061   1.7228   1.7228   3.2095   3.2095   4.1229   4.1229
     4.4886   4.4886   5.0038   5.0038   5.3360   5.3360   6.4586   6.4586

     occupation numbers 
     1.0000   1.0000   1.0000   1.0000   1.0000   1.0000   1.0000   1.0000
     1.0000   1.0000   1.0000   1.0000   1.0000   1.0000   1.0000   1.0000
     1.0000   1.0000   1.0000   1.0000   1.0000   1.0000   1.0000   1.0000
     1.0000   1.0000   1.0000   1.0000   1.0000   1.0000   1.0000   1.0000
     1.0000   1.0000   1.0000   1.0000   1.0000   1.0000   1.0000   1.0000

          k =-0.5000 0.1819 0.4997 ( 12240 PWs)   bands (ev):

   -14.4029 -14.4029 -14.3924 -14.3924 -14.3871 -14.3871 -14.3857 -14.3857
   -14.3730 -14.3730 -14.3668 -14.3668 -14.3608 -14.3608 -14.3477 -14.3477
   -14.3390 -14.3390 -14.3333 -14.3333  -6.1215  -6.1215  -5.3623  -5.3623
    -0.0087  -0.0087   1.2844   1.2844   3.3746   3.3746   4.1705   4.1705
     4.8361   4.8361   5.1686   5.1686   5.8348   5.8348   6.3297   6.3297

     occupation numbers 
     1.0000   1.0000   1.0000   1.0000   1.0000   1.0000   1.0000   1.0000
     1.0000   1.0000   1.0000   1.0000   1.0000   1.0000   1.0000   1.0000
     1.0000   1.0000   1.0000   1.0000   1.0000   1.0000   1.0000   1.0000
     1.0000   1.0000   1.0000   1.0000   1.0000   1.0000   1.0000   1.0000
     1.0000   1.0000   1.0000   1.0000   1.0000   1.0000   1.0000   1.0000

          k =-0.5000 0.1819 0.8328 ( 12214 PWs)   bands (ev):

   -14.4018 -14.4018 -14.3931 -14.3931 -14.3874 -14.3874 -14.3867 -14.3867
   -14.3710 -14.3710 -14.3674 -14.3674 -14.3586 -14.3586 -14.3482 -14.3482
   -14.3389 -14.3389 -14.3335 -14.3335  -5.9432  -5.9432  -5.3880  -5.3880
    -0.3840  -0.3840   0.7584   0.7584   3.6788   3.6788   4.4429   4.4429
     4.9742   4.9742   5.4269   5.4269   6.0548   6.0548   6.5576   6.5576

     occupation numbers 
     1.0000   1.0000   1.0000   1.0000   1.0000   1.0000   1.0000   1.0000
     1.0000   1.0000   1.0000   1.0000   1.0000   1.0000   1.0000   1.0000
     1.0000   1.0000   1.0000   1.0000   1.0000   1.0000   1.0000   1.0000
     1.0000   1.0000   1.0000   1.0000   1.0000   1.0000   1.0000   1.0000
     1.0000   1.0000   1.0000   1.0000   1.0000   1.0000   1.0000   1.0000

          k =-0.5000 0.1819 1.1659 ( 12194 PWs)   bands (ev):

   -14.4009 -14.4009 -14.3938 -14.3938 -14.3877 -14.3877 -14.3872 -14.3872
   -14.3696 -14.3696 -14.3679 -14.3679 -14.3569 -14.3569 -14.3485 -14.3485
   -14.3388 -14.3388 -14.3336 -14.3336  -5.7543  -5.7543  -5.4662  -5.4662
    -0.6083  -0.6083   0.4173   0.4173   4.0890   4.0890   4.7429   4.7429
     4.8093   4.8093   5.2615   5.2615   6.4670   6.4670   6.7345   6.7345

     occupation numbers 
     1.0000   1.0000   1.0000   1.0000   1.0000   1.0000   1.0000   1.0000
     1.0000   1.0000   1.0000   1.0000   1.0000   1.0000   1.0000   1.0000
     1.0000   1.0000   1.0000   1.0000   1.0000   1.0000   1.0000   1.0000
     1.0000   1.0000   1.0000   1.0000   1.0000   1.0000   1.0000   1.0000
     1.0000   1.0000   1.0000   1.0000   1.0000   1.0000   1.0000   1.0000

          k =-0.5000 0.5457 0.1666 ( 12246 PWs)   bands (ev):

   -14.3990 -14.3990 -14.3904 -14.3904 -14.3885 -14.3885 -14.3856 -14.3856
   -14.3746 -14.3746 -14.3712 -14.3712 -14.3592 -14.3592 -14.3448 -14.3448
   -14.3413 -14.3413 -14.3330 -14.3330  -6.0789  -6.0789  -5.3123  -5.3123
     0.1099   0.1099   1.2204   1.2204   3.3373   3.3373   3.9821   3.9821
     4.7872   4.7872   4.9566   4.9566   5.6304   5.6304   6.4586   6.4586

     occupation numbers 
     1.0000   1.0000   1.0000   1.0000   1.0000   1.0000   1.0000   1.0000
     1.0000   1.0000   1.0000   1.0000   1.0000   1.0000   1.0000   1.0000
     1.0000   1.0000   1.0000   1.0000   1.0000   1.0000   1.0000   1.0000
     1.0000   1.0000   1.0000   1.0000   1.0000   1.0000   1.0000   1.0000
     1.0000   1.0000   1.0000   1.0000   1.0000   1.0000   1.0000   1.0000

          k =-0.5000 0.5457 0.4997 ( 12226 PWs)   bands (ev):

   -14.3987 -14.3987 -14.3914 -14.3914 -14.3888 -14.3888 -14.3858 -14.3858
   -14.3735 -14.3735 -14.3712 -14.3712 -14.3580 -14.3580 -14.3450 -14.3450
   -14.3413 -14.3413 -14.3330 -14.3330  -5.9825  -5.9825  -5.3065  -5.3065
    -0.0370  -0.0370   1.0270   1.0270   3.3155   3.3155   3.7716   3.7716
     4.4123   4.4123   5.4786   5.4786   6.0421   6.0421   6.4262   6.4262

     occupation numbers 
     1.0000   1.0000   1.0000   1.0000   1.0000   1.0000   1.0000   1.0000
     1.0000   1.0000   1.0000   1.0000   1.0000   1.0000   1.0000   1.0000
     1.0000   1.0000   1.0000   1.0000   1.0000   1.0000   1.0000   1.0000
     1.0000   1.0000   1.0000   1.0000   1.0000   1.0000   1.0000   1.0000
     1.0000   1.0000   1.0000   1.0000   1.0000   1.0000   1.0000   1.0000

          k =-0.5000 0.5457 0.8328 ( 12220 PWs)   bands (ev):

   -14.3980 -14.3980 -14.3931 -14.3931 -14.3893 -14.3893 -14.3860 -14.3860
   -14.3721 -14.3721 -14.3713 -14.3713 -14.3560 -14.3560 -14.3454 -14.3454
   -14.3412 -14.3412 -14.3331 -14.3331  -5.8160  -5.8160  -5.3237  -5.3237
    -0.2660  -0.2660   0.7407   0.7407   3.3155   3.3155   3.9384   3.9384
     4.2962   4.2962   5.4892   5.4892   5.9124   5.9124   6.3918   6.3918

     occupation numbers 
     1.0000   1.0000   1.0000   1.0000   1.0000   1.0000   1.0000   1.0000
     1.0000   1.0000   1.0000   1.0000   1.0000   1.0000   1.0000   1.0000
     1.0000   1.0000   1.0000   1.0000   1.0000   1.0000   1.0000   1.0000
     1.0000   1.0000   1.0000   1.0000   1.0000   1.0000   1.0000   1.0000
     1.0000   1.0000   1.0000   1.0000   1.0000   1.0000   1.0000   1.0000

          k =-0.5000 0.5457 1.1659 ( 12208 PWs)   bands (ev):

   -14.3970 -14.3970 -14.3950 -14.3950 -14.3896 -14.3896 -14.3862 -14.3862
   -14.3720 -14.3720 -14.3705 -14.3705 -14.3545 -14.3545 -14.3456 -14.3456
   -14.3411 -14.3411 -14.3331 -14.3331  -5.6427  -5.6427  -5.3880  -5.3880
    -0.4305  -0.4305   0.5244   0.5244   3.5492   3.5492   3.9054   3.9054
     4.5625   4.5625   5.0568   5.0568   5.7327   5.7327   6.1959   6.1959

     occupation numbers 
     1.0000   1.0000   1.0000   1.0000   1.0000   1.0000   1.0000   1.0000
     1.0000   1.0000   1.0000   1.0000   1.0000   1.0000   1.0000   1.0000
     1.0000   1.0000   1.0000   1.0000   1.0000   1.0000   1.0000   1.0000
     1.0000   1.0000   1.0000   1.0000   1.0000   1.0000   1.0000   1.0000
     1.0000   1.0000   1.0000   1.0000   1.0000   1.0000   1.0000   1.0000

          k =-0.5000 0.9095 0.1666 ( 12214 PWs)   bands (ev):

   -14.3947 -14.3947 -14.3911 -14.3911 -14.3888 -14.3888 -14.3839 -14.3839
   -14.3761 -14.3761 -14.3747 -14.3747 -14.3562 -14.3562 -14.3461 -14.3461
   -14.3400 -14.3400 -14.3322 -14.3322  -5.8247  -5.8247  -5.2684  -5.2684
    -0.1725  -0.1725   0.5324   0.5324   3.6285   3.6285   4.1565   4.1565
     4.9542   4.9542   5.1709   5.1709   5.6997   5.6997   6.3588   6.3588

     occupation numbers 
     1.0000   1.0000   1.0000   1.0000   1.0000   1.0000   1.0000   1.0000
     1.0000   1.0000   1.0000   1.0000   1.0000   1.0000   1.0000   1.0000
     1.0000   1.0000   1.0000   1.0000   1.0000   1.0000   1.0000   1.0000
     1.0000   1.0000   1.0000   1.0000   1.0000   1.0000   1.0000   1.0000
     1.0000   1.0000   1.0000   1.0000   1.0000   1.0000   1.0000   1.0000

          k =-0.5000 0.9095 0.4997 ( 12224 PWs)   bands (ev):

   -14.3958 -14.3958 -14.3920 -14.3920 -14.3892 -14.3892 -14.3836 -14.3836
   -14.3755 -14.3755 -14.3743 -14.3743 -14.3551 -14.3551 -14.3457 -14.3457
   -14.3402 -14.3402 -14.3323 -14.3323  -5.7414  -5.7414  -5.2530  -5.2530
    -0.1232  -0.1232   0.5478   0.5478   3.2226   3.2226   3.9018   3.9018
     4.3620   4.3620   5.4198   5.4198   5.6031   5.6031   6.2594   6.2594

     occupation numbers 
     1.0000   1.0000   1.0000   1.0000   1.0000   1.0000   1.0000   1.0000
     1.0000   1.0000   1.0000   1.0000   1.0000   1.0000   1.0000   1.0000
     1.0000   1.0000   1.0000   1.0000   1.0000   1.0000   1.0000   1.0000
     1.0000   1.0000   1.0000   1.0000   1.0000   1.0000   1.0000   1.0000
     1.0000   1.0000   1.0000   1.0000   1.0000   1.0000   1.0000   1.0000

          k =-0.5000 0.9095 0.8328 ( 12202 PWs)   bands (ev):

   -14.3974 -14.3974 -14.3935 -14.3935 -14.3897 -14.3897 -14.3835 -14.3835
   -14.3752 -14.3752 -14.3732 -14.3732 -14.3533 -14.3533 -14.3451 -14.3451
   -14.3405 -14.3405 -14.3323 -14.3323  -5.6015  -5.6015  -5.2482  -5.2482
    -0.0974  -0.0974   0.5779   0.5779   2.8578   2.8578   3.5736   3.5736
     4.2537   4.2537   4.8867   4.8867   5.3464   5.3464   6.0286   6.0286

     occupation numbers 
     1.0000   1.0000   1.0000   1.0000   1.0000   1.0000   1.0000   1.0000
     1.0000   1.0000   1.0000   1.0000   1.0000   1.0000   1.0000   1.0000
     1.0000   1.0000   1.0000   1.0000   1.0000   1.0000   1.0000   1.0000
     1.0000   1.0000   1.0000   1.0000   1.0000   1.0000   1.0000   1.0000
     1.0000   1.0000   1.0000   1.0000   1.0000   1.0000   1.0000   1.0000

          k =-0.5000 0.9095 1.1659 ( 12196 PWs)   bands (ev):

   -14.3985 -14.3985 -14.3946 -14.3946 -14.3900 -14.3900 -14.3834 -14.3834
   -14.3752 -14.3752 -14.3724 -14.3724 -14.3520 -14.3520 -14.3446 -14.3446
   -14.3407 -14.3407 -14.3322 -14.3322  -5.4627  -5.4627  -5.2808  -5.2808
    -0.1231  -0.1231   0.6111   0.6111   2.8632   2.8632   3.1898   3.1898
     4.2346   4.2346   4.5732   4.5732   5.2079   5.2079   5.6620   5.6620

     occupation numbers 
     1.0000   1.0000   1.0000   1.0000   1.0000   1.0000   1.0000   1.0000
     1.0000   1.0000   1.0000   1.0000   1.0000   1.0000   1.0000   1.0000
     1.0000   1.0000   1.0000   1.0000   1.0000   1.0000   1.0000   1.0000
     1.0000   1.0000   1.0000   1.0000   1.0000   1.0000   1.0000   1.0000
     1.0000   1.0000   1.0000   1.0000   1.0000   1.0000   1.0000   1.0000

          k =-0.5000 1.2733 0.1666 ( 12214 PWs)   bands (ev):

   -14.3945 -14.3945 -14.3934 -14.3934 -14.3848 -14.3848 -14.3830 -14.3830
   -14.3773 -14.3773 -14.3763 -14.3763 -14.3534 -14.3534 -14.3502 -14.3502
   -14.3354 -14.3354 -14.3326 -14.3326  -5.5383  -5.5383  -5.3295  -5.3295
    -0.2815  -0.2815  -0.0337  -0.0337   4.1012   4.1012   4.4407   4.4407
     4.9166   4.9166   5.1196   5.1196   5.8095   5.8095   6.1023   6.1023

     occupation numbers 
     1.0000   1.0000   1.0000   1.0000   1.0000   1.0000   1.0000   1.0000
     1.0000   1.0000   1.0000   1.0000   1.0000   1.0000   1.0000   1.0000
     1.0000   1.0000   1.0000   1.0000   1.0000   1.0000   1.0000   1.0000
     1.0000   1.0000   1.0000   1.0000   1.0000   1.0000   1.0000   1.0000
     1.0000   1.0000   1.0000   1.0000   1.0000   1.0000   1.0000   1.0000

          k =-0.5000 1.2733 0.4997 ( 12230 PWs)   bands (ev):

   -14.3962 -14.3962 -14.3949 -14.3949 -14.3851 -14.3851 -14.3830 -14.3830
   -14.3766 -14.3766 -14.3757 -14.3757 -14.3525 -14.3525 -14.3496 -14.3496
   -14.3355 -14.3355 -14.3326 -14.3326  -5.4767  -5.4767  -5.2941  -5.2941
    -0.1453  -0.1453   0.0844   0.0844   3.5155   3.5155   3.9968   3.9968
     4.5101   4.5101   4.9470   4.9470   5.4047   5.4047   5.8294   5.8294

     occupation numbers 
     1.0000   1.0000   1.0000   1.0000   1.0000   1.0000   1.0000   1.0000
     1.0000   1.0000   1.0000   1.0000   1.0000   1.0000   1.0000   1.0000
     1.0000   1.0000   1.0000   1.0000   1.0000   1.0000   1.0000   1.0000
     1.0000   1.0000   1.0000   1.0000   1.0000   1.0000   1.0000   1.0000
     1.0000   1.0000   1.0000   1.0000   1.0000   1.0000   1.0000   1.0000

          k =-0.5000 1.2733 0.8328 ( 12216 PWs)   bands (ev):

   -14.3986 -14.3986 -14.3971 -14.3971 -14.3856 -14.3856 -14.3831 -14.3831
   -14.3758 -14.3758 -14.3748 -14.3748 -14.3510 -14.3510 -14.3485 -14.3485
   -14.3356 -14.3356 -14.3326 -14.3326  -5.3801  -5.3801  -5.2488  -5.2488
     0.0635   0.0635   0.2895   0.2895   2.9260   2.9260   3.4151   3.4151
     3.9609   3.9609   4.4059   4.4059   5.2382   5.2382   5.6033   5.6033

     occupation numbers 
     1.0000   1.0000   1.0000   1.0000   1.0000   1.0000   1.0000   1.0000
     1.0000   1.0000   1.0000   1.0000   1.0000   1.0000   1.0000   1.0000
     1.0000   1.0000   1.0000   1.0000   1.0000   1.0000   1.0000   1.0000
     1.0000   1.0000   1.0000   1.0000   1.0000   1.0000   1.0000   1.0000
     1.0000   1.0000   1.0000   1.0000   1.0000   1.0000   1.0000   1.0000

          k =-0.5000 1.2733 1.1659 ( 12222 PWs)   bands (ev):

   -14.4002 -14.4002 -14.3986 -14.3986 -14.3860 -14.3860 -14.3833 -14.3833
   -14.3753 -14.3753 -14.3741 -14.3741 -14.3499 -14.3499 -14.3477 -14.3477
   -14.3356 -14.3356 -14.3326 -14.3326  -5.2960  -5.2960  -5.2287  -5.2287
     0.2126   0.2126   0.4897   0.4897   2.6936   2.6936   2.9435   2.9435
     3.5610   3.5610   3.8913   3.8913   5.3377   5.3377   5.5152   5.5152

     occupation numbers 
     1.0000   1.0000   1.0000   1.0000   1.0000   1.0000   1.0000   1.0000
     1.0000   1.0000   1.0000   1.0000   1.0000   1.0000   1.0000   1.0000
     1.0000   1.0000   1.0000   1.0000   1.0000   1.0000   1.0000   1.0000
     1.0000   1.0000   1.0000   1.0000   1.0000   1.0000   1.0000   1.0000
     1.0000   1.0000   1.0000   1.0000   1.0000   1.0000   1.0000   1.0000

     highest occupied level (ev):     6.7770

!    total energy              =    -827.74001411 Ry
     estimated scf accuracy    <          2.0E-10 Ry

     The total energy is the sum of the following terms:
     one-electron contribution =    -277.45196069 Ry
     hartree contribution      =     186.10427594 Ry
     xc contribution           =    -308.79476383 Ry
     ewald contribution        =    -427.48100908 Ry
     DFT-D3 Dispersion         =      -0.11655645 Ry

     convergence has been achieved in  12 iterations

     Forces acting on atoms (cartesian axes, Ry/au):

     atom    1 type  2   force =    -0.01043778    0.00000000    0.00012743
     atom    2 type  1   force =     0.01212918    0.00000000    0.00268618
     atom    3 type  2   force =     0.01043778    0.00000000    0.00012743
     atom    4 type  1   force =    -0.01212918    0.00000000    0.00268618
     atom    5 type  2   force =    -0.01043778    0.00000000   -0.00012743
     atom    6 type  1   force =     0.01212918    0.00000000   -0.00268618
     atom    7 type  2   force =     0.01043778    0.00000000   -0.00012743
     atom    8 type  1   force =    -0.01212918    0.00000000   -0.00268618
     The non-local contrib.  to forces
     atom    1 type  2   force =    -0.08965842    0.00000000    0.11758441
     atom    2 type  1   force =     0.33132308    0.00000000    0.30212392
     atom    3 type  2   force =     0.08965842    0.00000000    0.11758441
     atom    4 type  1   force =    -0.33132308    0.00000000    0.30212392
     atom    5 type  2   force =    -0.08965842    0.00000000   -0.11758441
     atom    6 type  1   force =     0.33132308    0.00000000   -0.30212392
     atom    7 type  2   force =     0.08965842    0.00000000   -0.11758441
     atom    8 type  1   force =    -0.33132308    0.00000000   -0.30212392
     The ionic contribution  to forces
     atom    1 type  2   force =     0.81021691    0.00000000   -1.47430601
     atom    2 type  1   force =    -0.56388178    0.00000000   -0.95541558
     atom    3 type  2   force =    -0.81021691    0.00000000   -1.47430601
     atom    4 type  1   force =     0.56388178    0.00000000   -0.95541558
     atom    5 type  2   force =     0.81021691    0.00000000    1.47430601
     atom    6 type  1   force =    -0.56388178    0.00000000    0.95541558
     atom    7 type  2   force =    -0.81021691    0.00000000    1.47430601
     atom    8 type  1   force =     0.56388178    0.00000000    0.95541558
     The local contribution  to forces
     atom    1 type  2   force =    -0.74133243    0.00000000    1.36750092
     atom    2 type  1   force =     0.25228514    0.00000000    0.65882638
     atom    3 type  2   force =     0.74133243    0.00000000    1.36750092
     atom    4 type  1   force =    -0.25228514    0.00000000    0.65882638
     atom    5 type  2   force =    -0.74133243    0.00000000   -1.36750092
     atom    6 type  1   force =     0.25228514    0.00000000   -0.65882638
     atom    7 type  2   force =     0.74133243    0.00000000   -1.36750092
     atom    8 type  1   force =    -0.25228514    0.00000000   -0.65882638
     The core correction contribution to forces
     atom    1 type  2   force =     0.01043355   -0.00000000   -0.01296628
     atom    2 type  1   force =    -0.00775762   -0.00000000   -0.00452239
     atom    3 type  2   force =    -0.01043355   -0.00000000   -0.01296628
     atom    4 type  1   force =     0.00775762    0.00000000   -0.00452239
     atom    5 type  2   force =     0.01043355   -0.00000000    0.01296628
     atom    6 type  1   force =    -0.00775762   -0.00000000    0.00452239
     atom    7 type  2   force =    -0.01043355   -0.00000000    0.01296628
     atom    8 type  1   force =     0.00775762   -0.00000000    0.00452239
     The Hubbard contrib.    to forces
     atom    1 type  2   force =     0.00000000    0.00000000    0.00000000
     atom    2 type  1   force =     0.00000000    0.00000000    0.00000000
     atom    3 type  2   force =     0.00000000    0.00000000    0.00000000
     atom    4 type  1   force =     0.00000000    0.00000000    0.00000000
     atom    5 type  2   force =     0.00000000    0.00000000    0.00000000
     atom    6 type  1   force =     0.00000000    0.00000000    0.00000000
     atom    7 type  2   force =     0.00000000    0.00000000    0.00000000
     atom    8 type  1   force =     0.00000000    0.00000000    0.00000000
     The SCF correction term to forces
     atom    1 type  2   force =     0.00000358   -0.00000000   -0.00000163
     atom    2 type  1   force =    -0.00000858   -0.00000000   -0.00000431
     atom    3 type  2   force =    -0.00000358   -0.00000000   -0.00000163
     atom    4 type  1   force =     0.00000858    0.00000000   -0.00000431
     atom    5 type  2   force =     0.00000358    0.00000000    0.00000163
     atom    6 type  1   force =    -0.00000858    0.00000000    0.00000431
     atom    7 type  2   force =    -0.00000358    0.00000000    0.00000163
     atom    8 type  1   force =     0.00000858    0.00000000    0.00000431

     DFT-D3 dispersion contribution to forces:
     atom    1 type  2   force =    -0.00010097    0.00000000    0.00231602
     atom    2 type  1   force =     0.00016893    0.00000000    0.00167816
     atom    3 type  2   force =     0.00010097    0.00000000    0.00231602
     atom    4 type  1   force =    -0.00016893    0.00000000    0.00167816
     atom    5 type  2   force =    -0.00010097    0.00000000   -0.00231602
     atom    6 type  1   force =     0.00016893   -0.00000000   -0.00167816
     atom    7 type  2   force =     0.00010097   -0.00000000   -0.00231602
     atom    8 type  1   force =    -0.00016893   -0.00000000   -0.00167816

     Total force =     0.032453     Total SCF correction =     0.000021

     DFT-D3 dispersion Force =     0.005734

     Writing all to output data dir ./tmp/SnSe_pnma.save/ :
     XML data file, charge density, pseudopotentials, collected wavefunctions
 
     init_run     :      3.39s CPU      3.70s WALL (       1 calls)
     electrons    :     89.52s CPU     94.55s WALL (       1 calls)
     forces       :      1.54s CPU      1.72s WALL (       1 calls)
     force_dftd3  :      0.09s CPU      0.10s WALL (       1 calls)

     Called by init_run:
     wfcinit      :      2.14s CPU      2.19s WALL (       1 calls)
     wfcinit:atom :      0.03s CPU      0.03s WALL (      11 calls)
     wfcinit:wfcr :      1.92s CPU      1.93s WALL (      11 calls)
     potinit      :      0.31s CPU      0.36s WALL (       1 calls)
     hinit0       :      0.23s CPU      0.24s WALL (       1 calls)

     Called by electrons:
     c_bands      :     65.60s CPU     65.97s WALL (      12 calls)
     sum_band     :     16.81s CPU     19.01s WALL (      12 calls)
     v_of_rho     :      2.62s CPU      2.76s WALL (      13 calls)
     v_h          :      0.21s CPU      0.22s WALL (      13 calls)
     v_xc         :      2.60s CPU      2.74s WALL (      14 calls)
     newd         :      4.62s CPU      7.06s WALL (      13 calls)
     mix_rho      :      0.31s CPU      0.33s WALL (      12 calls)
     energy_dftd3 :      0.04s CPU      0.04s WALL (       1 calls)

     Called by c_bands:
     init_us_2    :      1.85s CPU      1.87s WALL (     286 calls)
     cegterg      :     59.47s CPU     59.64s WALL (     132 calls)

     Called by sum_band:
     sum_band:wei :      0.00s CPU      0.00s WALL (      12 calls)
     sum_band:loo :     11.55s CPU     11.58s WALL (      12 calls)
     sum_band:buf :      0.12s CPU      0.12s WALL (     132 calls)
     sum_band:ini :      0.82s CPU      0.82s WALL (     132 calls)
     sum_band:cal :      1.06s CPU      1.06s WALL (     132 calls)
     sum_band:bec :      0.01s CPU      0.01s WALL (     132 calls)
     addusdens    :      4.67s CPU      6.73s WALL (      12 calls)
                                        0.00s GPU  (      12 calls)
     addusd:skk   :      0.03s CPU      0.04s WALL (      24 calls)
                                        0.00s GPU  (      24 calls)

     Called by *egterg:
     cdiaghg      :      0.96s CPU      0.96s WALL (     601 calls)
     cegterg:over :      2.52s CPU      2.52s WALL (     469 calls)
     cegterg:upda :      1.52s CPU      1.52s WALL (     469 calls)
     cegterg:last :      3.85s CPU      3.85s WALL (     326 calls)
     h_psi        :     46.99s CPU     47.14s WALL (     612 calls)
     s_psi        :      3.90s CPU      3.91s WALL (     612 calls)
     g_psi        :      0.16s CPU      0.16s WALL (     469 calls)

     Called by h_psi:
     h_psi:calbec :      3.49s CPU      3.49s WALL (     612 calls)
     vloc_psi     :     39.26s CPU     39.41s WALL (     612 calls)
     add_vuspsi   :      3.90s CPU      3.90s WALL (     612 calls)

     General routines
     calbec       :      4.90s CPU      4.90s WALL (     788 calls)
     fft          :      1.43s CPU      1.46s WALL (     178 calls)
     ffts         :      0.04s CPU      0.05s WALL (      25 calls)
     fftw         :     26.05s CPU     26.13s WALL (   37046 calls)
     interpolate  :      0.15s CPU      0.16s WALL (      13 calls)
 
     Parallel routines
 
     PWSCF        :   1m34.92s CPU   1m41.54s WALL

 
   This run was terminated on:  18: 3:22  20May2026            

=------------------------------------------------------------------------------=
   JOB DONE.
=------------------------------------------------------------------------------=
