
     Program PWSCF v.7.3.1 starts on 20May2026 at 14:29:58 

     This program is part of the open-source Quantum ESPRESSO suite
     for quantum simulation of materials; please cite
         "P. Giannozzi et al., J. Phys.:Condens. Matter 21 395502 (2009);
         "P. Giannozzi et al., J. Phys.:Condens. Matter 29 465901 (2017);
         "P. Giannozzi et al., J. Chem. Phys. 152 154105 (2020);
          URL http://www.quantum-espresso.org", 
     in publications or presentations arising from this work. More details at
     http://www.quantum-espresso.org/quote

     Parallel version (MPI & OpenMP), running on       6 processor cores
     Number of MPI processes:                 6
     Threads/MPI process:                     1

     MPI processes distributed on     1 nodes
     10747 MiB available memory on the printing compute node when the environment starts
 
     Waiting for input...
     Reading input from standard input

     Current dimensions of program PWSCF are:
     Max number of different atomic species (ntypx) = 10
     Max number of k-points (npk) =  40000
     Max angular momentum in pseudopotentials (lmaxx) =  4
 
     K-points division:     npool     =       3
     R & G space division:  proc/nbgrp/npool/nimage =       2
     Subspace diagonalization in iterative solution of the eigenvalue problem:
     a serial algorithm will be used

 
     Parallelization info
     --------------------
     sticks:   dense  smooth     PW     G-vecs:    dense   smooth      PW
     Min        2108     844    252                66913    16893    2722
     Max        2109     845    253                66914    16894    2723
     Sum        4217    1689    505               133827    33787    5445
 
     Using Slab Decomposition
 


     bravais-lattice index     =            8
     lattice parameter (alat)  =      22.4688  a.u.
     unit-cell volume          =    1524.7419 (a.u.)^3
     number of atoms/cell      =            8
     number of atomic types    =            2
     number of electrons       =        80.00
     number of Kohn-Sham states=           40
     kinetic-energy cutoff     =      30.0000  Ry
     charge density cutoff     =     300.0000  Ry
     scf convergence threshold =      1.0E-08
     mixing beta               =       0.7000
     number of iterations used =            8  plain     mixing
     Exchange-correlation= SLA  PW   PBE  PBE
                           (   1   4   3   4   0   0   0)

     celldm(1)=  22.468844  celldm(2)=   0.350833  celldm(3)=   0.383137
     celldm(4)=   0.000000  celldm(5)=   0.000000  celldm(6)=   0.000000

     crystal axes: (cart. coord. in units of alat)
               a(1) = (   1.000000   0.000000   0.000000 )  
               a(2) = (   0.000000   0.350833   0.000000 )  
               a(3) = (   0.000000   0.000000   0.383137 )  

     reciprocal axes: (cart. coord. in units 2 pi/alat)
               b(1) = (  1.000000  0.000000  0.000000 )  
               b(2) = (  0.000000  2.850362  0.000000 )  
               b(3) = (  0.000000  0.000000  2.610032 )  


     PseudoPot. # 1 for Sn read from file:
     ../pseudo/Sn_pbe_v1.uspp.F.UPF
     MD5 check sum: 4cf58ce39ec5d5d420df3dd08604eb00
     Pseudo is Ultrasoft + core correction, Zval = 14.0
     Generated by new atomic code, or converted to UPF format
     Using radial grid of  891 points,  6 beta functions with: 
                l(1) =   0
                l(2) =   0
                l(3) =   1
                l(4) =   1
                l(5) =   2
                l(6) =   2
     Q(r) pseudized with  6 coefficients,  rinner =    1.200   1.200   1.200
                                                       1.200   1.200

     PseudoPot. # 2 for Se read from file:
     ../pseudo/Se_pbe_v1.uspp.F.UPF
     MD5 check sum: 1b3568f3a8ae88f9a2a0ad0698632c85
     Pseudo is Ultrasoft + core correction, Zval =  6.0
     Generated by new atomic code, or converted to UPF format
     Using radial grid of  877 points,  6 beta functions with: 
                l(1) =   0
                l(2) =   0
                l(3) =   1
                l(4) =   1
                l(5) =   2
                l(6) =   2
     Q(r) pseudized with  8 coefficients,  rinner =    1.300   1.300   1.300
                                                       1.300   1.300

     atomic species   valence    mass     pseudopotential
     Sn               14.00   118.71000     Sn( 1.00)
     Se                6.00    78.97100     Se( 1.00)

      8 Sym. Ops., with inversion, found ( 6 have fractional translation)


                                    s                        frac. trans.

      isym =  1     identity                                     

 cryst.   s( 1) = (     1          0          0      )
                  (     0          1          0      )
                  (     0          0          1      )

 cart.    s( 1) = (  1.0000000  0.0000000  0.0000000 )
                  (  0.0000000  1.0000000  0.0000000 )
                  (  0.0000000  0.0000000  1.0000000 )


      isym =  2     180 deg rotation - cart. axis [0,0,1]        

 cryst.   s( 2) = (    -1          0          0      )    f =(  0.5000000 )
                  (     0         -1          0      )       (  0.0000000 )
                  (     0          0          1      )       ( -0.5000000 )

 cart.    s( 2) = ( -1.0000000  0.0000000  0.0000000 )    f =(  0.5000000 )
                  (  0.0000000 -1.0000000  0.0000000 )       (  0.0000000 )
                  (  0.0000000  0.0000000  1.0000000 )       ( -0.1915685 )


      isym =  3     180 deg rotation - cart. axis [0,1,0]        

 cryst.   s( 3) = (    -1          0          0      )    f =(  0.0000000 )
                  (     0          1          0      )       ( -0.5000000 )
                  (     0          0         -1      )       (  0.0000000 )

 cart.    s( 3) = ( -1.0000000  0.0000000  0.0000000 )    f =(  0.0000000 )
                  (  0.0000000  1.0000000  0.0000000 )       ( -0.1754163 )
                  (  0.0000000  0.0000000 -1.0000000 )       (  0.0000000 )


      isym =  4     180 deg rotation - cart. axis [1,0,0]        

 cryst.   s( 4) = (     1          0          0      )    f =(  0.5000000 )
                  (     0         -1          0      )       (  0.5000000 )
                  (     0          0         -1      )       ( -0.5000000 )

 cart.    s( 4) = (  1.0000000  0.0000000  0.0000000 )    f =(  0.5000000 )
                  (  0.0000000 -1.0000000  0.0000000 )       (  0.1754163 )
                  (  0.0000000  0.0000000 -1.0000000 )       ( -0.1915685 )


      isym =  5     inversion                                    

 cryst.   s( 5) = (    -1          0          0      )
                  (     0         -1          0      )
                  (     0          0         -1      )

 cart.    s( 5) = ( -1.0000000  0.0000000  0.0000000 )
                  (  0.0000000 -1.0000000  0.0000000 )
                  (  0.0000000  0.0000000 -1.0000000 )


      isym =  6     inv. 180 deg rotation - cart. axis [0,0,1]   

 cryst.   s( 6) = (     1          0          0      )    f =(  0.5000000 )
                  (     0          1          0      )       (  0.0000000 )
                  (     0          0         -1      )       ( -0.5000000 )

 cart.    s( 6) = (  1.0000000  0.0000000  0.0000000 )    f =(  0.5000000 )
                  (  0.0000000  1.0000000  0.0000000 )       (  0.0000000 )
                  (  0.0000000  0.0000000 -1.0000000 )       ( -0.1915685 )


      isym =  7     inv. 180 deg rotation - cart. axis [0,1,0]   

 cryst.   s( 7) = (     1          0          0      )    f =(  0.0000000 )
                  (     0         -1          0      )       (  0.5000000 )
                  (     0          0          1      )       (  0.0000000 )

 cart.    s( 7) = (  1.0000000  0.0000000  0.0000000 )    f =(  0.0000000 )
                  (  0.0000000 -1.0000000  0.0000000 )       (  0.1754163 )
                  (  0.0000000  0.0000000  1.0000000 )       (  0.0000000 )


      isym =  8     inv. 180 deg rotation - cart. axis [1,0,0]   

 cryst.   s( 8) = (    -1          0          0      )    f =(  0.5000000 )
                  (     0          1          0      )       ( -0.5000000 )
                  (     0          0          1      )       ( -0.5000000 )

 cart.    s( 8) = ( -1.0000000  0.0000000  0.0000000 )    f =(  0.5000000 )
                  (  0.0000000  1.0000000  0.0000000 )       ( -0.1754163 )
                  (  0.0000000  0.0000000  1.0000000 )       ( -0.1915685 )


     point group D_2h (mmm) 
     there are  8 classes
     the character table:

       E     C2    C2'   C2''  i     s_v   s_v'  s_v''
A_g    1.00  1.00  1.00  1.00  1.00  1.00  1.00  1.00
B_1g   1.00  1.00 -1.00 -1.00  1.00  1.00 -1.00 -1.00
B_2g   1.00 -1.00  1.00 -1.00  1.00 -1.00  1.00 -1.00
B_3g   1.00 -1.00 -1.00  1.00  1.00 -1.00 -1.00  1.00
A_u    1.00  1.00  1.00  1.00 -1.00 -1.00 -1.00 -1.00
B_1u   1.00  1.00 -1.00 -1.00 -1.00 -1.00  1.00  1.00
B_2u   1.00 -1.00  1.00 -1.00 -1.00  1.00 -1.00  1.00
B_3u   1.00 -1.00 -1.00  1.00 -1.00  1.00  1.00 -1.00

     the symmetry operations in each class and the name of the first element:

     E        1
          identity                                               
     C2       2
          180 deg rotation - cart. axis [0,0,1]                  
     C2'      4
          180 deg rotation - cart. axis [1,0,0]                  
     C2''     3
          180 deg rotation - cart. axis [0,1,0]                  
     i        5
          inversion                                              
     s_v      6
          inv. 180 deg rotation - cart. axis [0,0,1]             
     s_v'     8
          inv. 180 deg rotation - cart. axis [1,0,0]             
     s_v''    7
          inv. 180 deg rotation - cart. axis [0,1,0]             

   Cartesian axes

     site n.     atom                  positions (alat units)
         1        Se     tau(   1) = (   0.8549563   0.0877082   0.1851503  )
         2        Sn     tau(   2) = (   0.1165395   0.0877082   0.0430213  )
         3        Se     tau(   3) = (   0.6450437   0.2631245   0.3767188  )
         4        Sn     tau(   4) = (   0.3834605   0.2631245   0.2345899  )
         5        Se     tau(   5) = (   0.3549563   0.0877082   0.0064183  )
         6        Sn     tau(   6) = (   0.6165395   0.0877082   0.1485472  )
         7        Se     tau(   7) = (   0.1450437   0.2631245   0.1979868  )
         8        Sn     tau(   8) = (   0.8834605   0.2631245   0.3401158  )

     --------------------------------------------
     DFT-D3 Dispersion Correction (3-body terms):
     --------------------------------------------
       Reference C6 values for interpolation: 

         atom   Coordination number   C6
         Se         0.000           427.35
         Se         0.990           427.57
         Se         1.981           421.05
         Sn         0.000          1255.14
         Sn         0.951          1084.09
         Sn         1.950          1010.83
         Sn         2.926           818.29
         Sn         3.912           672.20

       Values used:

         atom   Coordination number  R0_AB[au]  C6      C8
         Se         3.282            3.332    421.05  29958.36
         Sn         3.875            3.957    675.83  84824.72
         Se         3.282            3.332    421.05  29958.36
         Sn         3.875            3.957    675.83  84824.72
         Se         3.282            3.332    421.05  29958.36
         Sn         3.875            3.957    675.83  84824.72
         Se         3.282            3.332    421.05  29958.36
         Sn         3.875            3.957    675.83  84824.72

         Molecular C6 ( Ry / a.u.^6 ) =     34599.21


   Crystallographic axes

     site n.     atom                  positions (cryst. coord.)
         1        Se     tau(   1) = (  0.8549563  0.2500000  0.4832481  )
         2        Sn     tau(   2) = (  0.1165395  0.2500000  0.1122870  )
         3        Se     tau(   3) = (  0.6450437  0.7500000  0.9832481  )
         4        Sn     tau(   4) = (  0.3834605  0.7500000  0.6122870  )
         5        Se     tau(   5) = (  0.3549563  0.2500000  0.0167519  )
         6        Sn     tau(   6) = (  0.6165395  0.2500000  0.3877130  )
         7        Se     tau(   7) = (  0.1450437  0.7500000  0.5167519  )
         8        Sn     tau(   8) = (  0.8834605  0.7500000  0.8877130  )

     number of k points=    32
                       cart. coord. in units 2pi/alat
        k(    1) = (   0.1666667   0.1781476   0.1631270), wk =   0.0833333
        k(    2) = (   0.1666667   0.1781476   0.4893810), wk =   0.0833333
        k(    3) = (   0.1666667   0.1781476   0.8156349), wk =   0.0833333
        k(    4) = (   0.1666667   0.1781476   1.1418889), wk =   0.0833333
        k(    5) = (   0.1666667   0.5344429   0.1631270), wk =   0.0833333
        k(    6) = (   0.1666667   0.5344429   0.4893810), wk =   0.0833333
        k(    7) = (   0.1666667   0.5344429   0.8156349), wk =   0.0833333
        k(    8) = (   0.1666667   0.5344429   1.1418889), wk =   0.0833333
        k(    9) = (   0.1666667   0.8907381   0.1631270), wk =   0.0833333
        k(   10) = (   0.1666667   0.8907381   0.4893810), wk =   0.0833333
        k(   11) = (   0.1666667   0.8907381   0.8156349), wk =   0.0833333
        k(   12) = (   0.1666667   0.8907381   1.1418889), wk =   0.0833333
        k(   13) = (   0.1666667   1.2470334   0.1631270), wk =   0.0833333
        k(   14) = (   0.1666667   1.2470334   0.4893810), wk =   0.0833333
        k(   15) = (   0.1666667   1.2470334   0.8156349), wk =   0.0833333
        k(   16) = (   0.1666667   1.2470334   1.1418889), wk =   0.0833333
        k(   17) = (  -0.5000000   0.1781476   0.1631270), wk =   0.0416667
        k(   18) = (  -0.5000000   0.1781476   0.4893810), wk =   0.0416667
        k(   19) = (  -0.5000000   0.1781476   0.8156349), wk =   0.0416667
        k(   20) = (  -0.5000000   0.1781476   1.1418889), wk =   0.0416667
        k(   21) = (  -0.5000000   0.5344429   0.1631270), wk =   0.0416667
        k(   22) = (  -0.5000000   0.5344429   0.4893810), wk =   0.0416667
        k(   23) = (  -0.5000000   0.5344429   0.8156349), wk =   0.0416667
        k(   24) = (  -0.5000000   0.5344429   1.1418889), wk =   0.0416667
        k(   25) = (  -0.5000000   0.8907381   0.1631270), wk =   0.0416667
        k(   26) = (  -0.5000000   0.8907381   0.4893810), wk =   0.0416667
        k(   27) = (  -0.5000000   0.8907381   0.8156349), wk =   0.0416667
        k(   28) = (  -0.5000000   0.8907381   1.1418889), wk =   0.0416667
        k(   29) = (  -0.5000000   1.2470334   0.1631270), wk =   0.0416667
        k(   30) = (  -0.5000000   1.2470334   0.4893810), wk =   0.0416667
        k(   31) = (  -0.5000000   1.2470334   0.8156349), wk =   0.0416667
        k(   32) = (  -0.5000000   1.2470334   1.1418889), wk =   0.0416667

                       cryst. coord.
        k(    1) = (   0.1666667   0.0625000   0.0625000), wk =   0.0833333
        k(    2) = (   0.1666667   0.0625000   0.1875000), wk =   0.0833333
        k(    3) = (   0.1666667   0.0625000   0.3125000), wk =   0.0833333
        k(    4) = (   0.1666667   0.0625000   0.4375000), wk =   0.0833333
        k(    5) = (   0.1666667   0.1875000   0.0625000), wk =   0.0833333
        k(    6) = (   0.1666667   0.1875000   0.1875000), wk =   0.0833333
        k(    7) = (   0.1666667   0.1875000   0.3125000), wk =   0.0833333
        k(    8) = (   0.1666667   0.1875000   0.4375000), wk =   0.0833333
        k(    9) = (   0.1666667   0.3125000   0.0625000), wk =   0.0833333
        k(   10) = (   0.1666667   0.3125000   0.1875000), wk =   0.0833333
        k(   11) = (   0.1666667   0.3125000   0.3125000), wk =   0.0833333
        k(   12) = (   0.1666667   0.3125000   0.4375000), wk =   0.0833333
        k(   13) = (   0.1666667   0.4375000   0.0625000), wk =   0.0833333
        k(   14) = (   0.1666667   0.4375000   0.1875000), wk =   0.0833333
        k(   15) = (   0.1666667   0.4375000   0.3125000), wk =   0.0833333
        k(   16) = (   0.1666667   0.4375000   0.4375000), wk =   0.0833333
        k(   17) = (  -0.5000000   0.0625000   0.0625000), wk =   0.0416667
        k(   18) = (  -0.5000000   0.0625000   0.1875000), wk =   0.0416667
        k(   19) = (  -0.5000000   0.0625000   0.3125000), wk =   0.0416667
        k(   20) = (  -0.5000000   0.0625000   0.4375000), wk =   0.0416667
        k(   21) = (  -0.5000000   0.1875000   0.0625000), wk =   0.0416667
        k(   22) = (  -0.5000000   0.1875000   0.1875000), wk =   0.0416667
        k(   23) = (  -0.5000000   0.1875000   0.3125000), wk =   0.0416667
        k(   24) = (  -0.5000000   0.1875000   0.4375000), wk =   0.0416667
        k(   25) = (  -0.5000000   0.3125000   0.0625000), wk =   0.0416667
        k(   26) = (  -0.5000000   0.3125000   0.1875000), wk =   0.0416667
        k(   27) = (  -0.5000000   0.3125000   0.3125000), wk =   0.0416667
        k(   28) = (  -0.5000000   0.3125000   0.4375000), wk =   0.0416667
        k(   29) = (  -0.5000000   0.4375000   0.0625000), wk =   0.0416667
        k(   30) = (  -0.5000000   0.4375000   0.1875000), wk =   0.0416667
        k(   31) = (  -0.5000000   0.4375000   0.3125000), wk =   0.0416667
        k(   32) = (  -0.5000000   0.4375000   0.4375000), wk =   0.0416667

     Dense  grid:   133827 G-vectors     FFT dimensions: ( 128,  48,  48)

     Smooth grid:    33787 G-vectors     FFT dimensions: (  80,  30,  32)

     Dynamical RAM for                 wfc:       1.29 MB

     Dynamical RAM for     wfc (w. buffer):      15.49 MB

     Dynamical RAM for           str. fact:       2.04 MB

     Dynamical RAM for           local pot:       0.00 MB

     Dynamical RAM for          nlocal pot:       4.65 MB

     Dynamical RAM for                qrad:       2.78 MB

     Dynamical RAM for          rho,v,vnew:       6.44 MB

     Dynamical RAM for               rhoin:       2.15 MB

     Dynamical RAM for            rho*nmix:      16.34 MB

     Dynamical RAM for           G-vectors:       3.96 MB

     Dynamical RAM for          h,s,v(r/c):       0.29 MB

     Dynamical RAM for          <psi|beta>:       0.09 MB

     Dynamical RAM for                 psi:       2.58 MB

     Dynamical RAM for                hpsi:       2.58 MB

     Dynamical RAM for                spsi:       2.58 MB

     Dynamical RAM for      wfcinit/wfcrot:       3.42 MB

     Dynamical RAM for           addusdens:      65.34 MB

     Dynamical RAM for          addusforce:      67.23 MB

     Estimated static dynamical RAM per process >      46.19 MB

     Estimated max dynamical RAM per process >     129.76 MB

     Estimated total dynamical RAM >     713.21 MB

     Initial potential from superposition of free atoms

     starting charge      75.9995, renormalised to      80.0000
     Starting wfcs are   52 randomized atomic wfcs

     total cpu time spent up to now is        1.6 secs

     Self-consistent Calculation

     iteration #  1     ecut=    30.00 Ry     beta= 0.70
     Davidson diagonalization with overlap

---- Real-time Memory Report at c_bands before calling an iterative solver
           213 MiB given to the printing process from OS
             0 MiB allocation reported by mallinfo(arena+hblkhd)
         10277 MiB available memory on the node where the printing process lives
------------------
     ethr =  1.00E-02,  avg # of iterations =  2.0

     total cpu time spent up to now is        3.8 secs

     total energy              =    -826.59318673 Ry
     estimated scf accuracy    <       2.73212431 Ry

     iteration #  2     ecut=    30.00 Ry     beta= 0.70
     Davidson diagonalization with overlap

---- Real-time Memory Report at c_bands before calling an iterative solver
           259 MiB given to the printing process from OS
             0 MiB allocation reported by mallinfo(arena+hblkhd)
          9794 MiB available memory on the node where the printing process lives
------------------
     ethr =  3.42E-03,  avg # of iterations =  3.0

     total cpu time spent up to now is        6.0 secs

     total energy              =    -827.50341008 Ry
     estimated scf accuracy    <       1.08337795 Ry

     iteration #  3     ecut=    30.00 Ry     beta= 0.70
     Davidson diagonalization with overlap

---- Real-time Memory Report at c_bands before calling an iterative solver
           285 MiB given to the printing process from OS
             0 MiB allocation reported by mallinfo(arena+hblkhd)
          9685 MiB available memory on the node where the printing process lives
------------------
     ethr =  1.35E-03,  avg # of iterations =  2.7

     total cpu time spent up to now is        7.9 secs

     total energy              =    -827.72829544 Ry
     estimated scf accuracy    <       0.01204900 Ry

     iteration #  4     ecut=    30.00 Ry     beta= 0.70
     Davidson diagonalization with overlap

---- Real-time Memory Report at c_bands before calling an iterative solver
           287 MiB given to the printing process from OS
             0 MiB allocation reported by mallinfo(arena+hblkhd)
          9684 MiB available memory on the node where the printing process lives
------------------
     ethr =  1.51E-05,  avg # of iterations =  4.9

     total cpu time spent up to now is       10.5 secs

     total energy              =    -827.73558812 Ry
     estimated scf accuracy    <       0.00586909 Ry

     iteration #  5     ecut=    30.00 Ry     beta= 0.70
     Davidson diagonalization with overlap

---- Real-time Memory Report at c_bands before calling an iterative solver
           288 MiB given to the printing process from OS
             0 MiB allocation reported by mallinfo(arena+hblkhd)
          9677 MiB available memory on the node where the printing process lives
------------------
     ethr =  7.34E-06,  avg # of iterations =  2.6

     total cpu time spent up to now is       12.4 secs

     total energy              =    -827.73681782 Ry
     estimated scf accuracy    <       0.00051751 Ry

     iteration #  6     ecut=    30.00 Ry     beta= 0.70
     Davidson diagonalization with overlap

---- Real-time Memory Report at c_bands before calling an iterative solver
           291 MiB given to the printing process from OS
             0 MiB allocation reported by mallinfo(arena+hblkhd)
          9675 MiB available memory on the node where the printing process lives
------------------
     ethr =  6.47E-07,  avg # of iterations =  4.5

     total cpu time spent up to now is       14.7 secs

     total energy              =    -827.73682359 Ry
     estimated scf accuracy    <       0.00101784 Ry

     iteration #  7     ecut=    30.00 Ry     beta= 0.70
     Davidson diagonalization with overlap

---- Real-time Memory Report at c_bands before calling an iterative solver
           294 MiB given to the printing process from OS
             0 MiB allocation reported by mallinfo(arena+hblkhd)
          9672 MiB available memory on the node where the printing process lives
------------------
     ethr =  6.47E-07,  avg # of iterations =  3.0

     total cpu time spent up to now is       16.7 secs

     total energy              =    -827.73696685 Ry
     estimated scf accuracy    <       0.00002207 Ry

     iteration #  8     ecut=    30.00 Ry     beta= 0.70
     Davidson diagonalization with overlap

---- Real-time Memory Report at c_bands before calling an iterative solver
           296 MiB given to the printing process from OS
             0 MiB allocation reported by mallinfo(arena+hblkhd)
          9671 MiB available memory on the node where the printing process lives
------------------
     ethr =  2.76E-08,  avg # of iterations =  4.8

     total cpu time spent up to now is       19.0 secs

     total energy              =    -827.73698329 Ry
     estimated scf accuracy    <       0.00001568 Ry

     iteration #  9     ecut=    30.00 Ry     beta= 0.70
     Davidson diagonalization with overlap

---- Real-time Memory Report at c_bands before calling an iterative solver
           297 MiB given to the printing process from OS
             0 MiB allocation reported by mallinfo(arena+hblkhd)
          9667 MiB available memory on the node where the printing process lives
------------------
     ethr =  1.96E-08,  avg # of iterations =  2.0

     total cpu time spent up to now is       20.8 secs

     total energy              =    -827.73698513 Ry
     estimated scf accuracy    <       0.00000067 Ry

     iteration # 10     ecut=    30.00 Ry     beta= 0.70
     Davidson diagonalization with overlap

---- Real-time Memory Report at c_bands before calling an iterative solver
           298 MiB given to the printing process from OS
             0 MiB allocation reported by mallinfo(arena+hblkhd)
          9666 MiB available memory on the node where the printing process lives
------------------
     ethr =  8.41E-10,  avg # of iterations =  4.5

     total cpu time spent up to now is       23.2 secs

     total energy              =    -827.73698549 Ry
     estimated scf accuracy    <       0.00000007 Ry

     iteration # 11     ecut=    30.00 Ry     beta= 0.70
     Davidson diagonalization with overlap

---- Real-time Memory Report at c_bands before calling an iterative solver
           299 MiB given to the printing process from OS
             0 MiB allocation reported by mallinfo(arena+hblkhd)
          9665 MiB available memory on the node where the printing process lives
------------------
     ethr =  8.38E-11,  avg # of iterations =  4.6

     total cpu time spent up to now is       25.5 secs

     total energy              =    -827.73698549 Ry
     estimated scf accuracy    <       0.00000003 Ry

     iteration # 12     ecut=    30.00 Ry     beta= 0.70
     Davidson diagonalization with overlap

---- Real-time Memory Report at c_bands before calling an iterative solver
           300 MiB given to the printing process from OS
             0 MiB allocation reported by mallinfo(arena+hblkhd)
          9665 MiB available memory on the node where the printing process lives
------------------
     ethr =  3.48E-11,  avg # of iterations =  2.9

     total cpu time spent up to now is       27.7 secs

     End of self-consistent calculation

          k = 0.1667 0.1781 0.1631 (  4228 PWs)   bands (ev):

   -14.1345 -14.1265 -14.1226 -14.1190 -14.1161 -14.1147 -14.1143 -14.1132
   -14.1035 -14.0998 -14.0984 -14.0968 -14.0926 -14.0898 -14.0748 -14.0705
   -14.0681 -14.0647 -14.0598 -14.0557  -6.1756  -5.9291  -5.3180  -4.9909
     0.1896   0.9492   1.6590   2.0754   2.8077   3.9843   4.1460   4.3877
     4.6128   4.6537   5.1681   5.4427   5.6579   5.9556   6.5154   6.8001

     occupation numbers 
     1.0000   1.0000   1.0000   1.0000   1.0000   1.0000   1.0000   1.0000
     1.0000   1.0000   1.0000   1.0000   1.0000   1.0000   1.0000   1.0000
     1.0000   1.0000   1.0000   1.0000   1.0000   1.0000   1.0000   1.0000
     1.0000   1.0000   1.0000   1.0000   1.0000   1.0000   1.0000   1.0000
     1.0000   1.0000   1.0000   1.0000   1.0000   1.0000   1.0000   1.0000

          k = 0.1667 0.1781 0.4894 (  4211 PWs)   bands (ev):

   -14.1334 -14.1262 -14.1227 -14.1192 -14.1169 -14.1157 -14.1142 -14.1133
   -14.1020 -14.0995 -14.0989 -14.0951 -14.0920 -14.0884 -14.0750 -14.0709
   -14.0680 -14.0650 -14.0596 -14.0561  -6.0657  -5.8286  -5.3066  -5.0103
    -0.1345   0.6573   1.1818   1.7183   2.8901   4.0459   4.2547   4.6994
     4.9381   5.1786   5.1860   5.5478   5.9894   6.2939   6.4775   6.7693

     occupation numbers 
     1.0000   1.0000   1.0000   1.0000   1.0000   1.0000   1.0000   1.0000
     1.0000   1.0000   1.0000   1.0000   1.0000   1.0000   1.0000   1.0000
     1.0000   1.0000   1.0000   1.0000   1.0000   1.0000   1.0000   1.0000
     1.0000   1.0000   1.0000   1.0000   1.0000   1.0000   1.0000   1.0000
     1.0000   1.0000   1.0000   1.0000   1.0000   1.0000   1.0000   1.0000

          k = 0.1667 0.1781 0.8156 (  4219 PWs)   bands (ev):

   -14.1315 -14.1262 -14.1227 -14.1202 -14.1178 -14.1171 -14.1142 -14.1137
   -14.1010 -14.0996 -14.0979 -14.0937 -14.0898 -14.0867 -14.0750 -14.0720
   -14.0675 -14.0655 -14.0591 -14.0568  -5.8700  -5.6513  -5.3219  -5.0745
    -0.4671   0.1455   0.7525   1.2226   3.1864   4.2779   4.4855   5.0198
     5.1216   5.3303   5.5385   5.7268   6.1475   6.5988   6.6397   7.0156

     occupation numbers 
     1.0000   1.0000   1.0000   1.0000   1.0000   1.0000   1.0000   1.0000
     1.0000   1.0000   1.0000   1.0000   1.0000   1.0000   1.0000   1.0000
     1.0000   1.0000   1.0000   1.0000   1.0000   1.0000   1.0000   1.0000
     1.0000   1.0000   1.0000   1.0000   1.0000   1.0000   1.0000   1.0000
     1.0000   1.0000   1.0000   1.0000   1.0000   1.0000   1.0000   1.0000

          k = 0.1667 0.1781 1.1419 (  4214 PWs)   bands (ev):

   -14.1292 -14.1272 -14.1223 -14.1213 -14.1183 -14.1182 -14.1142 -14.1140
   -14.1008 -14.1004 -14.0954 -14.0938 -14.0872 -14.0860 -14.0744 -14.0733
   -14.0667 -14.0660 -14.0584 -14.0576  -5.6422  -5.4916  -5.3647  -5.2075
    -0.5628  -0.3359   0.6282   0.8079   3.6590   4.1753   4.8401   5.0635
     5.2591   5.3561   5.5446   5.8660   6.4334   6.7780   6.9203   7.0075

     occupation numbers 
     1.0000   1.0000   1.0000   1.0000   1.0000   1.0000   1.0000   1.0000
     1.0000   1.0000   1.0000   1.0000   1.0000   1.0000   1.0000   1.0000
     1.0000   1.0000   1.0000   1.0000   1.0000   1.0000   1.0000   1.0000
     1.0000   1.0000   1.0000   1.0000   1.0000   1.0000   1.0000   1.0000
     1.0000   1.0000   1.0000   1.0000   1.0000   1.0000   1.0000   1.0000

          k = 0.1667 0.5344 0.1631 (  4226 PWs)   bands (ev):

   -14.1291 -14.1239 -14.1191 -14.1190 -14.1161 -14.1159 -14.1154 -14.1149
   -14.1042 -14.1027 -14.1023 -14.0955 -14.0915 -14.0869 -14.0721 -14.0708
   -14.0679 -14.0675 -14.0593 -14.0563  -6.0206  -5.7940  -5.2451  -4.9685
     0.0244   0.6757   1.3462   1.4761   2.9213   3.8816   4.1570   4.4210
     4.7436   4.9688   5.1726   5.4715   5.7720   6.3346   6.5727   6.6880

     occupation numbers 
     1.0000   1.0000   1.0000   1.0000   1.0000   1.0000   1.0000   1.0000
     1.0000   1.0000   1.0000   1.0000   1.0000   1.0000   1.0000   1.0000
     1.0000   1.0000   1.0000   1.0000   1.0000   1.0000   1.0000   1.0000
     1.0000   1.0000   1.0000   1.0000   1.0000   1.0000   1.0000   1.0000
     1.0000   1.0000   1.0000   1.0000   1.0000   1.0000   1.0000   1.0000

          k = 0.1667 0.5344 0.4894 (  4238 PWs)   bands (ev):

   -14.1287 -14.1238 -14.1207 -14.1195 -14.1166 -14.1165 -14.1151 -14.1148
   -14.1048 -14.1028 -14.1003 -14.0948 -14.0901 -14.0858 -14.0723 -14.0703
   -14.0684 -14.0678 -14.0591 -14.0566  -5.9163  -5.6996  -5.2322  -4.9806
    -0.1399   0.5857   1.0285   1.3781   3.0518   3.4842   3.7376   4.4311
     4.6385   5.1724   5.5146   5.6009   6.2399   6.3518   6.5937   6.7647

     occupation numbers 
     1.0000   1.0000   1.0000   1.0000   1.0000   1.0000   1.0000   1.0000
     1.0000   1.0000   1.0000   1.0000   1.0000   1.0000   1.0000   1.0000
     1.0000   1.0000   1.0000   1.0000   1.0000   1.0000   1.0000   1.0000
     1.0000   1.0000   1.0000   1.0000   1.0000   1.0000   1.0000   1.0000
     1.0000   1.0000   1.0000   1.0000   1.0000   1.0000   1.0000   1.0000

          k = 0.1667 0.5344 0.8156 (  4228 PWs)   bands (ev):

   -14.1281 -14.1236 -14.1229 -14.1204 -14.1172 -14.1172 -14.1152 -14.1148
   -14.1046 -14.1032 -14.0977 -14.0941 -14.0874 -14.0844 -14.0723 -14.0698
   -14.0692 -14.0679 -14.0588 -14.0571  -5.7329  -5.5348  -5.2416  -5.0290
    -0.3340   0.2474   0.7819   1.1411   3.3092   3.4349   3.6858   4.3813
     4.4688   5.2454   5.3310   5.8936   6.0963   6.3194   6.5070   6.7387

     occupation numbers 
     1.0000   1.0000   1.0000   1.0000   1.0000   1.0000   1.0000   1.0000
     1.0000   1.0000   1.0000   1.0000   1.0000   1.0000   1.0000   1.0000
     1.0000   1.0000   1.0000   1.0000   1.0000   1.0000   1.0000   1.0000
     1.0000   1.0000   1.0000   1.0000   1.0000   1.0000   1.0000   1.0000
     1.0000   1.0000   1.0000   1.0000   1.0000   1.0000   1.0000   1.0000

          k = 0.1667 0.5344 1.1419 (  4228 PWs)   bands (ev):

   -14.1270 -14.1254 -14.1227 -14.1216 -14.1177 -14.1176 -14.1154 -14.1151
   -14.1042 -14.1037 -14.0955 -14.0943 -14.0848 -14.0838 -14.0718 -14.0709
   -14.0686 -14.0682 -14.0583 -14.0577  -5.5233  -5.3886  -5.2764  -5.1393
    -0.3738  -0.1606   0.7401   0.8800   3.6222   3.6758   3.9170   4.1690
     4.4230   4.7728   5.3876   5.6742   5.9876   6.2178   6.4480   6.6220

     occupation numbers 
     1.0000   1.0000   1.0000   1.0000   1.0000   1.0000   1.0000   1.0000
     1.0000   1.0000   1.0000   1.0000   1.0000   1.0000   1.0000   1.0000
     1.0000   1.0000   1.0000   1.0000   1.0000   1.0000   1.0000   1.0000
     1.0000   1.0000   1.0000   1.0000   1.0000   1.0000   1.0000   1.0000
     1.0000   1.0000   1.0000   1.0000   1.0000   1.0000   1.0000   1.0000

          k = 0.1667 0.8907 0.1631 (  4245 PWs)   bands (ev):

   -14.1250 -14.1228 -14.1207 -14.1202 -14.1180 -14.1130 -14.1124 -14.1121
   -14.1065 -14.1057 -14.1037 -14.0967 -14.0882 -14.0838 -14.0741 -14.0738
   -14.0674 -14.0642 -14.0583 -14.0570  -5.7417  -5.5617  -5.1590  -4.9858
    -0.2079   0.3084   0.6521   0.8685   3.2544   4.0037   4.3529   4.6284
     5.0399   5.0970   5.3365   5.5158   5.9260   6.3584   6.4451   6.7579

     occupation numbers 
     1.0000   1.0000   1.0000   1.0000   1.0000   1.0000   1.0000   1.0000
     1.0000   1.0000   1.0000   1.0000   1.0000   1.0000   1.0000   1.0000
     1.0000   1.0000   1.0000   1.0000   1.0000   1.0000   1.0000   1.0000
     1.0000   1.0000   1.0000   1.0000   1.0000   1.0000   1.0000   1.0000
     1.0000   1.0000   1.0000   1.0000   1.0000   1.0000   1.0000   1.0000

          k = 0.1667 0.8907 0.4894 (  4249 PWs)   bands (ev):

   -14.1271 -14.1241 -14.1218 -14.1206 -14.1185 -14.1135 -14.1121 -14.1115
   -14.1065 -14.1058 -14.1016 -14.0963 -14.0867 -14.0830 -14.0735 -14.0732
   -14.0675 -14.0648 -14.0582 -14.0571  -5.6509  -5.4809  -5.1401  -4.9802
    -0.1721   0.3993   0.6687   0.8392   3.2558   3.3752   3.6806   4.1929
     4.6091   5.1965   5.3447   5.7238   5.8472   6.0714   6.3525   6.5536

     occupation numbers 
     1.0000   1.0000   1.0000   1.0000   1.0000   1.0000   1.0000   1.0000
     1.0000   1.0000   1.0000   1.0000   1.0000   1.0000   1.0000   1.0000
     1.0000   1.0000   1.0000   1.0000   1.0000   1.0000   1.0000   1.0000
     1.0000   1.0000   1.0000   1.0000   1.0000   1.0000   1.0000   1.0000
     1.0000   1.0000   1.0000   1.0000   1.0000   1.0000   1.0000   1.0000

          k = 0.1667 0.8907 0.8156 (  4245 PWs)   bands (ev):

   -14.1293 -14.1269 -14.1233 -14.1223 -14.1180 -14.1144 -14.1118 -14.1113
   -14.1059 -14.1055 -14.0994 -14.0960 -14.0842 -14.0818 -14.0726 -14.0723
   -14.0675 -14.0657 -14.0580 -14.0573  -5.4956  -5.3443  -5.1325  -4.9927
    -0.1224   0.3640   0.7125   0.8735   2.8617   3.1719   3.6177   3.8229
     4.0595   4.7457   5.0438   5.3533   5.6425   5.8077   5.9935   6.4779

     occupation numbers 
     1.0000   1.0000   1.0000   1.0000   1.0000   1.0000   1.0000   1.0000
     1.0000   1.0000   1.0000   1.0000   1.0000   1.0000   1.0000   1.0000
     1.0000   1.0000   1.0000   1.0000   1.0000   1.0000   1.0000   1.0000
     1.0000   1.0000   1.0000   1.0000   1.0000   1.0000   1.0000   1.0000
     1.0000   1.0000   1.0000   1.0000   1.0000   1.0000   1.0000   1.0000

          k = 0.1667 0.8907 1.1419 (  4224 PWs)   bands (ev):

   -14.1302 -14.1293 -14.1242 -14.1238 -14.1169 -14.1156 -14.1117 -14.1115
   -14.1053 -14.1052 -14.0975 -14.0963 -14.0820 -14.0812 -14.0718 -14.0717
   -14.0672 -14.0665 -14.0578 -14.0575  -5.3271  -5.2274  -5.1474  -5.0532
    -0.0380   0.1385   0.8363   0.8928   2.8711   3.1994   3.2411   3.6101
     4.0206   4.4368   4.6911   5.0951   5.2592   5.4918   6.0469   6.2025

     occupation numbers 
     1.0000   1.0000   1.0000   1.0000   1.0000   1.0000   1.0000   1.0000
     1.0000   1.0000   1.0000   1.0000   1.0000   1.0000   1.0000   1.0000
     1.0000   1.0000   1.0000   1.0000   1.0000   1.0000   1.0000   1.0000
     1.0000   1.0000   1.0000   1.0000   1.0000   1.0000   1.0000   1.0000
     1.0000   1.0000   1.0000   1.0000   1.0000   1.0000   1.0000   1.0000

          k = 0.1667 1.2470 0.1631 (  4258 PWs)   bands (ev):

   -14.1259 -14.1243 -14.1235 -14.1223 -14.1139 -14.1115 -14.1095 -14.1087
   -14.1074 -14.1054 -14.1038 -14.0999 -14.0841 -14.0810 -14.0793 -14.0776
   -14.0625 -14.0606 -14.0587 -14.0583  -5.4086  -5.3141  -5.1615  -5.1278
    -0.2747   0.0158   0.1659   0.3857   3.7770   4.2334   4.5739   4.8473
     5.0205   5.0952   5.4606   5.6881   6.0578   6.2054   6.2884   6.4338

     occupation numbers 
     1.0000   1.0000   1.0000   1.0000   1.0000   1.0000   1.0000   1.0000
     1.0000   1.0000   1.0000   1.0000   1.0000   1.0000   1.0000   1.0000
     1.0000   1.0000   1.0000   1.0000   1.0000   1.0000   1.0000   1.0000
     1.0000   1.0000   1.0000   1.0000   1.0000   1.0000   1.0000   1.0000
     1.0000   1.0000   1.0000   1.0000   1.0000   1.0000   1.0000   1.0000

          k = 0.1667 1.2470 0.4894 (  4249 PWs)   bands (ev):

   -14.1281 -14.1264 -14.1252 -14.1241 -14.1139 -14.1117 -14.1090 -14.1087
   -14.1066 -14.1053 -14.1023 -14.0994 -14.0831 -14.0809 -14.0775 -14.0766
   -14.0627 -14.0611 -14.0585 -14.0583  -5.3417  -5.2552  -5.1268  -5.0928
    -0.1302   0.1538   0.3006   0.4553   3.5289   3.7324   3.9715   4.2635
     4.3602   4.8457   5.2187   5.3954   5.5132   5.8014   6.1483   6.4454

     occupation numbers 
     1.0000   1.0000   1.0000   1.0000   1.0000   1.0000   1.0000   1.0000
     1.0000   1.0000   1.0000   1.0000   1.0000   1.0000   1.0000   1.0000
     1.0000   1.0000   1.0000   1.0000   1.0000   1.0000   1.0000   1.0000
     1.0000   1.0000   1.0000   1.0000   1.0000   1.0000   1.0000   1.0000
     1.0000   1.0000   1.0000   1.0000   1.0000   1.0000   1.0000   1.0000

          k = 0.1667 1.2470 0.8156 (  4229 PWs)   bands (ev):

   -14.1308 -14.1296 -14.1274 -14.1267 -14.1138 -14.1122 -14.1088 -14.1086
   -14.1054 -14.1048 -14.1008 -14.0989 -14.0814 -14.0802 -14.0755 -14.0751
   -14.0628 -14.0618 -14.0583 -14.0582  -5.2347  -5.1629  -5.0840  -5.0483
     0.1131   0.3644   0.5180   0.5720   2.8805   3.3077   3.4001   3.7986
     3.8858   4.3059   4.5340   5.0013   5.0837   5.3695   6.0014   6.1568

     occupation numbers 
     1.0000   1.0000   1.0000   1.0000   1.0000   1.0000   1.0000   1.0000
     1.0000   1.0000   1.0000   1.0000   1.0000   1.0000   1.0000   1.0000
     1.0000   1.0000   1.0000   1.0000   1.0000   1.0000   1.0000   1.0000
     1.0000   1.0000   1.0000   1.0000   1.0000   1.0000   1.0000   1.0000
     1.0000   1.0000   1.0000   1.0000   1.0000   1.0000   1.0000   1.0000

          k = 0.1667 1.2470 1.1419 (  4220 PWs)   bands (ev):

   -14.1325 -14.1321 -14.1289 -14.1286 -14.1135 -14.1129 -14.1087 -14.1086
   -14.1046 -14.1044 -14.0996 -14.0989 -14.0799 -14.0796 -14.0740 -14.0739
   -14.0627 -14.0624 -14.0582 -14.0582  -5.1339  -5.0914  -5.0618  -5.0323
     0.3458   0.4495   0.7052   0.7297   2.6181   2.8168   3.1632   3.3630
     3.6468   3.7681   4.2145   4.5188   5.0710   5.2684   5.9122   5.9509

     occupation numbers 
     1.0000   1.0000   1.0000   1.0000   1.0000   1.0000   1.0000   1.0000
     1.0000   1.0000   1.0000   1.0000   1.0000   1.0000   1.0000   1.0000
     1.0000   1.0000   1.0000   1.0000   1.0000   1.0000   1.0000   1.0000
     1.0000   1.0000   1.0000   1.0000   1.0000   1.0000   1.0000   1.0000
     1.0000   1.0000   1.0000   1.0000   1.0000   1.0000   1.0000   1.0000

          k =-0.5000 0.1781 0.1631 (  4246 PWs)   bands (ev):

   -14.1312 -14.1312 -14.1204 -14.1204 -14.1155 -14.1155 -14.1136 -14.1136
   -14.1004 -14.1004 -14.0991 -14.0991 -14.0910 -14.0910 -14.0730 -14.0730
   -14.0660 -14.0660 -14.0577 -14.0577  -6.0738  -6.0738  -5.1331  -5.1331
     0.4569   0.4569   1.9730   1.9730   3.3881   3.3881   4.2980   4.2980
     4.6891   4.6891   5.2436   5.2436   5.5798   5.5798   6.6993   6.6993

     occupation numbers 
     1.0000   1.0000   1.0000   1.0000   1.0000   1.0000   1.0000   1.0000
     1.0000   1.0000   1.0000   1.0000   1.0000   1.0000   1.0000   1.0000
     1.0000   1.0000   1.0000   1.0000   1.0000   1.0000   1.0000   1.0000
     1.0000   1.0000   1.0000   1.0000   1.0000   1.0000   1.0000   1.0000
     1.0000   1.0000   1.0000   1.0000   1.0000   1.0000   1.0000   1.0000

          k =-0.5000 0.1781 0.4894 (  4220 PWs)   bands (ev):

   -14.1305 -14.1305 -14.1205 -14.1205 -14.1163 -14.1163 -14.1138 -14.1138
   -14.0996 -14.0996 -14.0985 -14.0985 -14.0898 -14.0898 -14.0732 -14.0732
   -14.0662 -14.0662 -14.0578 -14.0578  -5.9686  -5.9686  -5.1370  -5.1370
     0.1501   0.1501   1.5265   1.5265   3.5722   3.5722   4.3484   4.3484
     5.0250   5.0250   5.3991   5.3991   6.0615   6.0615   6.5806   6.5806

     occupation numbers 
     1.0000   1.0000   1.0000   1.0000   1.0000   1.0000   1.0000   1.0000
     1.0000   1.0000   1.0000   1.0000   1.0000   1.0000   1.0000   1.0000
     1.0000   1.0000   1.0000   1.0000   1.0000   1.0000   1.0000   1.0000
     1.0000   1.0000   1.0000   1.0000   1.0000   1.0000   1.0000   1.0000
     1.0000   1.0000   1.0000   1.0000   1.0000   1.0000   1.0000   1.0000

          k =-0.5000 0.1781 0.8156 (  4222 PWs)   bands (ev):

   -14.1293 -14.1293 -14.1211 -14.1211 -14.1173 -14.1173 -14.1142 -14.1142
   -14.1000 -14.1000 -14.0963 -14.0963 -14.0880 -14.0880 -14.0735 -14.0735
   -14.0664 -14.0664 -14.0579 -14.0579  -5.7837  -5.7837  -5.1752  -5.1752
    -0.2125  -0.2125   0.9946   0.9946   3.8817   3.8817   4.6237   4.6237
     5.1639   5.1639   5.6457   5.6457   6.2765   6.2765   6.7950   6.7950

     occupation numbers 
     1.0000   1.0000   1.0000   1.0000   1.0000   1.0000   1.0000   1.0000
     1.0000   1.0000   1.0000   1.0000   1.0000   1.0000   1.0000   1.0000
     1.0000   1.0000   1.0000   1.0000   1.0000   1.0000   1.0000   1.0000
     1.0000   1.0000   1.0000   1.0000   1.0000   1.0000   1.0000   1.0000
     1.0000   1.0000   1.0000   1.0000   1.0000   1.0000   1.0000   1.0000

          k =-0.5000 0.1781 1.1419 (  4208 PWs)   bands (ev):

   -14.1282 -14.1282 -14.1219 -14.1219 -14.1179 -14.1179 -14.1145 -14.1145
   -14.1003 -14.1003 -14.0947 -14.0947 -14.0866 -14.0866 -14.0737 -14.0737
   -14.0665 -14.0665 -14.0580 -14.0580  -5.5858  -5.5858  -5.2676  -5.2676
    -0.4259  -0.4259   0.6487   0.6487   4.2920   4.2920   4.9233   4.9233
     4.9967   4.9967   5.4874   5.4874   6.6823   6.6823   6.9521   6.9521

     occupation numbers 
     1.0000   1.0000   1.0000   1.0000   1.0000   1.0000   1.0000   1.0000
     1.0000   1.0000   1.0000   1.0000   1.0000   1.0000   1.0000   1.0000
     1.0000   1.0000   1.0000   1.0000   1.0000   1.0000   1.0000   1.0000
     1.0000   1.0000   1.0000   1.0000   1.0000   1.0000   1.0000   1.0000
     1.0000   1.0000   1.0000   1.0000   1.0000   1.0000   1.0000   1.0000

          k =-0.5000 0.5344 0.1631 (  4234 PWs)   bands (ev):

   -14.1267 -14.1267 -14.1189 -14.1189 -14.1162 -14.1162 -14.1152 -14.1152
   -14.1029 -14.1029 -14.0998 -14.0998 -14.0886 -14.0886 -14.0711 -14.0711
   -14.0680 -14.0680 -14.0577 -14.0577  -5.9265  -5.9265  -5.0873  -5.0873
     0.2702   0.2702   1.4674   1.4674   3.5168   3.5168   4.1632   4.1632
     5.0007   5.0007   5.1689   5.1689   5.8451   5.8451   6.7251   6.7251

     occupation numbers 
     1.0000   1.0000   1.0000   1.0000   1.0000   1.0000   1.0000   1.0000
     1.0000   1.0000   1.0000   1.0000   1.0000   1.0000   1.0000   1.0000
     1.0000   1.0000   1.0000   1.0000   1.0000   1.0000   1.0000   1.0000
     1.0000   1.0000   1.0000   1.0000   1.0000   1.0000   1.0000   1.0000
     1.0000   1.0000   1.0000   1.0000   1.0000   1.0000   1.0000   1.0000

          k =-0.5000 0.5344 0.4894 (  4234 PWs)   bands (ev):

   -14.1265 -14.1265 -14.1201 -14.1201 -14.1165 -14.1165 -14.1150 -14.1150
   -14.1030 -14.1030 -14.0985 -14.0985 -14.0874 -14.0874 -14.0711 -14.0711
   -14.0684 -14.0684 -14.0578 -14.0578  -5.8271  -5.8271  -5.0871  -5.0871
     0.1293   0.1293   1.2658   1.2658   3.4832   3.4832   3.9810   3.9810
     4.6405   4.6405   5.6693   5.6693   6.2456   6.2456   6.6787   6.6787

     occupation numbers 
     1.0000   1.0000   1.0000   1.0000   1.0000   1.0000   1.0000   1.0000
     1.0000   1.0000   1.0000   1.0000   1.0000   1.0000   1.0000   1.0000
     1.0000   1.0000   1.0000   1.0000   1.0000   1.0000   1.0000   1.0000
     1.0000   1.0000   1.0000   1.0000   1.0000   1.0000   1.0000   1.0000
     1.0000   1.0000   1.0000   1.0000   1.0000   1.0000   1.0000   1.0000

          k =-0.5000 0.5344 0.8156 (  4224 PWs)   bands (ev):

   -14.1261 -14.1261 -14.1219 -14.1219 -14.1170 -14.1170 -14.1148 -14.1148
   -14.1032 -14.1032 -14.0968 -14.0968 -14.0856 -14.0856 -14.0711 -14.0711
   -14.0688 -14.0688 -14.0577 -14.0577  -5.6543  -5.6543  -5.1149  -5.1149
    -0.0903  -0.0903   0.9736   0.9736   3.4812   3.4812   4.1514   4.1514
     4.5105   4.5105   5.6992   5.6992   6.1098   6.1098   6.6429   6.6429

     occupation numbers 
     1.0000   1.0000   1.0000   1.0000   1.0000   1.0000   1.0000   1.0000
     1.0000   1.0000   1.0000   1.0000   1.0000   1.0000   1.0000   1.0000
     1.0000   1.0000   1.0000   1.0000   1.0000   1.0000   1.0000   1.0000
     1.0000   1.0000   1.0000   1.0000   1.0000   1.0000   1.0000   1.0000
     1.0000   1.0000   1.0000   1.0000   1.0000   1.0000   1.0000   1.0000

          k =-0.5000 0.5344 1.1419 (  4202 PWs)   bands (ev):

   -14.1255 -14.1255 -14.1236 -14.1236 -14.1174 -14.1174 -14.1148 -14.1148
   -14.1033 -14.1033 -14.0956 -14.0956 -14.0841 -14.0841 -14.0711 -14.0711
   -14.0689 -14.0689 -14.0577 -14.0577  -5.4727  -5.4727  -5.1914  -5.1914
    -0.2471  -0.2471   0.7544   0.7544   3.7175   3.7175   4.0927   4.0927
     4.7680   4.7680   5.2755   5.2755   5.9548   5.9548   6.4567   6.4567

     occupation numbers 
     1.0000   1.0000   1.0000   1.0000   1.0000   1.0000   1.0000   1.0000
     1.0000   1.0000   1.0000   1.0000   1.0000   1.0000   1.0000   1.0000
     1.0000   1.0000   1.0000   1.0000   1.0000   1.0000   1.0000   1.0000
     1.0000   1.0000   1.0000   1.0000   1.0000   1.0000   1.0000   1.0000
     1.0000   1.0000   1.0000   1.0000   1.0000   1.0000   1.0000   1.0000

          k =-0.5000 0.8907 0.1631 (  4236 PWs)   bands (ev):

   -14.1243 -14.1243 -14.1198 -14.1198 -14.1159 -14.1159 -14.1126 -14.1126
   -14.1058 -14.1058 -14.1004 -14.1004 -14.0855 -14.0855 -14.0740 -14.0740
   -14.0657 -14.0657 -14.0576 -14.0576  -5.6658  -5.6658  -5.0579  -5.0579
     0.0073   0.0073   0.7724   0.7724   3.8071   3.8071   4.3385   4.3385
     5.1687   5.1687   5.3580   5.3580   5.8941   5.8941   6.6194   6.6194

     occupation numbers 
     1.0000   1.0000   1.0000   1.0000   1.0000   1.0000   1.0000   1.0000
     1.0000   1.0000   1.0000   1.0000   1.0000   1.0000   1.0000   1.0000
     1.0000   1.0000   1.0000   1.0000   1.0000   1.0000   1.0000   1.0000
     1.0000   1.0000   1.0000   1.0000   1.0000   1.0000   1.0000   1.0000
     1.0000   1.0000   1.0000   1.0000   1.0000   1.0000   1.0000   1.0000

          k =-0.5000 0.8907 0.4894 (  4236 PWs)   bands (ev):

   -14.1258 -14.1258 -14.1212 -14.1212 -14.1161 -14.1161 -14.1119 -14.1119
   -14.1053 -14.1053 -14.0997 -14.0997 -14.0844 -14.0844 -14.0736 -14.0736
   -14.0660 -14.0660 -14.0576 -14.0576  -5.5798  -5.5798  -5.0460  -5.0460
     0.0592   0.0592   0.7808   0.7808   3.3849   3.3849   4.1067   4.1067
     4.5763   4.5763   5.6112   5.6112   5.8050   5.8050   6.5151   6.5151

     occupation numbers 
     1.0000   1.0000   1.0000   1.0000   1.0000   1.0000   1.0000   1.0000
     1.0000   1.0000   1.0000   1.0000   1.0000   1.0000   1.0000   1.0000
     1.0000   1.0000   1.0000   1.0000   1.0000   1.0000   1.0000   1.0000
     1.0000   1.0000   1.0000   1.0000   1.0000   1.0000   1.0000   1.0000
     1.0000   1.0000   1.0000   1.0000   1.0000   1.0000   1.0000   1.0000

          k =-0.5000 0.8907 0.8156 (  4228 PWs)   bands (ev):

   -14.1279 -14.1279 -14.1232 -14.1232 -14.1164 -14.1164 -14.1114 -14.1114
   -14.1048 -14.1048 -14.0986 -14.0986 -14.0824 -14.0824 -14.0729 -14.0729
   -14.0664 -14.0664 -14.0576 -14.0576  -5.4346  -5.4346  -5.0479  -5.0479
     0.0883   0.0883   0.8028   0.8028   3.0270   3.0270   3.7802   3.7802
     4.4333   4.4333   5.0807   5.0807   5.5834   5.5834   6.3126   6.3126

     occupation numbers 
     1.0000   1.0000   1.0000   1.0000   1.0000   1.0000   1.0000   1.0000
     1.0000   1.0000   1.0000   1.0000   1.0000   1.0000   1.0000   1.0000
     1.0000   1.0000   1.0000   1.0000   1.0000   1.0000   1.0000   1.0000
     1.0000   1.0000   1.0000   1.0000   1.0000   1.0000   1.0000   1.0000
     1.0000   1.0000   1.0000   1.0000   1.0000   1.0000   1.0000   1.0000

          k =-0.5000 0.8907 1.1419 (  4226 PWs)   bands (ev):

   -14.1293 -14.1293 -14.1246 -14.1246 -14.1165 -14.1165 -14.1111 -14.1111
   -14.1046 -14.1046 -14.0979 -14.0979 -14.0809 -14.0809 -14.0724 -14.0724
   -14.0667 -14.0667 -14.0576 -14.0576  -5.2892  -5.2892  -5.0885  -5.0885
     0.0633   0.0633   0.8345   0.8345   3.0362   3.0362   3.3753   3.3753
     4.4210   4.4210   4.7444   4.7444   5.4806   5.4806   5.9565   5.9565

     occupation numbers 
     1.0000   1.0000   1.0000   1.0000   1.0000   1.0000   1.0000   1.0000
     1.0000   1.0000   1.0000   1.0000   1.0000   1.0000   1.0000   1.0000
     1.0000   1.0000   1.0000   1.0000   1.0000   1.0000   1.0000   1.0000
     1.0000   1.0000   1.0000   1.0000   1.0000   1.0000   1.0000   1.0000
     1.0000   1.0000   1.0000   1.0000   1.0000   1.0000   1.0000   1.0000

          k =-0.5000 1.2470 0.1631 (  4246 PWs)   bands (ev):

   -14.1249 -14.1249 -14.1233 -14.1233 -14.1117 -14.1117 -14.1108 -14.1108
   -14.1051 -14.1051 -14.1023 -14.1023 -14.0823 -14.0823 -14.0786 -14.0786
   -14.0615 -14.0615 -14.0585 -14.0585  -5.3670  -5.3670  -5.1393  -5.1393
    -0.0769  -0.0769   0.1927   0.1927   4.2771   4.2771   4.6197   4.6197
     5.1015   5.1015   5.3191   5.3191   6.0094   6.0094   6.3261   6.3261

     occupation numbers 
     1.0000   1.0000   1.0000   1.0000   1.0000   1.0000   1.0000   1.0000
     1.0000   1.0000   1.0000   1.0000   1.0000   1.0000   1.0000   1.0000
     1.0000   1.0000   1.0000   1.0000   1.0000   1.0000   1.0000   1.0000
     1.0000   1.0000   1.0000   1.0000   1.0000   1.0000   1.0000   1.0000
     1.0000   1.0000   1.0000   1.0000   1.0000   1.0000   1.0000   1.0000

          k =-0.5000 1.2470 0.4894 (  4248 PWs)   bands (ev):

   -14.1268 -14.1268 -14.1252 -14.1252 -14.1120 -14.1120 -14.1105 -14.1105
   -14.1043 -14.1043 -14.1018 -14.1018 -14.0812 -14.0812 -14.0777 -14.0777
   -14.0616 -14.0616 -14.0586 -14.0586  -5.3039  -5.3039  -5.1046  -5.1046
     0.0584   0.0584   0.3066   0.3066   3.6757   3.6757   4.1749   4.1749
     4.6898   4.6898   5.1295   5.1295   5.6692   5.6692   6.0974   6.0974

     occupation numbers 
     1.0000   1.0000   1.0000   1.0000   1.0000   1.0000   1.0000   1.0000
     1.0000   1.0000   1.0000   1.0000   1.0000   1.0000   1.0000   1.0000
     1.0000   1.0000   1.0000   1.0000   1.0000   1.0000   1.0000   1.0000
     1.0000   1.0000   1.0000   1.0000   1.0000   1.0000   1.0000   1.0000
     1.0000   1.0000   1.0000   1.0000   1.0000   1.0000   1.0000   1.0000

          k =-0.5000 1.2470 0.8156 (  4244 PWs)   bands (ev):

   -14.1295 -14.1295 -14.1277 -14.1277 -14.1125 -14.1125 -14.1104 -14.1104
   -14.1032 -14.1032 -14.1009 -14.1009 -14.0795 -14.0795 -14.0765 -14.0765
   -14.0618 -14.0618 -14.0586 -14.0586  -5.2043  -5.2043  -5.0607  -5.0607
     0.2640   0.2640   0.5038   0.5038   3.0939   3.0939   3.5941   3.5941
     4.1390   4.1390   4.5887   4.5887   5.5217   5.5217   5.8879   5.8879

     occupation numbers 
     1.0000   1.0000   1.0000   1.0000   1.0000   1.0000   1.0000   1.0000
     1.0000   1.0000   1.0000   1.0000   1.0000   1.0000   1.0000   1.0000
     1.0000   1.0000   1.0000   1.0000   1.0000   1.0000   1.0000   1.0000
     1.0000   1.0000   1.0000   1.0000   1.0000   1.0000   1.0000   1.0000
     1.0000   1.0000   1.0000   1.0000   1.0000   1.0000   1.0000   1.0000

          k =-0.5000 1.2470 1.1419 (  4212 PWs)   bands (ev):

   -14.1313 -14.1313 -14.1295 -14.1295 -14.1129 -14.1129 -14.1105 -14.1105
   -14.1025 -14.1025 -14.1002 -14.1002 -14.0782 -14.0782 -14.0755 -14.0755
   -14.0619 -14.0619 -14.0586 -14.0586  -5.1170  -5.1170  -5.0427  -5.0427
     0.4067   0.4067   0.6981   0.6981   2.8735   2.8735   3.1231   3.1231
     3.7551   3.7551   4.0744   4.0744   5.6167   5.6167   5.7972   5.7972

     occupation numbers 
     1.0000   1.0000   1.0000   1.0000   1.0000   1.0000   1.0000   1.0000
     1.0000   1.0000   1.0000   1.0000   1.0000   1.0000   1.0000   1.0000
     1.0000   1.0000   1.0000   1.0000   1.0000   1.0000   1.0000   1.0000
     1.0000   1.0000   1.0000   1.0000   1.0000   1.0000   1.0000   1.0000
     1.0000   1.0000   1.0000   1.0000   1.0000   1.0000   1.0000   1.0000

     highest occupied level (ev):     7.0156

!    total energy              =    -827.73698550 Ry
     estimated scf accuracy    <          8.0E-10 Ry

     The total energy is the sum of the following terms:
     one-electron contribution =    -272.79089107 Ry
     hartree contribution      =     184.52761853 Ry
     xc contribution           =    -308.87794764 Ry
     ewald contribution        =    -430.47817442 Ry
     DFT-D3 Dispersion         =      -0.11759090 Ry

     convergence has been achieved in  12 iterations

     Forces acting on atoms (cartesian axes, Ry/au):

     atom    1 type  2   force =    -0.00716345    0.00000000   -0.00062752
     atom    2 type  1   force =     0.00772330    0.00000000    0.00106403
     atom    3 type  2   force =     0.00716345    0.00000000   -0.00062752
     atom    4 type  1   force =    -0.00772330   -0.00000000    0.00106403
     atom    5 type  2   force =    -0.00716345    0.00000000    0.00062752
     atom    6 type  1   force =     0.00772330    0.00000000   -0.00106403
     atom    7 type  2   force =     0.00716345    0.00000000    0.00062752
     atom    8 type  1   force =    -0.00772330   -0.00000000   -0.00106403
     The non-local contrib.  to forces
     atom    1 type  2   force =    -0.09694689    0.00000000    0.11667481
     atom    2 type  1   force =     0.33787769    0.00000000    0.30264698
     atom    3 type  2   force =     0.09694689    0.00000000    0.11667481
     atom    4 type  1   force =    -0.33787769    0.00000000    0.30264698
     atom    5 type  2   force =    -0.09694689    0.00000000   -0.11667481
     atom    6 type  1   force =     0.33787769    0.00000000   -0.30264698
     atom    7 type  2   force =     0.09694689    0.00000000   -0.11667481
     atom    8 type  1   force =    -0.33787769    0.00000000   -0.30264698
     The ionic contribution  to forces
     atom    1 type  2   force =     0.94644544    0.00000000   -1.41014687
     atom    2 type  1   force =    -0.57683295    0.00000000   -0.87089140
     atom    3 type  2   force =    -0.94644544    0.00000000   -1.41014687
     atom    4 type  1   force =     0.57683295    0.00000000   -0.87089140
     atom    5 type  2   force =     0.94644544    0.00000000    1.41014687
     atom    6 type  1   force =    -0.57683295   -0.00000000    0.87089140
     atom    7 type  2   force =    -0.94644544    0.00000000    1.41014687
     atom    8 type  1   force =     0.57683295    0.00000000    0.87089140
     The local contribution  to forces
     atom    1 type  2   force =    -0.86742558    0.00000000    1.30400081
     atom    2 type  1   force =     0.25421457    0.00000000    0.57287346
     atom    3 type  2   force =     0.86742558    0.00000000    1.30400081
     atom    4 type  1   force =    -0.25421457    0.00000000    0.57287346
     atom    5 type  2   force =    -0.86742558    0.00000000   -1.30400081
     atom    6 type  1   force =     0.25421457    0.00000000   -0.57287346
     atom    7 type  2   force =     0.86742558    0.00000000   -1.30400081
     atom    8 type  1   force =    -0.25421457    0.00000000   -0.57287346
     The core correction contribution to forces
     atom    1 type  2   force =     0.01124028    0.00000000   -0.01307905
     atom    2 type  1   force =    -0.00726587   -0.00000000   -0.00472463
     atom    3 type  2   force =    -0.01124028   -0.00000000   -0.01307905
     atom    4 type  1   force =     0.00726587   -0.00000000   -0.00472463
     atom    5 type  2   force =     0.01124028   -0.00000000    0.01307905
     atom    6 type  1   force =    -0.00726587    0.00000000    0.00472463
     atom    7 type  2   force =    -0.01124028   -0.00000000    0.01307905
     atom    8 type  1   force =     0.00726587   -0.00000000    0.00472463
     The Hubbard contrib.    to forces
     atom    1 type  2   force =     0.00000000    0.00000000    0.00000000
     atom    2 type  1   force =     0.00000000    0.00000000    0.00000000
     atom    3 type  2   force =     0.00000000    0.00000000    0.00000000
     atom    4 type  1   force =     0.00000000    0.00000000    0.00000000
     atom    5 type  2   force =     0.00000000    0.00000000    0.00000000
     atom    6 type  1   force =     0.00000000    0.00000000    0.00000000
     atom    7 type  2   force =     0.00000000    0.00000000    0.00000000
     atom    8 type  1   force =     0.00000000    0.00000000    0.00000000
     The SCF correction term to forces
     atom    1 type  2   force =    -0.00000080    0.00000000   -0.00000058
     atom    2 type  1   force =     0.00002345    0.00000000    0.00001580
     atom    3 type  2   force =     0.00000080    0.00000000   -0.00000058
     atom    4 type  1   force =    -0.00002345    0.00000000    0.00001580
     atom    5 type  2   force =    -0.00000080    0.00000000    0.00000058
     atom    6 type  1   force =     0.00002345    0.00000000   -0.00001580
     atom    7 type  2   force =     0.00000080   -0.00000000    0.00000058
     atom    8 type  1   force =    -0.00002345    0.00000000   -0.00001580

     DFT-D3 dispersion contribution to forces:
     atom    1 type  2   force =    -0.00047590   -0.00000000    0.00192335
     atom    2 type  1   force =    -0.00029360    0.00000000    0.00114382
     atom    3 type  2   force =     0.00047590   -0.00000000    0.00192335
     atom    4 type  1   force =     0.00029360    0.00000000    0.00114382
     atom    5 type  2   force =    -0.00047590    0.00000000   -0.00192335
     atom    6 type  1   force =    -0.00029360    0.00000000   -0.00114382
     atom    7 type  2   force =     0.00047590   -0.00000000   -0.00192335
     atom    8 type  1   force =     0.00029360   -0.00000000   -0.00114382

     Total force =     0.021212     Total SCF correction =     0.000057

     DFT-D3 dispersion Force =     0.004613

     Writing all to output data dir ./tmp/SnSe_pnma.save/ :
     XML data file, charge density, pseudopotentials, collected wavefunctions
 
     init_run     :      1.20s CPU      1.33s WALL (       1 calls)
     electrons    :     24.22s CPU     26.14s WALL (       1 calls)
     forces       :      0.46s CPU      0.56s WALL (       1 calls)
     force_dftd3  :      0.05s CPU      0.05s WALL (       1 calls)

     Called by init_run:
     wfcinit      :      0.71s CPU      0.73s WALL (       1 calls)
     wfcinit:atom :      0.01s CPU      0.01s WALL (      11 calls)
     wfcinit:wfcr :      0.60s CPU      0.61s WALL (      11 calls)
     potinit      :      0.08s CPU      0.11s WALL (       1 calls)
     hinit0       :      0.18s CPU      0.20s WALL (       1 calls)

     Called by electrons:
     c_bands      :     17.81s CPU     18.08s WALL (      12 calls)
     sum_band     :      4.15s CPU      4.95s WALL (      12 calls)
     v_of_rho     :      0.80s CPU      0.84s WALL (      13 calls)
     v_h          :      0.06s CPU      0.06s WALL (      13 calls)
     v_xc         :      0.79s CPU      0.84s WALL (      14 calls)
     newd         :      1.49s CPU      2.34s WALL (      13 calls)
     mix_rho      :      0.08s CPU      0.09s WALL (      12 calls)
     energy_dftd3 :      0.04s CPU      0.04s WALL (       1 calls)

     Called by c_bands:
     init_us_2    :      0.57s CPU      0.59s WALL (     286 calls)
     cegterg      :     15.81s CPU     15.99s WALL (     132 calls)

     Called by sum_band:
     sum_band:wei :      0.00s CPU      0.00s WALL (      12 calls)
     sum_band:loo :      2.40s CPU      2.43s WALL (      12 calls)
     sum_band:buf :      0.04s CPU      0.04s WALL (     132 calls)
     sum_band:ini :      0.26s CPU      0.26s WALL (     132 calls)
     sum_band:cal :      0.37s CPU      0.38s WALL (     132 calls)
     sum_band:bec :      0.01s CPU      0.01s WALL (     132 calls)
     addusdens    :      1.55s CPU      2.22s WALL (      12 calls)
                                        0.00s GPU  (      12 calls)
     addusd:skk   :      0.01s CPU      0.01s WALL (      24 calls)
                                        0.00s GPU  (      24 calls)

     Called by *egterg:
     cdiaghg      :      0.95s CPU      0.95s WALL (     607 calls)
     cegterg:over :      0.88s CPU      0.88s WALL (     475 calls)
     cegterg:upda :      0.52s CPU      0.53s WALL (     475 calls)
     cegterg:last :      1.21s CPU      1.21s WALL (     317 calls)
     h_psi        :     11.03s CPU     11.16s WALL (     618 calls)
     s_psi        :      1.28s CPU      1.29s WALL (     618 calls)
     g_psi        :      0.05s CPU      0.05s WALL (     475 calls)

     Called by h_psi:
     h_psi:calbec :      1.24s CPU      1.24s WALL (     618 calls)
     vloc_psi     :      8.35s CPU      8.47s WALL (     618 calls)
     add_vuspsi   :      1.33s CPU      1.34s WALL (     618 calls)

     General routines
     calbec       :      1.73s CPU      1.74s WALL (     794 calls)
     fft          :      0.32s CPU      0.35s WALL (     178 calls)
     ffts         :      0.01s CPU      0.01s WALL (      25 calls)
     fftw         :      6.67s CPU      6.76s WALL (   36586 calls)
     interpolate  :      0.04s CPU      0.04s WALL (      13 calls)
 
     Parallel routines
 
     PWSCF        :     26.09s CPU     28.68s WALL

 
   This run was terminated on:  14:30:27  20May2026            

=------------------------------------------------------------------------------=
   JOB DONE.
=------------------------------------------------------------------------------=
