
     Program PWSCF v.7.3.1 starts on 20May2026 at 20:15:40 

     This program is part of the open-source Quantum ESPRESSO suite
     for quantum simulation of materials; please cite
         "P. Giannozzi et al., J. Phys.:Condens. Matter 21 395502 (2009);
         "P. Giannozzi et al., J. Phys.:Condens. Matter 29 465901 (2017);
         "P. Giannozzi et al., J. Chem. Phys. 152 154105 (2020);
          URL http://www.quantum-espresso.org", 
     in publications or presentations arising from this work. More details at
     http://www.quantum-espresso.org/quote

     Parallel version (MPI & OpenMP), running on       6 processor cores
     Number of MPI processes:                 6
     Threads/MPI process:                     1

     MPI processes distributed on     1 nodes
     5353 MiB available memory on the printing compute node when the environment starts
 
     Waiting for input...
     Reading input from standard input

     Current dimensions of program PWSCF are:
     Max number of different atomic species (ntypx) = 10
     Max number of k-points (npk) =  40000
     Max angular momentum in pseudopotentials (lmaxx) =  4
 
     K-points division:     npool     =       3
     R & G space division:  proc/nbgrp/npool/nimage =       2
     Subspace diagonalization in iterative solution of the eigenvalue problem:
     a serial algorithm will be used

 
     Parallelization info
     --------------------
     sticks:   dense  smooth     PW     G-vecs:    dense   smooth      PW
     Min        3968    1591    453               177900    45018    6800
     Max        3969    1592    454               177903    45019    6801
     Sum        7937    3183    907               355803    90037   13601
 
     Using Slab Decomposition
 


     bravais-lattice index     =            8
     lattice parameter (alat)  =      21.1271  a.u.
     unit-cell volume          =    1433.6934 (a.u.)^3
     number of atoms/cell      =            8
     number of atomic types    =            2
     number of electrons       =        80.00
     number of Kohn-Sham states=           40
     kinetic-energy cutoff     =      60.0000  Ry
     charge density cutoff     =     600.0000  Ry
     scf convergence threshold =      1.0E-08
     mixing beta               =       0.7000
     number of iterations used =            8  plain     mixing
     Exchange-correlation= SLA  PW   PBE  PBE
                           (   1   4   3   4   0   0   0)

     celldm(1)=  21.127138  celldm(2)=   0.373113  celldm(3)=   0.407469
     celldm(4)=   0.000000  celldm(5)=   0.000000  celldm(6)=   0.000000

     crystal axes: (cart. coord. in units of alat)
               a(1) = (   1.000000   0.000000   0.000000 )  
               a(2) = (   0.000000   0.373113   0.000000 )  
               a(3) = (   0.000000   0.000000   0.407469 )  

     reciprocal axes: (cart. coord. in units 2 pi/alat)
               b(1) = (  1.000000  0.000000  0.000000 )  
               b(2) = (  0.000000  2.680155  0.000000 )  
               b(3) = (  0.000000  0.000000  2.454176 )  


     PseudoPot. # 1 for Sn read from file:
     ../pseudo/Sn_pbe_v1.uspp.F.UPF
     MD5 check sum: 4cf58ce39ec5d5d420df3dd08604eb00
     Pseudo is Ultrasoft + core correction, Zval = 14.0
     Generated by new atomic code, or converted to UPF format
     Using radial grid of  891 points,  6 beta functions with: 
                l(1) =   0
                l(2) =   0
                l(3) =   1
                l(4) =   1
                l(5) =   2
                l(6) =   2
     Q(r) pseudized with  6 coefficients,  rinner =    1.200   1.200   1.200
                                                       1.200   1.200

     PseudoPot. # 2 for Se read from file:
     ../pseudo/Se_pbe_v1.uspp.F.UPF
     MD5 check sum: 1b3568f3a8ae88f9a2a0ad0698632c85
     Pseudo is Ultrasoft + core correction, Zval =  6.0
     Generated by new atomic code, or converted to UPF format
     Using radial grid of  877 points,  6 beta functions with: 
                l(1) =   0
                l(2) =   0
                l(3) =   1
                l(4) =   1
                l(5) =   2
                l(6) =   2
     Q(r) pseudized with  8 coefficients,  rinner =    1.300   1.300   1.300
                                                       1.300   1.300

     atomic species   valence    mass     pseudopotential
     Sn               14.00   118.71000     Sn( 1.00)
     Se                6.00    78.97100     Se( 1.00)

      8 Sym. Ops., with inversion, found ( 6 have fractional translation)


                                    s                        frac. trans.

      isym =  1     identity                                     

 cryst.   s( 1) = (     1          0          0      )
                  (     0          1          0      )
                  (     0          0          1      )

 cart.    s( 1) = (  1.0000000  0.0000000  0.0000000 )
                  (  0.0000000  1.0000000  0.0000000 )
                  (  0.0000000  0.0000000  1.0000000 )


      isym =  2     180 deg rotation - cart. axis [0,0,1]        

 cryst.   s( 2) = (    -1          0          0      )    f =(  0.5000000 )
                  (     0         -1          0      )       (  0.0000000 )
                  (     0          0          1      )       (  0.5000000 )

 cart.    s( 2) = ( -1.0000000  0.0000000  0.0000000 )    f =(  0.5000000 )
                  (  0.0000000 -1.0000000  0.0000000 )       (  0.0000000 )
                  (  0.0000000  0.0000000  1.0000000 )       (  0.2037343 )


      isym =  3     180 deg rotation - cart. axis [0,1,0]        

 cryst.   s( 3) = (    -1          0          0      )    f =(  0.0000000 )
                  (     0          1          0      )       (  0.5000000 )
                  (     0          0         -1      )       (  0.0000000 )

 cart.    s( 3) = ( -1.0000000  0.0000000  0.0000000 )    f =(  0.0000000 )
                  (  0.0000000  1.0000000  0.0000000 )       (  0.1865564 )
                  (  0.0000000  0.0000000 -1.0000000 )       (  0.0000000 )


      isym =  4     180 deg rotation - cart. axis [1,0,0]        

 cryst.   s( 4) = (     1          0          0      )    f =(  0.5000000 )
                  (     0         -1          0      )       ( -0.5000000 )
                  (     0          0         -1      )       ( -0.5000000 )

 cart.    s( 4) = (  1.0000000  0.0000000  0.0000000 )    f =(  0.5000000 )
                  (  0.0000000 -1.0000000  0.0000000 )       ( -0.1865564 )
                  (  0.0000000  0.0000000 -1.0000000 )       ( -0.2037343 )


      isym =  5     inversion                                    

 cryst.   s( 5) = (    -1          0          0      )
                  (     0         -1          0      )
                  (     0          0         -1      )

 cart.    s( 5) = ( -1.0000000  0.0000000  0.0000000 )
                  (  0.0000000 -1.0000000  0.0000000 )
                  (  0.0000000  0.0000000 -1.0000000 )


      isym =  6     inv. 180 deg rotation - cart. axis [0,0,1]   

 cryst.   s( 6) = (     1          0          0      )    f =(  0.5000000 )
                  (     0          1          0      )       (  0.0000000 )
                  (     0          0         -1      )       ( -0.5000000 )

 cart.    s( 6) = (  1.0000000  0.0000000  0.0000000 )    f =(  0.5000000 )
                  (  0.0000000  1.0000000  0.0000000 )       (  0.0000000 )
                  (  0.0000000  0.0000000 -1.0000000 )       ( -0.2037343 )


      isym =  7     inv. 180 deg rotation - cart. axis [0,1,0]   

 cryst.   s( 7) = (     1          0          0      )    f =(  0.0000000 )
                  (     0         -1          0      )       ( -0.5000000 )
                  (     0          0          1      )       (  0.0000000 )

 cart.    s( 7) = (  1.0000000  0.0000000  0.0000000 )    f =(  0.0000000 )
                  (  0.0000000 -1.0000000  0.0000000 )       ( -0.1865564 )
                  (  0.0000000  0.0000000  1.0000000 )       (  0.0000000 )


      isym =  8     inv. 180 deg rotation - cart. axis [1,0,0]   

 cryst.   s( 8) = (    -1          0          0      )    f =(  0.5000000 )
                  (     0          1          0      )       (  0.5000000 )
                  (     0          0          1      )       (  0.5000000 )

 cart.    s( 8) = ( -1.0000000  0.0000000  0.0000000 )    f =(  0.5000000 )
                  (  0.0000000  1.0000000  0.0000000 )       (  0.1865564 )
                  (  0.0000000  0.0000000  1.0000000 )       (  0.2037343 )


     point group D_2h (mmm) 
     there are  8 classes
     the character table:

       E     C2    C2'   C2''  i     s_v   s_v'  s_v''
A_g    1.00  1.00  1.00  1.00  1.00  1.00  1.00  1.00
B_1g   1.00  1.00 -1.00 -1.00  1.00  1.00 -1.00 -1.00
B_2g   1.00 -1.00  1.00 -1.00  1.00 -1.00  1.00 -1.00
B_3g   1.00 -1.00 -1.00  1.00  1.00 -1.00 -1.00  1.00
A_u    1.00  1.00  1.00  1.00 -1.00 -1.00 -1.00 -1.00
B_1u   1.00  1.00 -1.00 -1.00 -1.00 -1.00  1.00  1.00
B_2u   1.00 -1.00  1.00 -1.00 -1.00  1.00 -1.00  1.00
B_3u   1.00 -1.00 -1.00  1.00 -1.00  1.00  1.00 -1.00

     the symmetry operations in each class and the name of the first element:

     E        1
          identity                                               
     C2       2
          180 deg rotation - cart. axis [0,0,1]                  
     C2'      4
          180 deg rotation - cart. axis [1,0,0]                  
     C2''     3
          180 deg rotation - cart. axis [0,1,0]                  
     i        5
          inversion                                              
     s_v      6
          inv. 180 deg rotation - cart. axis [0,0,1]             
     s_v'     8
          inv. 180 deg rotation - cart. axis [1,0,0]             
     s_v''    7
          inv. 180 deg rotation - cart. axis [0,1,0]             

   Cartesian axes

     site n.     atom                  positions (alat units)
         1        Se     tau(   1) = (   0.8549563   0.0932782   0.1969085  )
         2        Sn     tau(   2) = (   0.1165395   0.0932782   0.0457534  )
         3        Se     tau(   3) = (   0.6450437   0.2798345   0.4006428  )
         4        Sn     tau(   4) = (   0.3834605   0.2798345   0.2494878  )
         5        Se     tau(   5) = (   0.3549563   0.0932782   0.0068259  )
         6        Sn     tau(   6) = (   0.6165395   0.0932782   0.1579809  )
         7        Se     tau(   7) = (   0.1450437   0.2798345   0.2105602  )
         8        Sn     tau(   8) = (   0.8834605   0.2798345   0.3617152  )

     --------------------------------------------
     DFT-D3 Dispersion Correction (3-body terms):
     --------------------------------------------
       Reference C6 values for interpolation: 

         atom   Coordination number   C6
         Se         0.000           427.35
         Se         0.990           427.57
         Se         1.981           421.05
         Sn         0.000          1255.14
         Sn         0.951          1084.09
         Sn         1.950          1010.83
         Sn         2.926           818.29
         Sn         3.912           672.20

       Values used:

         atom   Coordination number  R0_AB[au]  C6      C8
         Se         3.550            3.332    421.05  29958.36
         Sn         4.370            3.957    672.28  84378.50
         Se         3.550            3.332    421.05  29958.36
         Sn         4.370            3.957    672.28  84378.50
         Se         3.550            3.332    421.05  29958.36
         Sn         4.370            3.957    672.28  84378.50
         Se         3.550            3.332    421.05  29958.36
         Sn         4.370            3.957    672.28  84378.50

         Molecular C6 ( Ry / a.u.^6 ) =     34498.36


   Crystallographic axes

     site n.     atom                  positions (cryst. coord.)
         1        Se     tau(   1) = (  0.8549563  0.2500000  0.4832481  )
         2        Sn     tau(   2) = (  0.1165395  0.2500000  0.1122870  )
         3        Se     tau(   3) = (  0.6450437  0.7500000  0.9832481  )
         4        Sn     tau(   4) = (  0.3834605  0.7500000  0.6122870  )
         5        Se     tau(   5) = (  0.3549563  0.2500000  0.0167519  )
         6        Sn     tau(   6) = (  0.6165395  0.2500000  0.3877130  )
         7        Se     tau(   7) = (  0.1450437  0.7500000  0.5167519  )
         8        Sn     tau(   8) = (  0.8834605  0.7500000  0.8877130  )

     number of k points=    32
                       cart. coord. in units 2pi/alat
        k(    1) = (   0.1666667   0.1675097   0.1533860), wk =   0.0833333
        k(    2) = (   0.1666667   0.1675097   0.4601581), wk =   0.0833333
        k(    3) = (   0.1666667   0.1675097   0.7669301), wk =   0.0833333
        k(    4) = (   0.1666667   0.1675097   1.0737021), wk =   0.0833333
        k(    5) = (   0.1666667   0.5025291   0.1533860), wk =   0.0833333
        k(    6) = (   0.1666667   0.5025291   0.4601581), wk =   0.0833333
        k(    7) = (   0.1666667   0.5025291   0.7669301), wk =   0.0833333
        k(    8) = (   0.1666667   0.5025291   1.0737021), wk =   0.0833333
        k(    9) = (   0.1666667   0.8375485   0.1533860), wk =   0.0833333
        k(   10) = (   0.1666667   0.8375485   0.4601581), wk =   0.0833333
        k(   11) = (   0.1666667   0.8375485   0.7669301), wk =   0.0833333
        k(   12) = (   0.1666667   0.8375485   1.0737021), wk =   0.0833333
        k(   13) = (   0.1666667   1.1725680   0.1533860), wk =   0.0833333
        k(   14) = (   0.1666667   1.1725680   0.4601581), wk =   0.0833333
        k(   15) = (   0.1666667   1.1725680   0.7669301), wk =   0.0833333
        k(   16) = (   0.1666667   1.1725680   1.0737021), wk =   0.0833333
        k(   17) = (  -0.5000000   0.1675097   0.1533860), wk =   0.0416667
        k(   18) = (  -0.5000000   0.1675097   0.4601581), wk =   0.0416667
        k(   19) = (  -0.5000000   0.1675097   0.7669301), wk =   0.0416667
        k(   20) = (  -0.5000000   0.1675097   1.0737021), wk =   0.0416667
        k(   21) = (  -0.5000000   0.5025291   0.1533860), wk =   0.0416667
        k(   22) = (  -0.5000000   0.5025291   0.4601581), wk =   0.0416667
        k(   23) = (  -0.5000000   0.5025291   0.7669301), wk =   0.0416667
        k(   24) = (  -0.5000000   0.5025291   1.0737021), wk =   0.0416667
        k(   25) = (  -0.5000000   0.8375485   0.1533860), wk =   0.0416667
        k(   26) = (  -0.5000000   0.8375485   0.4601581), wk =   0.0416667
        k(   27) = (  -0.5000000   0.8375485   0.7669301), wk =   0.0416667
        k(   28) = (  -0.5000000   0.8375485   1.0737021), wk =   0.0416667
        k(   29) = (  -0.5000000   1.1725680   0.1533860), wk =   0.0416667
        k(   30) = (  -0.5000000   1.1725680   0.4601581), wk =   0.0416667
        k(   31) = (  -0.5000000   1.1725680   0.7669301), wk =   0.0416667
        k(   32) = (  -0.5000000   1.1725680   1.0737021), wk =   0.0416667

                       cryst. coord.
        k(    1) = (   0.1666667   0.0625000   0.0625000), wk =   0.0833333
        k(    2) = (   0.1666667   0.0625000   0.1875000), wk =   0.0833333
        k(    3) = (   0.1666667   0.0625000   0.3125000), wk =   0.0833333
        k(    4) = (   0.1666667   0.0625000   0.4375000), wk =   0.0833333
        k(    5) = (   0.1666667   0.1875000   0.0625000), wk =   0.0833333
        k(    6) = (   0.1666667   0.1875000   0.1875000), wk =   0.0833333
        k(    7) = (   0.1666667   0.1875000   0.3125000), wk =   0.0833333
        k(    8) = (   0.1666667   0.1875000   0.4375000), wk =   0.0833333
        k(    9) = (   0.1666667   0.3125000   0.0625000), wk =   0.0833333
        k(   10) = (   0.1666667   0.3125000   0.1875000), wk =   0.0833333
        k(   11) = (   0.1666667   0.3125000   0.3125000), wk =   0.0833333
        k(   12) = (   0.1666667   0.3125000   0.4375000), wk =   0.0833333
        k(   13) = (   0.1666667   0.4375000   0.0625000), wk =   0.0833333
        k(   14) = (   0.1666667   0.4375000   0.1875000), wk =   0.0833333
        k(   15) = (   0.1666667   0.4375000   0.3125000), wk =   0.0833333
        k(   16) = (   0.1666667   0.4375000   0.4375000), wk =   0.0833333
        k(   17) = (  -0.5000000   0.0625000   0.0625000), wk =   0.0416667
        k(   18) = (  -0.5000000   0.0625000   0.1875000), wk =   0.0416667
        k(   19) = (  -0.5000000   0.0625000   0.3125000), wk =   0.0416667
        k(   20) = (  -0.5000000   0.0625000   0.4375000), wk =   0.0416667
        k(   21) = (  -0.5000000   0.1875000   0.0625000), wk =   0.0416667
        k(   22) = (  -0.5000000   0.1875000   0.1875000), wk =   0.0416667
        k(   23) = (  -0.5000000   0.1875000   0.3125000), wk =   0.0416667
        k(   24) = (  -0.5000000   0.1875000   0.4375000), wk =   0.0416667
        k(   25) = (  -0.5000000   0.3125000   0.0625000), wk =   0.0416667
        k(   26) = (  -0.5000000   0.3125000   0.1875000), wk =   0.0416667
        k(   27) = (  -0.5000000   0.3125000   0.3125000), wk =   0.0416667
        k(   28) = (  -0.5000000   0.3125000   0.4375000), wk =   0.0416667
        k(   29) = (  -0.5000000   0.4375000   0.0625000), wk =   0.0416667
        k(   30) = (  -0.5000000   0.4375000   0.1875000), wk =   0.0416667
        k(   31) = (  -0.5000000   0.4375000   0.3125000), wk =   0.0416667
        k(   32) = (  -0.5000000   0.4375000   0.4375000), wk =   0.0416667

     Dense  grid:   355803 G-vectors     FFT dimensions: ( 180,  64,  72)

     Smooth grid:    90037 G-vectors     FFT dimensions: ( 108,  40,  48)

     Dynamical RAM for                 wfc:       3.43 MB

     Dynamical RAM for     wfc (w. buffer):      41.21 MB

     Dynamical RAM for           str. fact:       5.43 MB

     Dynamical RAM for           local pot:       0.00 MB

     Dynamical RAM for          nlocal pot:      12.36 MB

     Dynamical RAM for                qrad:       3.93 MB

     Dynamical RAM for          rho,v,vnew:      17.64 MB

     Dynamical RAM for               rhoin:       5.88 MB

     Dynamical RAM for            rho*nmix:      43.43 MB

     Dynamical RAM for           G-vectors:      10.52 MB

     Dynamical RAM for          h,s,v(r/c):       0.29 MB

     Dynamical RAM for          <psi|beta>:       0.09 MB

     Dynamical RAM for                 psi:       6.87 MB

     Dynamical RAM for                hpsi:       6.87 MB

     Dynamical RAM for                spsi:       6.87 MB

     Dynamical RAM for      wfcinit/wfcrot:       8.99 MB

     Dynamical RAM for           addusdens:     173.73 MB

     Dynamical RAM for          addusforce:     178.73 MB

     Estimated static dynamical RAM per process >     120.93 MB

     Estimated max dynamical RAM per process >     343.09 MB

     Estimated total dynamical RAM >       1.84 GB

     Initial potential from superposition of free atoms

     starting charge      75.9995, renormalised to      80.0000
     Starting wfcs are   52 randomized atomic wfcs

     total cpu time spent up to now is        3.7 secs

     Self-consistent Calculation

     iteration #  1     ecut=    60.00 Ry     beta= 0.70
     Davidson diagonalization with overlap

---- Real-time Memory Report at c_bands before calling an iterative solver
           388 MiB given to the printing process from OS
             0 MiB allocation reported by mallinfo(arena+hblkhd)
          4343 MiB available memory on the node where the printing process lives
------------------
     ethr =  1.00E-02,  avg # of iterations =  2.0

     total cpu time spent up to now is       10.7 secs

     total energy              =    -826.64118941 Ry
     estimated scf accuracy    <       2.65983002 Ry

     iteration #  2     ecut=    60.00 Ry     beta= 0.70
     Davidson diagonalization with overlap

---- Real-time Memory Report at c_bands before calling an iterative solver
           485 MiB given to the printing process from OS
             0 MiB allocation reported by mallinfo(arena+hblkhd)
          4081 MiB available memory on the node where the printing process lives
------------------
     ethr =  3.32E-03,  avg # of iterations =  3.0

     total cpu time spent up to now is       18.4 secs

     total energy              =    -827.55026986 Ry
     estimated scf accuracy    <       0.93053260 Ry

     iteration #  3     ecut=    60.00 Ry     beta= 0.70
     Davidson diagonalization with overlap

---- Real-time Memory Report at c_bands before calling an iterative solver
           526 MiB given to the printing process from OS
             0 MiB allocation reported by mallinfo(arena+hblkhd)
          3919 MiB available memory on the node where the printing process lives
------------------
     ethr =  1.16E-03,  avg # of iterations =  2.5

     total cpu time spent up to now is       25.1 secs

     total energy              =    -827.73587965 Ry
     estimated scf accuracy    <       0.00931711 Ry

     iteration #  4     ecut=    60.00 Ry     beta= 0.70
     Davidson diagonalization with overlap

---- Real-time Memory Report at c_bands before calling an iterative solver
           530 MiB given to the printing process from OS
             0 MiB allocation reported by mallinfo(arena+hblkhd)
          3913 MiB available memory on the node where the printing process lives
------------------
     ethr =  1.16E-05,  avg # of iterations =  5.0

     total cpu time spent up to now is       34.2 secs

     total energy              =    -827.74185467 Ry
     estimated scf accuracy    <       0.00441215 Ry

     iteration #  5     ecut=    60.00 Ry     beta= 0.70
     Davidson diagonalization with overlap

---- Real-time Memory Report at c_bands before calling an iterative solver
           533 MiB given to the printing process from OS
             0 MiB allocation reported by mallinfo(arena+hblkhd)
          3907 MiB available memory on the node where the printing process lives
------------------
     ethr =  5.52E-06,  avg # of iterations =  3.2

     total cpu time spent up to now is       41.1 secs

     total energy              =    -827.74327101 Ry
     estimated scf accuracy    <       0.00110696 Ry

     iteration #  6     ecut=    60.00 Ry     beta= 0.70
     Davidson diagonalization with overlap

---- Real-time Memory Report at c_bands before calling an iterative solver
           535 MiB given to the printing process from OS
             0 MiB allocation reported by mallinfo(arena+hblkhd)
          3904 MiB available memory on the node where the printing process lives
------------------
     ethr =  1.38E-06,  avg # of iterations =  2.2

     total cpu time spent up to now is       47.5 secs

     total energy              =    -827.74341941 Ry
     estimated scf accuracy    <       0.00003544 Ry

     iteration #  7     ecut=    60.00 Ry     beta= 0.70
     Davidson diagonalization with overlap

---- Real-time Memory Report at c_bands before calling an iterative solver
           538 MiB given to the printing process from OS
             0 MiB allocation reported by mallinfo(arena+hblkhd)
          3901 MiB available memory on the node where the printing process lives
------------------
     ethr =  4.43E-08,  avg # of iterations =  4.7

     total cpu time spent up to now is       56.0 secs

     total energy              =    -827.74344825 Ry
     estimated scf accuracy    <       0.00001875 Ry

     iteration #  8     ecut=    60.00 Ry     beta= 0.70
     Davidson diagonalization with overlap

---- Real-time Memory Report at c_bands before calling an iterative solver
           540 MiB given to the printing process from OS
             0 MiB allocation reported by mallinfo(arena+hblkhd)
          3896 MiB available memory on the node where the printing process lives
------------------
     ethr =  2.34E-08,  avg # of iterations =  2.7

     total cpu time spent up to now is       62.9 secs

     total energy              =    -827.74345299 Ry
     estimated scf accuracy    <       0.00000025 Ry

     iteration #  9     ecut=    60.00 Ry     beta= 0.70
     Davidson diagonalization with overlap

---- Real-time Memory Report at c_bands before calling an iterative solver
           542 MiB given to the printing process from OS
             0 MiB allocation reported by mallinfo(arena+hblkhd)
          3893 MiB available memory on the node where the printing process lives
------------------
     ethr =  3.10E-10,  avg # of iterations =  7.5

     total cpu time spent up to now is       77.2 secs

     total energy              =    -827.74345344 Ry
     estimated scf accuracy    <       0.00000006 Ry

     iteration # 10     ecut=    60.00 Ry     beta= 0.70
     Davidson diagonalization with overlap

---- Real-time Memory Report at c_bands before calling an iterative solver
           544 MiB given to the printing process from OS
             0 MiB allocation reported by mallinfo(arena+hblkhd)
          3888 MiB available memory on the node where the printing process lives
------------------
     ethr =  7.64E-11,  avg # of iterations =  3.2

     total cpu time spent up to now is       84.2 secs

     total energy              =    -827.74345347 Ry
     estimated scf accuracy    <       0.00000001 Ry

     iteration # 11     ecut=    60.00 Ry     beta= 0.70
     Davidson diagonalization with overlap

---- Real-time Memory Report at c_bands before calling an iterative solver
           545 MiB given to the printing process from OS
             0 MiB allocation reported by mallinfo(arena+hblkhd)
          3887 MiB available memory on the node where the printing process lives
------------------
     ethr =  1.72E-11,  avg # of iterations =  2.0

     total cpu time spent up to now is       90.3 secs

     End of self-consistent calculation

          k = 0.1667 0.1675 0.1534 ( 11271 PWs)   bands (ev):

   -13.3345 -13.3232 -13.3190 -13.3172 -13.3153 -13.3142 -13.3105 -13.3070
   -13.3018 -13.2980 -13.2952 -13.2950 -13.2836 -13.2764 -13.2580 -13.2570
   -13.2497 -13.2491 -13.2376 -13.2305  -5.7705  -5.4542  -4.6815  -4.2447
     0.5674   1.4856   2.4572   2.7827   3.2460   4.4910   4.6184   4.8994
     5.1730   5.3094   5.8826   6.2332   6.4958   6.9780   7.2374   7.5348

     occupation numbers 
     1.0000   1.0000   1.0000   1.0000   1.0000   1.0000   1.0000   1.0000
     1.0000   1.0000   1.0000   1.0000   1.0000   1.0000   1.0000   1.0000
     1.0000   1.0000   1.0000   1.0000   1.0000   1.0000   1.0000   1.0000
     1.0000   1.0000   1.0000   1.0000   1.0000   1.0000   1.0000   1.0000
     1.0000   1.0000   1.0000   1.0000   1.0000   1.0000   1.0000   1.0000

          k = 0.1667 0.1675 0.4602 ( 11260 PWs)   bands (ev):

   -13.3328 -13.3227 -13.3190 -13.3182 -13.3155 -13.3151 -13.3112 -13.3080
   -13.3009 -13.2954 -13.2951 -13.2927 -13.2833 -13.2772 -13.2583 -13.2559
   -13.2503 -13.2503 -13.2370 -13.2310  -5.6505  -5.3439  -4.6870  -4.2926
     0.2601   1.2565   1.8751   2.4827   3.3546   4.5244   4.7400   5.3180
     5.4966   5.8474   5.8914   6.3358   6.6899   6.9946   7.3771   7.6042

     occupation numbers 
     1.0000   1.0000   1.0000   1.0000   1.0000   1.0000   1.0000   1.0000
     1.0000   1.0000   1.0000   1.0000   1.0000   1.0000   1.0000   1.0000
     1.0000   1.0000   1.0000   1.0000   1.0000   1.0000   1.0000   1.0000
     1.0000   1.0000   1.0000   1.0000   1.0000   1.0000   1.0000   1.0000
     1.0000   1.0000   1.0000   1.0000   1.0000   1.0000   1.0000   1.0000

          k = 0.1667 0.1675 0.7669 ( 11257 PWs)   bands (ev):

   -13.3299 -13.3224 -13.3200 -13.3189 -13.3170 -13.3152 -13.3119 -13.3096
   -13.2995 -13.2956 -13.2912 -13.2889 -13.2833 -13.2788 -13.2579 -13.2548
   -13.2522 -13.2513 -13.2359 -13.2320  -5.4331  -5.1462  -4.7373  -4.4083
    -0.0309   0.7629   1.4286   2.0130   3.6603   4.7544   4.9510   5.5716
     5.8753   5.9771   6.2612   6.3531   6.8640   7.3216   7.3992   7.8431

     occupation numbers 
     1.0000   1.0000   1.0000   1.0000   1.0000   1.0000   1.0000   1.0000
     1.0000   1.0000   1.0000   1.0000   1.0000   1.0000   1.0000   1.0000
     1.0000   1.0000   1.0000   1.0000   1.0000   1.0000   1.0000   1.0000
     1.0000   1.0000   1.0000   1.0000   1.0000   1.0000   1.0000   1.0000
     1.0000   1.0000   1.0000   1.0000   1.0000   1.0000   1.0000   1.0000

          k = 0.1667 0.1675 1.0737 ( 11238 PWs)   bands (ev):

   -13.3266 -13.3238 -13.3205 -13.3200 -13.3168 -13.3159 -13.3119 -13.3111
   -13.2979 -13.2965 -13.2871 -13.2854 -13.2839 -13.2813 -13.2566 -13.2546
   -13.2534 -13.2524 -13.2346 -13.2332  -5.1694  -4.9764  -4.8041  -4.6013
    -0.0647   0.2286   1.3605   1.5851   4.1265   4.6256   5.3374   5.6392
     5.8695   6.0152   6.3288   6.5724   7.1563   7.4465   7.6440   7.7242

     occupation numbers 
     1.0000   1.0000   1.0000   1.0000   1.0000   1.0000   1.0000   1.0000
     1.0000   1.0000   1.0000   1.0000   1.0000   1.0000   1.0000   1.0000
     1.0000   1.0000   1.0000   1.0000   1.0000   1.0000   1.0000   1.0000
     1.0000   1.0000   1.0000   1.0000   1.0000   1.0000   1.0000   1.0000
     1.0000   1.0000   1.0000   1.0000   1.0000   1.0000   1.0000   1.0000

          k = 0.1667 0.5025 0.1534 ( 11276 PWs)   bands (ev):

   -13.3285 -13.3217 -13.3198 -13.3167 -13.3141 -13.3138 -13.3121 -13.3101
   -13.3023 -13.2970 -13.2942 -13.2928 -13.2813 -13.2776 -13.2598 -13.2559
   -13.2530 -13.2475 -13.2376 -13.2322  -5.6059  -5.3134  -4.6206  -4.2578
     0.4307   1.2511   2.0962   2.2358   3.3595   4.3447   4.6704   5.0235
     5.3192   5.4825   5.9238   6.2878   6.4644   7.1273   7.4178   7.5565

     occupation numbers 
     1.0000   1.0000   1.0000   1.0000   1.0000   1.0000   1.0000   1.0000
     1.0000   1.0000   1.0000   1.0000   1.0000   1.0000   1.0000   1.0000
     1.0000   1.0000   1.0000   1.0000   1.0000   1.0000   1.0000   1.0000
     1.0000   1.0000   1.0000   1.0000   1.0000   1.0000   1.0000   1.0000
     1.0000   1.0000   1.0000   1.0000   1.0000   1.0000   1.0000   1.0000

          k = 0.1667 0.5025 0.4602 ( 11261 PWs)   bands (ev):

   -13.3283 -13.3219 -13.3211 -13.3174 -13.3144 -13.3138 -13.3119 -13.3111
   -13.3016 -13.2972 -13.2919 -13.2904 -13.2815 -13.2776 -13.2594 -13.2559
   -13.2532 -13.2485 -13.2370 -13.2325  -5.4919  -5.2099  -4.6227  -4.2927
     0.2770   1.2019   1.7365   2.1124   3.4948   3.9434   4.2623   5.1716
     5.3593   5.9082   6.0244   6.2714   6.8651   7.0228   7.4031   7.5840

     occupation numbers 
     1.0000   1.0000   1.0000   1.0000   1.0000   1.0000   1.0000   1.0000
     1.0000   1.0000   1.0000   1.0000   1.0000   1.0000   1.0000   1.0000
     1.0000   1.0000   1.0000   1.0000   1.0000   1.0000   1.0000   1.0000
     1.0000   1.0000   1.0000   1.0000   1.0000   1.0000   1.0000   1.0000
     1.0000   1.0000   1.0000   1.0000   1.0000   1.0000   1.0000   1.0000

          k = 0.1667 0.5025 0.7669 ( 11248 PWs)   bands (ev):

   -13.3282 -13.3239 -13.3214 -13.3187 -13.3154 -13.3132 -13.3129 -13.3107
   -13.3004 -13.2977 -13.2881 -13.2869 -13.2819 -13.2783 -13.2586 -13.2560
   -13.2533 -13.2500 -13.2361 -13.2330  -5.2875  -5.0265  -4.6628  -4.3828
     0.1152   0.8737   1.4622   1.8895   3.7494   3.8981   4.2133   5.0522
     5.1862   5.8855   5.9919   6.5177   6.7551   7.0466   7.2646   7.5975

     occupation numbers 
     1.0000   1.0000   1.0000   1.0000   1.0000   1.0000   1.0000   1.0000
     1.0000   1.0000   1.0000   1.0000   1.0000   1.0000   1.0000   1.0000
     1.0000   1.0000   1.0000   1.0000   1.0000   1.0000   1.0000   1.0000
     1.0000   1.0000   1.0000   1.0000   1.0000   1.0000   1.0000   1.0000
     1.0000   1.0000   1.0000   1.0000   1.0000   1.0000   1.0000   1.0000

          k = 0.1667 0.5025 1.0737 ( 11236 PWs)   bands (ev):

   -13.3277 -13.3263 -13.3209 -13.3200 -13.3155 -13.3144 -13.3118 -13.3109
   -13.2993 -13.2984 -13.2848 -13.2832 -13.2827 -13.2801 -13.2575 -13.2565
   -13.2528 -13.2515 -13.2349 -13.2339  -5.0443  -4.8710  -4.7188  -4.5427
     0.1301   0.4075   1.4614   1.6293   4.0645   4.1354   4.4302   4.7284
     5.0648   5.3734   6.0521   6.3336   6.7529   7.0206   7.3079   7.5113

     occupation numbers 
     1.0000   1.0000   1.0000   1.0000   1.0000   1.0000   1.0000   1.0000
     1.0000   1.0000   1.0000   1.0000   1.0000   1.0000   1.0000   1.0000
     1.0000   1.0000   1.0000   1.0000   1.0000   1.0000   1.0000   1.0000
     1.0000   1.0000   1.0000   1.0000   1.0000   1.0000   1.0000   1.0000
     1.0000   1.0000   1.0000   1.0000   1.0000   1.0000   1.0000   1.0000

          k = 0.1667 0.8375 0.1534 ( 11256 PWs)   bands (ev):

   -13.3261 -13.3239 -13.3225 -13.3216 -13.3113 -13.3096 -13.3080 -13.3064
   -13.3010 -13.2987 -13.2915 -13.2885 -13.2808 -13.2778 -13.2645 -13.2627
   -13.2493 -13.2444 -13.2376 -13.2348  -5.3040  -5.0673  -4.5609  -4.3454
     0.2526   0.9640   1.2879   1.7128   3.7017   4.4583   4.8418   5.2337
     5.5444   5.6565   6.0442   6.2361   6.5673   7.0939   7.2160   7.6193

     occupation numbers 
     1.0000   1.0000   1.0000   1.0000   1.0000   1.0000   1.0000   1.0000
     1.0000   1.0000   1.0000   1.0000   1.0000   1.0000   1.0000   1.0000
     1.0000   1.0000   1.0000   1.0000   1.0000   1.0000   1.0000   1.0000
     1.0000   1.0000   1.0000   1.0000   1.0000   1.0000   1.0000   1.0000
     1.0000   1.0000   1.0000   1.0000   1.0000   1.0000   1.0000   1.0000

          k = 0.1667 0.8375 0.4602 ( 11247 PWs)   bands (ev):

   -13.3291 -13.3258 -13.3240 -13.3222 -13.3118 -13.3086 -13.3076 -13.3062
   -13.3000 -13.2986 -13.2898 -13.2868 -13.2812 -13.2773 -13.2639 -13.2624
   -13.2493 -13.2452 -13.2371 -13.2347  -5.2044  -4.9792  -4.5524  -4.3516
     0.2935   1.0574   1.3251   1.6083   3.6959   3.8130   4.2047   4.8644
     5.2988   5.8250   5.8803   6.3756   6.4492   6.9201   7.0888   7.3796

     occupation numbers 
     1.0000   1.0000   1.0000   1.0000   1.0000   1.0000   1.0000   1.0000
     1.0000   1.0000   1.0000   1.0000   1.0000   1.0000   1.0000   1.0000
     1.0000   1.0000   1.0000   1.0000   1.0000   1.0000   1.0000   1.0000
     1.0000   1.0000   1.0000   1.0000   1.0000   1.0000   1.0000   1.0000
     1.0000   1.0000   1.0000   1.0000   1.0000   1.0000   1.0000   1.0000

          k = 0.1667 0.8375 0.7669 ( 11235 PWs)   bands (ev):

   -13.3320 -13.3295 -13.3254 -13.3240 -13.3114 -13.3079 -13.3072 -13.3060
   -13.2990 -13.2985 -13.2871 -13.2844 -13.2810 -13.2774 -13.2631 -13.2620
   -13.2491 -13.2463 -13.2364 -13.2347  -5.0306  -4.8282  -4.5660  -4.3870
     0.3599   1.0030   1.3935   1.5664   3.3158   3.6746   4.1009   4.4111
     4.7807   5.2906   5.6159   6.0048   6.3216   6.6517   6.9245   7.3549

     occupation numbers 
     1.0000   1.0000   1.0000   1.0000   1.0000   1.0000   1.0000   1.0000
     1.0000   1.0000   1.0000   1.0000   1.0000   1.0000   1.0000   1.0000
     1.0000   1.0000   1.0000   1.0000   1.0000   1.0000   1.0000   1.0000
     1.0000   1.0000   1.0000   1.0000   1.0000   1.0000   1.0000   1.0000
     1.0000   1.0000   1.0000   1.0000   1.0000   1.0000   1.0000   1.0000

          k = 0.1667 0.8375 1.0737 ( 11241 PWs)   bands (ev):

   -13.3334 -13.3325 -13.3263 -13.3258 -13.3103 -13.3088 -13.3064 -13.3059
   -13.2983 -13.2983 -13.2846 -13.2834 -13.2798 -13.2783 -13.2623 -13.2619
   -13.2484 -13.2474 -13.2356 -13.2350  -4.8341  -4.7046  -4.5961  -4.4768
     0.4814   0.7148   1.5258   1.5809   3.3357   3.6818   3.8056   4.1688
     4.5808   4.9478   5.3797   5.7607   6.0172   6.2997   7.0175   7.1408

     occupation numbers 
     1.0000   1.0000   1.0000   1.0000   1.0000   1.0000   1.0000   1.0000
     1.0000   1.0000   1.0000   1.0000   1.0000   1.0000   1.0000   1.0000
     1.0000   1.0000   1.0000   1.0000   1.0000   1.0000   1.0000   1.0000
     1.0000   1.0000   1.0000   1.0000   1.0000   1.0000   1.0000   1.0000
     1.0000   1.0000   1.0000   1.0000   1.0000   1.0000   1.0000   1.0000

          k = 0.1667 1.1726 0.1534 ( 11249 PWs)   bands (ev):

   -13.3286 -13.3273 -13.3252 -13.3240 -13.3074 -13.3061 -13.3049 -13.3031
   -13.2965 -13.2954 -13.2928 -13.2879 -13.2798 -13.2744 -13.2714 -13.2695
   -13.2438 -13.2412 -13.2385 -13.2384  -4.9269  -4.7938  -4.6027  -4.5741
     0.2521   0.6035   0.9144   1.2026   4.2110   4.6438   5.0525   5.4119
     5.6082   5.6375   6.0697   6.3889   6.6859   6.9398   6.9864   7.1665

     occupation numbers 
     1.0000   1.0000   1.0000   1.0000   1.0000   1.0000   1.0000   1.0000
     1.0000   1.0000   1.0000   1.0000   1.0000   1.0000   1.0000   1.0000
     1.0000   1.0000   1.0000   1.0000   1.0000   1.0000   1.0000   1.0000
     1.0000   1.0000   1.0000   1.0000   1.0000   1.0000   1.0000   1.0000
     1.0000   1.0000   1.0000   1.0000   1.0000   1.0000   1.0000   1.0000

          k = 0.1667 1.1726 0.4602 ( 11254 PWs)   bands (ev):

   -13.3315 -13.3303 -13.3266 -13.3257 -13.3080 -13.3062 -13.3037 -13.3025
   -13.2960 -13.2947 -13.2913 -13.2874 -13.2791 -13.2753 -13.2695 -13.2685
   -13.2440 -13.2421 -13.2380 -13.2378  -4.8537  -4.7315  -4.5714  -4.5394
     0.3983   0.7410   1.0307   1.2345   3.9653   4.1504   4.4406   4.7204
     4.9750   5.4013   5.9158   6.1074   6.2337   6.5142   7.0855   7.3261

     occupation numbers 
     1.0000   1.0000   1.0000   1.0000   1.0000   1.0000   1.0000   1.0000
     1.0000   1.0000   1.0000   1.0000   1.0000   1.0000   1.0000   1.0000
     1.0000   1.0000   1.0000   1.0000   1.0000   1.0000   1.0000   1.0000
     1.0000   1.0000   1.0000   1.0000   1.0000   1.0000   1.0000   1.0000
     1.0000   1.0000   1.0000   1.0000   1.0000   1.0000   1.0000   1.0000

          k = 0.1667 1.1726 0.7669 ( 11254 PWs)   bands (ev):

   -13.3353 -13.3343 -13.3288 -13.3282 -13.3081 -13.3067 -13.3025 -13.3019
   -13.2951 -13.2940 -13.2894 -13.2867 -13.2778 -13.2757 -13.2675 -13.2671
   -13.2442 -13.2429 -13.2374 -13.2371  -4.7345  -4.6332  -4.5359  -4.4967
     0.6470   0.9548   1.2076   1.2750   3.3244   3.7811   3.8954   4.1832
     4.5600   4.8689   5.2736   5.7292   5.8466   6.0965   6.9677   7.0962

     occupation numbers 
     1.0000   1.0000   1.0000   1.0000   1.0000   1.0000   1.0000   1.0000
     1.0000   1.0000   1.0000   1.0000   1.0000   1.0000   1.0000   1.0000
     1.0000   1.0000   1.0000   1.0000   1.0000   1.0000   1.0000   1.0000
     1.0000   1.0000   1.0000   1.0000   1.0000   1.0000   1.0000   1.0000
     1.0000   1.0000   1.0000   1.0000   1.0000   1.0000   1.0000   1.0000

          k = 0.1667 1.1726 1.0737 ( 11260 PWs)   bands (ev):

   -13.3377 -13.3373 -13.3303 -13.3301 -13.3079 -13.3073 -13.3018 -13.3015
   -13.2942 -13.2938 -13.2877 -13.2868 -13.2765 -13.2758 -13.2663 -13.2662
   -13.2440 -13.2436 -13.2369 -13.2368  -4.6176  -4.5603  -4.5200  -4.4851
     0.8954   1.0335   1.3365   1.3749   3.0736   3.2802   3.6824   3.8004
     4.3897   4.4069   4.9296   5.2602   5.8101   5.9958   6.8097   6.8648

     occupation numbers 
     1.0000   1.0000   1.0000   1.0000   1.0000   1.0000   1.0000   1.0000
     1.0000   1.0000   1.0000   1.0000   1.0000   1.0000   1.0000   1.0000
     1.0000   1.0000   1.0000   1.0000   1.0000   1.0000   1.0000   1.0000
     1.0000   1.0000   1.0000   1.0000   1.0000   1.0000   1.0000   1.0000
     1.0000   1.0000   1.0000   1.0000   1.0000   1.0000   1.0000   1.0000

          k =-0.5000 0.1675 0.1534 ( 11282 PWs)   bands (ev):

   -13.3294 -13.3294 -13.3171 -13.3171 -13.3161 -13.3161 -13.3081 -13.3081
   -13.2987 -13.2987 -13.2967 -13.2967 -13.2796 -13.2796 -13.2571 -13.2571
   -13.2497 -13.2497 -13.2339 -13.2339  -5.6411  -5.6411  -4.4342  -4.4342
     0.8916   0.8916   2.7069   2.7069   3.9477   3.9477   4.8145   4.8145
     5.3493   5.3493   5.9668   5.9668   6.3265   6.3265   7.4538   7.4538

     occupation numbers 
     1.0000   1.0000   1.0000   1.0000   1.0000   1.0000   1.0000   1.0000
     1.0000   1.0000   1.0000   1.0000   1.0000   1.0000   1.0000   1.0000
     1.0000   1.0000   1.0000   1.0000   1.0000   1.0000   1.0000   1.0000
     1.0000   1.0000   1.0000   1.0000   1.0000   1.0000   1.0000   1.0000
     1.0000   1.0000   1.0000   1.0000   1.0000   1.0000   1.0000   1.0000

          k =-0.5000 0.1675 0.4602 ( 11272 PWs)   bands (ev):

   -13.3284 -13.3284 -13.3174 -13.3174 -13.3164 -13.3164 -13.3094 -13.3094
   -13.2980 -13.2980 -13.2942 -13.2942 -13.2799 -13.2799 -13.2568 -13.2568
   -13.2505 -13.2505 -13.2339 -13.2339  -5.5262  -5.5262  -4.4607  -4.4607
     0.6174   0.6174   2.2346   2.2346   4.1978   4.1978   4.8937   4.8937
     5.5849   5.5849   6.1218   6.1218   6.7606   6.7606   7.3698   7.3698

     occupation numbers 
     1.0000   1.0000   1.0000   1.0000   1.0000   1.0000   1.0000   1.0000
     1.0000   1.0000   1.0000   1.0000   1.0000   1.0000   1.0000   1.0000
     1.0000   1.0000   1.0000   1.0000   1.0000   1.0000   1.0000   1.0000
     1.0000   1.0000   1.0000   1.0000   1.0000   1.0000   1.0000   1.0000
     1.0000   1.0000   1.0000   1.0000   1.0000   1.0000   1.0000   1.0000

          k =-0.5000 0.1675 0.7669 ( 11242 PWs)   bands (ev):

   -13.3266 -13.3266 -13.3191 -13.3191 -13.3160 -13.3160 -13.3111 -13.3111
   -13.2973 -13.2973 -13.2902 -13.2902 -13.2808 -13.2808 -13.2562 -13.2562
   -13.2519 -13.2519 -13.2339 -13.2339  -5.3211  -5.3211  -4.5416  -4.5416
     0.3046   0.3046   1.6858   1.6858   4.5231   4.5231   5.1805   5.1805
     5.7216   5.7216   6.3243   6.3243   6.9769   6.9769   7.5186   7.5186

     occupation numbers 
     1.0000   1.0000   1.0000   1.0000   1.0000   1.0000   1.0000   1.0000
     1.0000   1.0000   1.0000   1.0000   1.0000   1.0000   1.0000   1.0000
     1.0000   1.0000   1.0000   1.0000   1.0000   1.0000   1.0000   1.0000
     1.0000   1.0000   1.0000   1.0000   1.0000   1.0000   1.0000   1.0000
     1.0000   1.0000   1.0000   1.0000   1.0000   1.0000   1.0000   1.0000

          k =-0.5000 0.1675 1.0737 ( 11248 PWs)   bands (ev):

   -13.3250 -13.3250 -13.3204 -13.3204 -13.3159 -13.3159 -13.3123 -13.3123
   -13.2968 -13.2968 -13.2865 -13.2865 -13.2823 -13.2823 -13.2554 -13.2554
   -13.2532 -13.2532 -13.2339 -13.2339  -5.0960  -5.0960  -4.6807  -4.6807
     0.1337   0.1337   1.3241   1.3241   4.9322   4.9322   5.4813   5.4813
     5.5659   5.5659   6.1815   6.1815   7.3288   7.3288   7.6179   7.6179

     occupation numbers 
     1.0000   1.0000   1.0000   1.0000   1.0000   1.0000   1.0000   1.0000
     1.0000   1.0000   1.0000   1.0000   1.0000   1.0000   1.0000   1.0000
     1.0000   1.0000   1.0000   1.0000   1.0000   1.0000   1.0000   1.0000
     1.0000   1.0000   1.0000   1.0000   1.0000   1.0000   1.0000   1.0000
     1.0000   1.0000   1.0000   1.0000   1.0000   1.0000   1.0000   1.0000

          k =-0.5000 0.5025 0.1534 ( 11284 PWs)   bands (ev):

   -13.3251 -13.3251 -13.3187 -13.3187 -13.3137 -13.3137 -13.3112 -13.3112
   -13.2997 -13.2997 -13.2935 -13.2935 -13.2793 -13.2793 -13.2582 -13.2582
   -13.2498 -13.2498 -13.2348 -13.2348  -5.4855  -5.4855  -4.4125  -4.4125
     0.7379   0.7379   2.2028   2.2028   4.0724   4.0724   4.7195   4.7195
     5.6382   5.6382   5.8393   5.8393   6.4981   6.4981   7.5712   7.5712

     occupation numbers 
     1.0000   1.0000   1.0000   1.0000   1.0000   1.0000   1.0000   1.0000
     1.0000   1.0000   1.0000   1.0000   1.0000   1.0000   1.0000   1.0000
     1.0000   1.0000   1.0000   1.0000   1.0000   1.0000   1.0000   1.0000
     1.0000   1.0000   1.0000   1.0000   1.0000   1.0000   1.0000   1.0000
     1.0000   1.0000   1.0000   1.0000   1.0000   1.0000   1.0000   1.0000

          k =-0.5000 0.5025 0.4602 ( 11264 PWs)   bands (ev):

   -13.3253 -13.3253 -13.3198 -13.3198 -13.3139 -13.3139 -13.3112 -13.3112
   -13.2994 -13.2994 -13.2911 -13.2911 -13.2796 -13.2796 -13.2580 -13.2580
   -13.2504 -13.2504 -13.2346 -13.2346  -5.3769  -5.3769  -4.4312  -4.4312
     0.6203   0.6203   1.9691   1.9691   4.0013   4.0013   4.6449   4.6449
     5.3237   5.3237   6.2560   6.2560   6.8615   6.8615   7.4790   7.4790

     occupation numbers 
     1.0000   1.0000   1.0000   1.0000   1.0000   1.0000   1.0000   1.0000
     1.0000   1.0000   1.0000   1.0000   1.0000   1.0000   1.0000   1.0000
     1.0000   1.0000   1.0000   1.0000   1.0000   1.0000   1.0000   1.0000
     1.0000   1.0000   1.0000   1.0000   1.0000   1.0000   1.0000   1.0000
     1.0000   1.0000   1.0000   1.0000   1.0000   1.0000   1.0000   1.0000

          k =-0.5000 0.5025 0.7669 ( 11238 PWs)   bands (ev):

   -13.3256 -13.3256 -13.3216 -13.3216 -13.3137 -13.3137 -13.3111 -13.3111
   -13.2991 -13.2991 -13.2875 -13.2875 -13.2803 -13.2803 -13.2578 -13.2578
   -13.2514 -13.2514 -13.2343 -13.2343  -5.1849  -5.1849  -4.4950  -4.4950
     0.4384   0.4384   1.6556   1.6556   3.9884   3.9884   4.8096   4.8096
     5.1632   5.1632   6.3585   6.3585   6.7207   6.7207   7.4299   7.4299

     occupation numbers 
     1.0000   1.0000   1.0000   1.0000   1.0000   1.0000   1.0000   1.0000
     1.0000   1.0000   1.0000   1.0000   1.0000   1.0000   1.0000   1.0000
     1.0000   1.0000   1.0000   1.0000   1.0000   1.0000   1.0000   1.0000
     1.0000   1.0000   1.0000   1.0000   1.0000   1.0000   1.0000   1.0000
     1.0000   1.0000   1.0000   1.0000   1.0000   1.0000   1.0000   1.0000

          k =-0.5000 0.5025 1.0737 ( 11224 PWs)   bands (ev):

   -13.3259 -13.3259 -13.3230 -13.3230 -13.3132 -13.3132 -13.3113 -13.3113
   -13.2989 -13.2989 -13.2840 -13.2840 -13.2815 -13.2815 -13.2575 -13.2575
   -13.2520 -13.2520 -13.2341 -13.2341  -4.9781  -4.9781  -4.6111  -4.6111
     0.3132   0.3132   1.4254   1.4254   4.2270   4.2270   4.6500   4.6500
     5.3866   5.3866   6.0013   6.0013   6.6577   6.6577   7.2663   7.2663

     occupation numbers 
     1.0000   1.0000   1.0000   1.0000   1.0000   1.0000   1.0000   1.0000
     1.0000   1.0000   1.0000   1.0000   1.0000   1.0000   1.0000   1.0000
     1.0000   1.0000   1.0000   1.0000   1.0000   1.0000   1.0000   1.0000
     1.0000   1.0000   1.0000   1.0000   1.0000   1.0000   1.0000   1.0000
     1.0000   1.0000   1.0000   1.0000   1.0000   1.0000   1.0000   1.0000

          k =-0.5000 0.8375 0.1534 ( 11244 PWs)   bands (ev):

   -13.3256 -13.3256 -13.3214 -13.3214 -13.3098 -13.3098 -13.3082 -13.3082
   -13.2995 -13.2995 -13.2901 -13.2901 -13.2791 -13.2791 -13.2638 -13.2638
   -13.2467 -13.2467 -13.2362 -13.2362  -5.2050  -5.2050  -4.4329  -4.4329
     0.5420   0.5420   1.4955   1.4955   4.3532   4.3532   4.9026   4.9026
     5.7938   5.7938   5.9553   5.9553   6.4936   6.4936   7.4150   7.4150

     occupation numbers 
     1.0000   1.0000   1.0000   1.0000   1.0000   1.0000   1.0000   1.0000
     1.0000   1.0000   1.0000   1.0000   1.0000   1.0000   1.0000   1.0000
     1.0000   1.0000   1.0000   1.0000   1.0000   1.0000   1.0000   1.0000
     1.0000   1.0000   1.0000   1.0000   1.0000   1.0000   1.0000   1.0000
     1.0000   1.0000   1.0000   1.0000   1.0000   1.0000   1.0000   1.0000

          k =-0.5000 0.8375 0.4602 ( 11260 PWs)   bands (ev):

   -13.3274 -13.3274 -13.3233 -13.3233 -13.3098 -13.3098 -13.3072 -13.3072
   -13.2992 -13.2992 -13.2885 -13.2885 -13.2790 -13.2790 -13.2636 -13.2636
   -13.2469 -13.2469 -13.2359 -13.2359  -5.1109  -5.1109  -4.4324  -4.4324
     0.6029   0.6029   1.4765   1.4765   3.8787   3.8787   4.7409   4.7409
     5.2189   5.2189   6.1997   6.1997   6.4376   6.4376   7.3205   7.3205

     occupation numbers 
     1.0000   1.0000   1.0000   1.0000   1.0000   1.0000   1.0000   1.0000
     1.0000   1.0000   1.0000   1.0000   1.0000   1.0000   1.0000   1.0000
     1.0000   1.0000   1.0000   1.0000   1.0000   1.0000   1.0000   1.0000
     1.0000   1.0000   1.0000   1.0000   1.0000   1.0000   1.0000   1.0000
     1.0000   1.0000   1.0000   1.0000   1.0000   1.0000   1.0000   1.0000

          k =-0.5000 0.8375 0.7669 ( 11254 PWs)   bands (ev):

   -13.3299 -13.3299 -13.3260 -13.3260 -13.3091 -13.3091 -13.3065 -13.3065
   -13.2987 -13.2987 -13.2863 -13.2863 -13.2785 -13.2785 -13.2633 -13.2633
   -13.2472 -13.2472 -13.2356 -13.2356  -4.9496  -4.9496  -4.4564  -4.4564
     0.6454   0.6454   1.4647   1.4647   3.5418   3.5418   4.3953   4.3953
     4.9778   4.9778   5.6884   5.6884   6.3619   6.3619   7.2095   7.2095

     occupation numbers 
     1.0000   1.0000   1.0000   1.0000   1.0000   1.0000   1.0000   1.0000
     1.0000   1.0000   1.0000   1.0000   1.0000   1.0000   1.0000   1.0000
     1.0000   1.0000   1.0000   1.0000   1.0000   1.0000   1.0000   1.0000
     1.0000   1.0000   1.0000   1.0000   1.0000   1.0000   1.0000   1.0000
     1.0000   1.0000   1.0000   1.0000   1.0000   1.0000   1.0000   1.0000

          k =-0.5000 0.8375 1.0737 ( 11246 PWs)   bands (ev):

   -13.3316 -13.3316 -13.3279 -13.3279 -13.3084 -13.3084 -13.3065 -13.3065
   -13.2984 -13.2984 -13.2849 -13.2849 -13.2779 -13.2779 -13.2631 -13.2631
   -13.2474 -13.2474 -13.2353 -13.2353  -4.7840  -4.7840  -4.5223  -4.5223
     0.6268   0.6268   1.4869   1.4869   3.5552   3.5552   3.9263   3.9263
     4.9851   4.9851   5.3014   5.3014   6.3693   6.3693   6.8944   6.8944

     occupation numbers 
     1.0000   1.0000   1.0000   1.0000   1.0000   1.0000   1.0000   1.0000
     1.0000   1.0000   1.0000   1.0000   1.0000   1.0000   1.0000   1.0000
     1.0000   1.0000   1.0000   1.0000   1.0000   1.0000   1.0000   1.0000
     1.0000   1.0000   1.0000   1.0000   1.0000   1.0000   1.0000   1.0000
     1.0000   1.0000   1.0000   1.0000   1.0000   1.0000   1.0000   1.0000

          k =-0.5000 1.1726 0.1534 ( 11260 PWs)   bands (ev):

   -13.3272 -13.3272 -13.3256 -13.3256 -13.3059 -13.3059 -13.3052 -13.3052
   -13.2954 -13.2954 -13.2905 -13.2905 -13.2766 -13.2766 -13.2709 -13.2709
   -13.2424 -13.2424 -13.2386 -13.2386  -4.8683  -4.8683  -4.5811  -4.5811
     0.5401   0.5401   0.8776   0.8776   4.8122   4.8122   5.1665   5.1665
     5.6731   5.6731   5.9275   5.9275   6.6144   6.6144   7.0038   7.0038

     occupation numbers 
     1.0000   1.0000   1.0000   1.0000   1.0000   1.0000   1.0000   1.0000
     1.0000   1.0000   1.0000   1.0000   1.0000   1.0000   1.0000   1.0000
     1.0000   1.0000   1.0000   1.0000   1.0000   1.0000   1.0000   1.0000
     1.0000   1.0000   1.0000   1.0000   1.0000   1.0000   1.0000   1.0000
     1.0000   1.0000   1.0000   1.0000   1.0000   1.0000   1.0000   1.0000

          k =-0.5000 1.1726 0.4602 ( 11256 PWs)   bands (ev):

   -13.3294 -13.3294 -13.3279 -13.3279 -13.3057 -13.3057 -13.3047 -13.3047
   -13.2947 -13.2947 -13.2899 -13.2899 -13.2758 -13.2758 -13.2702 -13.2702
   -13.2424 -13.2424 -13.2384 -13.2384  -4.8002  -4.8002  -4.5483  -4.5483
     0.6710   0.6710   0.9753   0.9753   4.1563   4.1563   4.6973   4.6973
     5.2611   5.2611   5.7036   5.7036   6.4919   6.4919   6.9335   6.9335

     occupation numbers 
     1.0000   1.0000   1.0000   1.0000   1.0000   1.0000   1.0000   1.0000
     1.0000   1.0000   1.0000   1.0000   1.0000   1.0000   1.0000   1.0000
     1.0000   1.0000   1.0000   1.0000   1.0000   1.0000   1.0000   1.0000
     1.0000   1.0000   1.0000   1.0000   1.0000   1.0000   1.0000   1.0000
     1.0000   1.0000   1.0000   1.0000   1.0000   1.0000   1.0000   1.0000

          k =-0.5000 1.1726 0.7669 ( 11244 PWs)   bands (ev):

   -13.3325 -13.3325 -13.3310 -13.3310 -13.3055 -13.3055 -13.3044 -13.3044
   -13.2938 -13.2938 -13.2890 -13.2890 -13.2744 -13.2744 -13.2691 -13.2691
   -13.2423 -13.2423 -13.2382 -13.2382  -4.6915  -4.6915  -4.5089  -4.5089
     0.8640   0.8640   1.1412   1.1412   3.6004   3.6004   4.1179   4.1179
     4.6912   4.6912   5.1543   5.1543   6.4358   6.4358   6.8110   6.8110

     occupation numbers 
     1.0000   1.0000   1.0000   1.0000   1.0000   1.0000   1.0000   1.0000
     1.0000   1.0000   1.0000   1.0000   1.0000   1.0000   1.0000   1.0000
     1.0000   1.0000   1.0000   1.0000   1.0000   1.0000   1.0000   1.0000
     1.0000   1.0000   1.0000   1.0000   1.0000   1.0000   1.0000   1.0000
     1.0000   1.0000   1.0000   1.0000   1.0000   1.0000   1.0000   1.0000

          k =-0.5000 1.1726 1.0737 ( 11242 PWs)   bands (ev):

   -13.3347 -13.3347 -13.3332 -13.3332 -13.3055 -13.3055 -13.3044 -13.3044
   -13.2932 -13.2932 -13.2884 -13.2884 -13.2733 -13.2733 -13.2684 -13.2684
   -13.2423 -13.2423 -13.2380 -13.2380  -4.5942  -4.5942  -4.4974  -4.4974
     0.9840   0.9840   1.3095   1.3095   3.4192   3.4192   3.6640   3.6640
     4.3428   4.3428   4.6233   4.6233   6.5390   6.5390   6.7288   6.7288

     occupation numbers 
     1.0000   1.0000   1.0000   1.0000   1.0000   1.0000   1.0000   1.0000
     1.0000   1.0000   1.0000   1.0000   1.0000   1.0000   1.0000   1.0000
     1.0000   1.0000   1.0000   1.0000   1.0000   1.0000   1.0000   1.0000
     1.0000   1.0000   1.0000   1.0000   1.0000   1.0000   1.0000   1.0000
     1.0000   1.0000   1.0000   1.0000   1.0000   1.0000   1.0000   1.0000

     highest occupied level (ev):     7.8431

!    total energy              =    -827.74345346 Ry
     estimated scf accuracy    <          4.8E-09 Ry

     The total energy is the sum of the following terms:
     one-electron contribution =    -259.64282966 Ry
     hartree contribution      =     180.22030260 Ry
     xc contribution           =    -309.12703324 Ry
     ewald contribution        =    -439.07140100 Ry
     DFT-D3 Dispersion         =      -0.12249216 Ry

     convergence has been achieved in  11 iterations

     Forces acting on atoms (cartesian axes, Ry/au):

     atom    1 type  2   force =     0.01170664    0.00000000    0.00111589
     atom    2 type  1   force =    -0.01197023    0.00000000   -0.00041262
     atom    3 type  2   force =    -0.01170664    0.00000000    0.00111589
     atom    4 type  1   force =     0.01197023    0.00000000   -0.00041262
     atom    5 type  2   force =     0.01170664    0.00000000   -0.00111589
     atom    6 type  1   force =    -0.01197023    0.00000000    0.00041262
     atom    7 type  2   force =    -0.01170664    0.00000000   -0.00111589
     atom    8 type  1   force =     0.01197023   -0.00000000    0.00041262
     The non-local contrib.  to forces
     atom    1 type  2   force =    -0.10679734    0.00000000    0.11232025
     atom    2 type  1   force =     0.35295308    0.00000000    0.30430944
     atom    3 type  2   force =     0.10679734    0.00000000    0.11232025
     atom    4 type  1   force =    -0.35295308    0.00000000    0.30430944
     atom    5 type  2   force =    -0.10679734    0.00000000   -0.11232025
     atom    6 type  1   force =     0.35295308    0.00000000   -0.30430944
     atom    7 type  2   force =     0.10679734    0.00000000   -0.11232025
     atom    8 type  1   force =    -0.35295308    0.00000000   -0.30430944
     The ionic contribution  to forces
     atom    1 type  2   force =     1.38548125   -0.00000000   -1.18796558
     atom    2 type  1   force =    -0.66557366    0.00000000   -0.59818750
     atom    3 type  2   force =    -1.38548125    0.00000000   -1.18796558
     atom    4 type  1   force =     0.66557366    0.00000000   -0.59818750
     atom    5 type  2   force =     1.38548125    0.00000000    1.18796558
     atom    6 type  1   force =    -0.66557366    0.00000000    0.59818750
     atom    7 type  2   force =    -1.38548125   -0.00000000    1.18796558
     atom    8 type  1   force =     0.66557366    0.00000000    0.59818750
     The local contribution  to forces
     atom    1 type  2   force =    -1.27769032    0.00000000    1.08780468
     atom    2 type  1   force =     0.30619270    0.00000000    0.29790266
     atom    3 type  2   force =     1.27769032   -0.00000000    1.08780468
     atom    4 type  1   force =    -0.30619270    0.00000000    0.29790266
     atom    5 type  2   force =    -1.27769032    0.00000000   -1.08780468
     atom    6 type  1   force =     0.30619270    0.00000000   -0.29790266
     atom    7 type  2   force =     1.27769032    0.00000000   -1.08780468
     atom    8 type  1   force =    -0.30619270    0.00000000   -0.29790266
     The core correction contribution to forces
     atom    1 type  2   force =     0.01157607   -0.00000000   -0.01250466
     atom    2 type  1   force =    -0.00480336    0.00000000   -0.00541736
     atom    3 type  2   force =    -0.01157607   -0.00000000   -0.01250466
     atom    4 type  1   force =     0.00480336    0.00000000   -0.00541736
     atom    5 type  2   force =     0.01157607   -0.00000000    0.01250466
     atom    6 type  1   force =    -0.00480336   -0.00000000    0.00541736
     atom    7 type  2   force =    -0.01157607    0.00000000    0.01250466
     atom    8 type  1   force =     0.00480336    0.00000000    0.00541736
     The Hubbard contrib.    to forces
     atom    1 type  2   force =     0.00000000    0.00000000    0.00000000
     atom    2 type  1   force =     0.00000000    0.00000000    0.00000000
     atom    3 type  2   force =     0.00000000    0.00000000    0.00000000
     atom    4 type  1   force =     0.00000000    0.00000000    0.00000000
     atom    5 type  2   force =     0.00000000    0.00000000    0.00000000
     atom    6 type  1   force =     0.00000000    0.00000000    0.00000000
     atom    7 type  2   force =     0.00000000    0.00000000    0.00000000
     atom    8 type  1   force =     0.00000000    0.00000000    0.00000000
     The SCF correction term to forces
     atom    1 type  2   force =    -0.00000211   -0.00000000    0.00000344
     atom    2 type  1   force =    -0.00004094    0.00000000   -0.00003642
     atom    3 type  2   force =     0.00000211    0.00000000    0.00000344
     atom    4 type  1   force =     0.00004094   -0.00000000   -0.00003642
     atom    5 type  2   force =    -0.00000211    0.00000000   -0.00000344
     atom    6 type  1   force =    -0.00004094    0.00000000    0.00003642
     atom    7 type  2   force =     0.00000211    0.00000000   -0.00000344
     atom    8 type  1   force =     0.00004094    0.00000000    0.00003642

     DFT-D3 dispersion contribution to forces:
     atom    1 type  2   force =    -0.00086090    0.00000000    0.00145776
     atom    2 type  1   force =    -0.00069805    0.00000000    0.00101657
     atom    3 type  2   force =     0.00086090   -0.00000000    0.00145776
     atom    4 type  1   force =     0.00069805   -0.00000000    0.00101657
     atom    5 type  2   force =    -0.00086090   -0.00000000   -0.00145776
     atom    6 type  1   force =    -0.00069805    0.00000000   -0.00101657
     atom    7 type  2   force =     0.00086090   -0.00000000   -0.00145776
     atom    8 type  1   force =     0.00069805   -0.00000000   -0.00101657

     Total force =     0.033571     Total SCF correction =     0.000110

     DFT-D3 dispersion Force =     0.004189

     Writing all to output data dir ./tmp/SnSe_pnma.save/ :
     XML data file, charge density, pseudopotentials, collected wavefunctions
 
     init_run     :      3.20s CPU      3.51s WALL (       1 calls)
     electrons    :     82.25s CPU     86.65s WALL (       1 calls)
     forces       :      1.26s CPU      1.47s WALL (       1 calls)
     force_dftd3  :      0.05s CPU      0.06s WALL (       1 calls)

     Called by init_run:
     wfcinit      :      2.05s CPU      2.10s WALL (       1 calls)
     wfcinit:atom :      0.02s CPU      0.03s WALL (      11 calls)
     wfcinit:wfcr :      1.83s CPU      1.85s WALL (      11 calls)
     potinit      :      0.30s CPU      0.35s WALL (       1 calls)
     hinit0       :      0.21s CPU      0.24s WALL (       1 calls)

     Called by electrons:
     c_bands      :     61.72s CPU     62.15s WALL (      11 calls)
     sum_band     :     14.41s CPU     16.37s WALL (      11 calls)
     v_of_rho     :      2.39s CPU      2.54s WALL (      12 calls)
     v_h          :      0.18s CPU      0.18s WALL (      12 calls)
     v_xc         :      2.38s CPU      2.56s WALL (      13 calls)
     newd         :      3.88s CPU      5.85s WALL (      12 calls)
     mix_rho      :      0.26s CPU      0.27s WALL (      11 calls)
     energy_dftd3 :      0.04s CPU      0.04s WALL (       1 calls)

     Called by c_bands:
     init_us_2    :      1.54s CPU      1.56s WALL (     264 calls)
     cegterg      :     55.19s CPU     55.39s WALL (     121 calls)

     Called by sum_band:
     sum_band:wei :      0.00s CPU      0.00s WALL (      11 calls)
     sum_band:loo :      9.94s CPU      9.99s WALL (      11 calls)
     sum_band:buf :      0.09s CPU      0.09s WALL (     121 calls)
     sum_band:ini :      0.67s CPU      0.67s WALL (     121 calls)
     sum_band:cal :      0.91s CPU      0.92s WALL (     121 calls)
     sum_band:bec :      0.01s CPU      0.01s WALL (     121 calls)
     addusdens    :      3.79s CPU      5.63s WALL (      11 calls)
                                        0.00s GPU  (      11 calls)
     addusd:skk   :      0.02s CPU      0.04s WALL (      22 calls)
                                        0.00s GPU  (      22 calls)

     Called by *egterg:
     cdiaghg      :      0.90s CPU      0.91s WALL (     548 calls)
     cegterg:over :      2.40s CPU      2.41s WALL (     427 calls)
     cegterg:upda :      1.39s CPU      1.40s WALL (     427 calls)
     cegterg:last :      3.63s CPU      3.64s WALL (     317 calls)
     h_psi        :     43.72s CPU     43.90s WALL (     559 calls)
     s_psi        :      3.54s CPU      3.55s WALL (     559 calls)
     g_psi        :      0.15s CPU      0.15s WALL (     427 calls)

     Called by h_psi:
     h_psi:calbec :      3.19s CPU      3.20s WALL (     559 calls)
     vloc_psi     :     36.73s CPU     36.90s WALL (     559 calls)
     add_vuspsi   :      3.51s CPU      3.51s WALL (     559 calls)

     General routines
     calbec       :      4.44s CPU      4.45s WALL (     724 calls)
     fft          :      1.28s CPU      1.30s WALL (     165 calls)
     ffts         :      0.04s CPU      0.04s WALL (      23 calls)
     fftw         :     23.91s CPU     24.01s WALL (   36180 calls)
     interpolate  :      0.14s CPU      0.14s WALL (      12 calls)
 
     Parallel routines
 
     PWSCF        :   1m26.96s CPU   1m32.72s WALL

 
   This run was terminated on:  20:17:13  20May2026            

=------------------------------------------------------------------------------=
   JOB DONE.
=------------------------------------------------------------------------------=
