
     Program PWSCF v.7.3.1 starts on 20May2026 at 18:25:33 

     This program is part of the open-source Quantum ESPRESSO suite
     for quantum simulation of materials; please cite
         "P. Giannozzi et al., J. Phys.:Condens. Matter 21 395502 (2009);
         "P. Giannozzi et al., J. Phys.:Condens. Matter 29 465901 (2017);
         "P. Giannozzi et al., J. Chem. Phys. 152 154105 (2020);
          URL http://www.quantum-espresso.org", 
     in publications or presentations arising from this work. More details at
     http://www.quantum-espresso.org/quote

     Parallel version (MPI & OpenMP), running on       6 processor cores
     Number of MPI processes:                 6
     Threads/MPI process:                     1

     MPI processes distributed on     1 nodes
     6951 MiB available memory on the printing compute node when the environment starts
 
     Waiting for input...
     Reading input from standard input

     Current dimensions of program PWSCF are:
     Max number of different atomic species (ntypx) = 10
     Max number of k-points (npk) =  40000
     Max angular momentum in pseudopotentials (lmaxx) =  4
 
     K-points division:     npool     =       3
     R & G space division:  proc/nbgrp/npool/nimage =       2
     Subspace diagonalization in iterative solution of the eigenvalue problem:
     a serial algorithm will be used

 
     Parallelization info
     --------------------
     sticks:   dense  smooth     PW     G-vecs:    dense   smooth      PW
     Min        4266    1706    483               190699    48211    7279
     Max        4267    1707    484               190700    48212    7282
     Sum        8533    3413    967               381399    96423   14561
 
     Using Slab Decomposition
 


     bravais-lattice index     =            8
     lattice parameter (alat)  =      22.6389  a.u.
     unit-cell volume          =    1536.2833 (a.u.)^3
     number of atoms/cell      =            8
     number of atomic types    =            2
     number of electrons       =        80.00
     number of Kohn-Sham states=           40
     kinetic-energy cutoff     =      60.0000  Ry
     charge density cutoff     =     600.0000  Ry
     scf convergence threshold =      1.0E-08
     mixing beta               =       0.7000
     number of iterations used =            8  plain     mixing
     Exchange-correlation= SLA  PW   PBE  PBE
                           (   1   4   3   4   0   0   0)

     celldm(1)=  22.638919  celldm(2)=   0.348197  celldm(3)=   0.380259
     celldm(4)=   0.000000  celldm(5)=   0.000000  celldm(6)=   0.000000

     crystal axes: (cart. coord. in units of alat)
               a(1) = (   1.000000   0.000000   0.000000 )  
               a(2) = (   0.000000   0.348197   0.000000 )  
               a(3) = (   0.000000   0.000000   0.380259 )  

     reciprocal axes: (cart. coord. in units 2 pi/alat)
               b(1) = (  1.000000  0.000000  0.000000 )  
               b(2) = (  0.000000  2.871937  0.000000 )  
               b(3) = (  0.000000  0.000000  2.629788 )  


     PseudoPot. # 1 for Sn read from file:
     ../pseudo/Sn_pbe_v1.uspp.F.UPF
     MD5 check sum: 4cf58ce39ec5d5d420df3dd08604eb00
     Pseudo is Ultrasoft + core correction, Zval = 14.0
     Generated by new atomic code, or converted to UPF format
     Using radial grid of  891 points,  6 beta functions with: 
                l(1) =   0
                l(2) =   0
                l(3) =   1
                l(4) =   1
                l(5) =   2
                l(6) =   2
     Q(r) pseudized with  6 coefficients,  rinner =    1.200   1.200   1.200
                                                       1.200   1.200

     PseudoPot. # 2 for Se read from file:
     ../pseudo/Se_pbe_v1.uspp.F.UPF
     MD5 check sum: 1b3568f3a8ae88f9a2a0ad0698632c85
     Pseudo is Ultrasoft + core correction, Zval =  6.0
     Generated by new atomic code, or converted to UPF format
     Using radial grid of  877 points,  6 beta functions with: 
                l(1) =   0
                l(2) =   0
                l(3) =   1
                l(4) =   1
                l(5) =   2
                l(6) =   2
     Q(r) pseudized with  8 coefficients,  rinner =    1.300   1.300   1.300
                                                       1.300   1.300

     atomic species   valence    mass     pseudopotential
     Sn               14.00   118.71000     Sn( 1.00)
     Se                6.00    78.97100     Se( 1.00)

      8 Sym. Ops., with inversion, found ( 6 have fractional translation)


                                    s                        frac. trans.

      isym =  1     identity                                     

 cryst.   s( 1) = (     1          0          0      )
                  (     0          1          0      )
                  (     0          0          1      )

 cart.    s( 1) = (  1.0000000  0.0000000  0.0000000 )
                  (  0.0000000  1.0000000  0.0000000 )
                  (  0.0000000  0.0000000  1.0000000 )


      isym =  2     180 deg rotation - cart. axis [0,0,1]        

 cryst.   s( 2) = (    -1          0          0      )    f =(  0.5000000 )
                  (     0         -1          0      )       (  0.0000000 )
                  (     0          0          1      )       ( -0.5000000 )

 cart.    s( 2) = ( -1.0000000  0.0000000  0.0000000 )    f =(  0.5000000 )
                  (  0.0000000 -1.0000000  0.0000000 )       (  0.0000000 )
                  (  0.0000000  0.0000000  1.0000000 )       ( -0.1901294 )


      isym =  3     180 deg rotation - cart. axis [0,1,0]        

 cryst.   s( 3) = (    -1          0          0      )    f =(  0.0000000 )
                  (     0          1          0      )       ( -0.5000000 )
                  (     0          0         -1      )       (  0.0000000 )

 cart.    s( 3) = ( -1.0000000  0.0000000  0.0000000 )    f =(  0.0000000 )
                  (  0.0000000  1.0000000  0.0000000 )       ( -0.1740985 )
                  (  0.0000000  0.0000000 -1.0000000 )       (  0.0000000 )


      isym =  4     180 deg rotation - cart. axis [1,0,0]        

 cryst.   s( 4) = (     1          0          0      )    f =(  0.5000000 )
                  (     0         -1          0      )       (  0.5000000 )
                  (     0          0         -1      )       ( -0.5000000 )

 cart.    s( 4) = (  1.0000000  0.0000000  0.0000000 )    f =(  0.5000000 )
                  (  0.0000000 -1.0000000  0.0000000 )       (  0.1740985 )
                  (  0.0000000  0.0000000 -1.0000000 )       ( -0.1901294 )


      isym =  5     inversion                                    

 cryst.   s( 5) = (    -1          0          0      )
                  (     0         -1          0      )
                  (     0          0         -1      )

 cart.    s( 5) = ( -1.0000000  0.0000000  0.0000000 )
                  (  0.0000000 -1.0000000  0.0000000 )
                  (  0.0000000  0.0000000 -1.0000000 )


      isym =  6     inv. 180 deg rotation - cart. axis [0,0,1]   

 cryst.   s( 6) = (     1          0          0      )    f =(  0.5000000 )
                  (     0          1          0      )       (  0.0000000 )
                  (     0          0         -1      )       ( -0.5000000 )

 cart.    s( 6) = (  1.0000000  0.0000000  0.0000000 )    f =(  0.5000000 )
                  (  0.0000000  1.0000000  0.0000000 )       (  0.0000000 )
                  (  0.0000000  0.0000000 -1.0000000 )       ( -0.1901294 )


      isym =  7     inv. 180 deg rotation - cart. axis [0,1,0]   

 cryst.   s( 7) = (     1          0          0      )    f =(  0.0000000 )
                  (     0         -1          0      )       (  0.5000000 )
                  (     0          0          1      )       (  0.0000000 )

 cart.    s( 7) = (  1.0000000  0.0000000  0.0000000 )    f =(  0.0000000 )
                  (  0.0000000 -1.0000000  0.0000000 )       (  0.1740985 )
                  (  0.0000000  0.0000000  1.0000000 )       (  0.0000000 )


      isym =  8     inv. 180 deg rotation - cart. axis [1,0,0]   

 cryst.   s( 8) = (    -1          0          0      )    f =(  0.5000000 )
                  (     0          1          0      )       ( -0.5000000 )
                  (     0          0          1      )       ( -0.5000000 )

 cart.    s( 8) = ( -1.0000000  0.0000000  0.0000000 )    f =(  0.5000000 )
                  (  0.0000000  1.0000000  0.0000000 )       ( -0.1740985 )
                  (  0.0000000  0.0000000  1.0000000 )       ( -0.1901294 )


     point group D_2h (mmm) 
     there are  8 classes
     the character table:

       E     C2    C2'   C2''  i     s_v   s_v'  s_v''
A_g    1.00  1.00  1.00  1.00  1.00  1.00  1.00  1.00
B_1g   1.00  1.00 -1.00 -1.00  1.00  1.00 -1.00 -1.00
B_2g   1.00 -1.00  1.00 -1.00  1.00 -1.00  1.00 -1.00
B_3g   1.00 -1.00 -1.00  1.00  1.00 -1.00 -1.00  1.00
A_u    1.00  1.00  1.00  1.00 -1.00 -1.00 -1.00 -1.00
B_1u   1.00  1.00 -1.00 -1.00 -1.00 -1.00  1.00  1.00
B_2u   1.00 -1.00  1.00 -1.00 -1.00  1.00 -1.00  1.00
B_3u   1.00 -1.00 -1.00  1.00 -1.00  1.00  1.00 -1.00

     the symmetry operations in each class and the name of the first element:

     E        1
          identity                                               
     C2       2
          180 deg rotation - cart. axis [0,0,1]                  
     C2'      4
          180 deg rotation - cart. axis [1,0,0]                  
     C2''     3
          180 deg rotation - cart. axis [0,1,0]                  
     i        5
          inversion                                              
     s_v      6
          inv. 180 deg rotation - cart. axis [0,0,1]             
     s_v'     8
          inv. 180 deg rotation - cart. axis [1,0,0]             
     s_v''    7
          inv. 180 deg rotation - cart. axis [0,1,0]             

   Cartesian axes

     site n.     atom                  positions (alat units)
         1        Se     tau(   1) = (   0.8549563   0.0870492   0.1837593  )
         2        Sn     tau(   2) = (   0.1165395   0.0870492   0.0426981  )
         3        Se     tau(   3) = (   0.6450437   0.2611477   0.3738887  )
         4        Sn     tau(   4) = (   0.3834605   0.2611477   0.2328275  )
         5        Se     tau(   5) = (   0.3549563   0.0870492   0.0063701  )
         6        Sn     tau(   6) = (   0.6165395   0.0870492   0.1474313  )
         7        Se     tau(   7) = (   0.1450437   0.2611477   0.1964995  )
         8        Sn     tau(   8) = (   0.8834605   0.2611477   0.3375606  )

     --------------------------------------------
     DFT-D3 Dispersion Correction (3-body terms):
     --------------------------------------------
       Reference C6 values for interpolation: 

         atom   Coordination number   C6
         Se         0.000           427.35
         Se         0.990           427.57
         Se         1.981           421.05
         Sn         0.000          1255.14
         Sn         0.951          1084.09
         Sn         1.950          1010.83
         Sn         2.926           818.29
         Sn         3.912           672.20

       Values used:

         atom   Coordination number  R0_AB[au]  C6      C8
         Se         3.247            3.332    421.05  29958.36
         Sn         3.816            3.957    677.92  85086.30
         Se         3.247            3.332    421.05  29958.36
         Sn         3.816            3.957    677.92  85086.30
         Se         3.247            3.332    421.05  29958.36
         Sn         3.816            3.957    677.92  85086.30
         Se         3.247            3.332    421.05  29958.36
         Sn         3.816            3.957    677.92  85086.30

         Molecular C6 ( Ry / a.u.^6 ) =     34658.25


   Crystallographic axes

     site n.     atom                  positions (cryst. coord.)
         1        Se     tau(   1) = (  0.8549563  0.2500000  0.4832481  )
         2        Sn     tau(   2) = (  0.1165395  0.2500000  0.1122870  )
         3        Se     tau(   3) = (  0.6450437  0.7500000  0.9832481  )
         4        Sn     tau(   4) = (  0.3834605  0.7500000  0.6122870  )
         5        Se     tau(   5) = (  0.3549563  0.2500000  0.0167519  )
         6        Sn     tau(   6) = (  0.6165395  0.2500000  0.3877130  )
         7        Se     tau(   7) = (  0.1450437  0.7500000  0.5167519  )
         8        Sn     tau(   8) = (  0.8834605  0.7500000  0.8877130  )

     number of k points=    32
                       cart. coord. in units 2pi/alat
        k(    1) = (   0.1666667   0.1794961   0.1643618), wk =   0.0833333
        k(    2) = (   0.1666667   0.1794961   0.4930853), wk =   0.0833333
        k(    3) = (   0.1666667   0.1794961   0.8218088), wk =   0.0833333
        k(    4) = (   0.1666667   0.1794961   1.1505323), wk =   0.0833333
        k(    5) = (   0.1666667   0.5384883   0.1643618), wk =   0.0833333
        k(    6) = (   0.1666667   0.5384883   0.4930853), wk =   0.0833333
        k(    7) = (   0.1666667   0.5384883   0.8218088), wk =   0.0833333
        k(    8) = (   0.1666667   0.5384883   1.1505323), wk =   0.0833333
        k(    9) = (   0.1666667   0.8974805   0.1643618), wk =   0.0833333
        k(   10) = (   0.1666667   0.8974805   0.4930853), wk =   0.0833333
        k(   11) = (   0.1666667   0.8974805   0.8218088), wk =   0.0833333
        k(   12) = (   0.1666667   0.8974805   1.1505323), wk =   0.0833333
        k(   13) = (   0.1666667   1.2564726   0.1643618), wk =   0.0833333
        k(   14) = (   0.1666667   1.2564726   0.4930853), wk =   0.0833333
        k(   15) = (   0.1666667   1.2564726   0.8218088), wk =   0.0833333
        k(   16) = (   0.1666667   1.2564726   1.1505323), wk =   0.0833333
        k(   17) = (  -0.5000000   0.1794961   0.1643618), wk =   0.0416667
        k(   18) = (  -0.5000000   0.1794961   0.4930853), wk =   0.0416667
        k(   19) = (  -0.5000000   0.1794961   0.8218088), wk =   0.0416667
        k(   20) = (  -0.5000000   0.1794961   1.1505323), wk =   0.0416667
        k(   21) = (  -0.5000000   0.5384883   0.1643618), wk =   0.0416667
        k(   22) = (  -0.5000000   0.5384883   0.4930853), wk =   0.0416667
        k(   23) = (  -0.5000000   0.5384883   0.8218088), wk =   0.0416667
        k(   24) = (  -0.5000000   0.5384883   1.1505323), wk =   0.0416667
        k(   25) = (  -0.5000000   0.8974805   0.1643618), wk =   0.0416667
        k(   26) = (  -0.5000000   0.8974805   0.4930853), wk =   0.0416667
        k(   27) = (  -0.5000000   0.8974805   0.8218088), wk =   0.0416667
        k(   28) = (  -0.5000000   0.8974805   1.1505323), wk =   0.0416667
        k(   29) = (  -0.5000000   1.2564726   0.1643618), wk =   0.0416667
        k(   30) = (  -0.5000000   1.2564726   0.4930853), wk =   0.0416667
        k(   31) = (  -0.5000000   1.2564726   0.8218088), wk =   0.0416667
        k(   32) = (  -0.5000000   1.2564726   1.1505323), wk =   0.0416667

                       cryst. coord.
        k(    1) = (   0.1666667   0.0625000   0.0625000), wk =   0.0833333
        k(    2) = (   0.1666667   0.0625000   0.1875000), wk =   0.0833333
        k(    3) = (   0.1666667   0.0625000   0.3125000), wk =   0.0833333
        k(    4) = (   0.1666667   0.0625000   0.4375000), wk =   0.0833333
        k(    5) = (   0.1666667   0.1875000   0.0625000), wk =   0.0833333
        k(    6) = (   0.1666667   0.1875000   0.1875000), wk =   0.0833333
        k(    7) = (   0.1666667   0.1875000   0.3125000), wk =   0.0833333
        k(    8) = (   0.1666667   0.1875000   0.4375000), wk =   0.0833333
        k(    9) = (   0.1666667   0.3125000   0.0625000), wk =   0.0833333
        k(   10) = (   0.1666667   0.3125000   0.1875000), wk =   0.0833333
        k(   11) = (   0.1666667   0.3125000   0.3125000), wk =   0.0833333
        k(   12) = (   0.1666667   0.3125000   0.4375000), wk =   0.0833333
        k(   13) = (   0.1666667   0.4375000   0.0625000), wk =   0.0833333
        k(   14) = (   0.1666667   0.4375000   0.1875000), wk =   0.0833333
        k(   15) = (   0.1666667   0.4375000   0.3125000), wk =   0.0833333
        k(   16) = (   0.1666667   0.4375000   0.4375000), wk =   0.0833333
        k(   17) = (  -0.5000000   0.0625000   0.0625000), wk =   0.0416667
        k(   18) = (  -0.5000000   0.0625000   0.1875000), wk =   0.0416667
        k(   19) = (  -0.5000000   0.0625000   0.3125000), wk =   0.0416667
        k(   20) = (  -0.5000000   0.0625000   0.4375000), wk =   0.0416667
        k(   21) = (  -0.5000000   0.1875000   0.0625000), wk =   0.0416667
        k(   22) = (  -0.5000000   0.1875000   0.1875000), wk =   0.0416667
        k(   23) = (  -0.5000000   0.1875000   0.3125000), wk =   0.0416667
        k(   24) = (  -0.5000000   0.1875000   0.4375000), wk =   0.0416667
        k(   25) = (  -0.5000000   0.3125000   0.0625000), wk =   0.0416667
        k(   26) = (  -0.5000000   0.3125000   0.1875000), wk =   0.0416667
        k(   27) = (  -0.5000000   0.3125000   0.3125000), wk =   0.0416667
        k(   28) = (  -0.5000000   0.3125000   0.4375000), wk =   0.0416667
        k(   29) = (  -0.5000000   0.4375000   0.0625000), wk =   0.0416667
        k(   30) = (  -0.5000000   0.4375000   0.1875000), wk =   0.0416667
        k(   31) = (  -0.5000000   0.4375000   0.3125000), wk =   0.0416667
        k(   32) = (  -0.5000000   0.4375000   0.4375000), wk =   0.0416667

     Dense  grid:   381399 G-vectors     FFT dimensions: ( 180,  64,  72)

     Smooth grid:    96423 G-vectors     FFT dimensions: ( 120,  40,  48)

     Dynamical RAM for                 wfc:       3.68 MB

     Dynamical RAM for     wfc (w. buffer):      44.15 MB

     Dynamical RAM for           str. fact:       5.82 MB

     Dynamical RAM for           local pot:       0.00 MB

     Dynamical RAM for          nlocal pot:      13.25 MB

     Dynamical RAM for                qrad:       3.93 MB

     Dynamical RAM for          rho,v,vnew:      18.22 MB

     Dynamical RAM for               rhoin:       6.07 MB

     Dynamical RAM for            rho*nmix:      46.56 MB

     Dynamical RAM for           G-vectors:      11.28 MB

     Dynamical RAM for          h,s,v(r/c):       0.29 MB

     Dynamical RAM for          <psi|beta>:       0.09 MB

     Dynamical RAM for                 psi:       7.36 MB

     Dynamical RAM for                hpsi:       7.36 MB

     Dynamical RAM for                spsi:       7.36 MB

     Dynamical RAM for      wfcinit/wfcrot:       9.63 MB

     Dynamical RAM for           addusdens:     186.23 MB

     Dynamical RAM for          addusforce:     191.58 MB

     Estimated static dynamical RAM per process >     127.27 MB

     Estimated max dynamical RAM per process >     365.41 MB

     Estimated total dynamical RAM >       1.96 GB

     Initial potential from superposition of free atoms

     starting charge      75.9995, renormalised to      80.0000
     Starting wfcs are   52 randomized atomic wfcs

     total cpu time spent up to now is        4.2 secs

     Self-consistent Calculation

     iteration #  1     ecut=    60.00 Ry     beta= 0.70
     Davidson diagonalization with overlap

---- Real-time Memory Report at c_bands before calling an iterative solver
           405 MiB given to the printing process from OS
             0 MiB allocation reported by mallinfo(arena+hblkhd)
          5910 MiB available memory on the node where the printing process lives
------------------
     ethr =  1.00E-02,  avg # of iterations =  2.0

     total cpu time spent up to now is       12.1 secs

     total energy              =    -826.61136505 Ry
     estimated scf accuracy    <       2.72299152 Ry

     iteration #  2     ecut=    60.00 Ry     beta= 0.70
     Davidson diagonalization with overlap

---- Real-time Memory Report at c_bands before calling an iterative solver
           510 MiB given to the printing process from OS
             0 MiB allocation reported by mallinfo(arena+hblkhd)
          5614 MiB available memory on the node where the printing process lives
------------------
     ethr =  3.40E-03,  avg # of iterations =  3.0

     total cpu time spent up to now is       21.2 secs

     total energy              =    -827.51358224 Ry
     estimated scf accuracy    <       1.07764818 Ry

     iteration #  3     ecut=    60.00 Ry     beta= 0.70
     Davidson diagonalization with overlap

---- Real-time Memory Report at c_bands before calling an iterative solver
           548 MiB given to the printing process from OS
             0 MiB allocation reported by mallinfo(arena+hblkhd)
          5424 MiB available memory on the node where the printing process lives
------------------
     ethr =  1.35E-03,  avg # of iterations =  2.8

     total cpu time spent up to now is       28.8 secs

     total energy              =    -827.73556166 Ry
     estimated scf accuracy    <       0.01329748 Ry

     iteration #  4     ecut=    60.00 Ry     beta= 0.70
     Davidson diagonalization with overlap

---- Real-time Memory Report at c_bands before calling an iterative solver
           551 MiB given to the printing process from OS
             0 MiB allocation reported by mallinfo(arena+hblkhd)
          5447 MiB available memory on the node where the printing process lives
------------------
     ethr =  1.66E-05,  avg # of iterations =  4.9

     total cpu time spent up to now is       39.0 secs

     total energy              =    -827.74331303 Ry
     estimated scf accuracy    <       0.00561657 Ry

     iteration #  5     ecut=    60.00 Ry     beta= 0.70
     Davidson diagonalization with overlap

---- Real-time Memory Report at c_bands before calling an iterative solver
           556 MiB given to the printing process from OS
             0 MiB allocation reported by mallinfo(arena+hblkhd)
          5432 MiB available memory on the node where the printing process lives
------------------
     ethr =  7.02E-06,  avg # of iterations =  2.4

     total cpu time spent up to now is       46.7 secs

     total energy              =    -827.74441234 Ry
     estimated scf accuracy    <       0.00059288 Ry

     iteration #  6     ecut=    60.00 Ry     beta= 0.70
     Davidson diagonalization with overlap

---- Real-time Memory Report at c_bands before calling an iterative solver
           558 MiB given to the printing process from OS
             0 MiB allocation reported by mallinfo(arena+hblkhd)
          5424 MiB available memory on the node where the printing process lives
------------------
     ethr =  7.41E-07,  avg # of iterations =  4.3

     total cpu time spent up to now is       55.7 secs

     total energy              =    -827.74446640 Ry
     estimated scf accuracy    <       0.00096758 Ry

     iteration #  7     ecut=    60.00 Ry     beta= 0.70
     Davidson diagonalization with overlap

---- Real-time Memory Report at c_bands before calling an iterative solver
           561 MiB given to the printing process from OS
             0 MiB allocation reported by mallinfo(arena+hblkhd)
          5413 MiB available memory on the node where the printing process lives
------------------
     ethr =  7.41E-07,  avg # of iterations =  2.9

     total cpu time spent up to now is       63.4 secs

     total energy              =    -827.74460130 Ry
     estimated scf accuracy    <       0.00002258 Ry

     iteration #  8     ecut=    60.00 Ry     beta= 0.70
     Davidson diagonalization with overlap

---- Real-time Memory Report at c_bands before calling an iterative solver
           563 MiB given to the printing process from OS
             0 MiB allocation reported by mallinfo(arena+hblkhd)
          4867 MiB available memory on the node where the printing process lives
------------------
     ethr =  2.82E-08,  avg # of iterations =  4.9

     total cpu time spent up to now is       72.6 secs

     total energy              =    -827.74461933 Ry
     estimated scf accuracy    <       0.00001997 Ry

     iteration #  9     ecut=    60.00 Ry     beta= 0.70
     Davidson diagonalization with overlap

---- Real-time Memory Report at c_bands before calling an iterative solver
           565 MiB given to the printing process from OS
             0 MiB allocation reported by mallinfo(arena+hblkhd)
          4890 MiB available memory on the node where the printing process lives
------------------
     ethr =  2.50E-08,  avg # of iterations =  2.0

     total cpu time spent up to now is       79.6 secs

     total energy              =    -827.74462121 Ry
     estimated scf accuracy    <       0.00000139 Ry

     iteration # 10     ecut=    60.00 Ry     beta= 0.70
     Davidson diagonalization with overlap

---- Real-time Memory Report at c_bands before calling an iterative solver
           568 MiB given to the printing process from OS
             0 MiB allocation reported by mallinfo(arena+hblkhd)
          4882 MiB available memory on the node where the printing process lives
------------------
     ethr =  1.73E-09,  avg # of iterations =  5.0

     total cpu time spent up to now is       90.0 secs

     total energy              =    -827.74462218 Ry
     estimated scf accuracy    <       0.00000020 Ry

     iteration # 11     ecut=    60.00 Ry     beta= 0.70
     Davidson diagonalization with overlap

---- Real-time Memory Report at c_bands before calling an iterative solver
           569 MiB given to the printing process from OS
             0 MiB allocation reported by mallinfo(arena+hblkhd)
          4905 MiB available memory on the node where the printing process lives
------------------
     ethr =  2.53E-10,  avg # of iterations =  3.9

     total cpu time spent up to now is       99.3 secs

     total energy              =    -827.74462220 Ry
     estimated scf accuracy    <       0.00000008 Ry

     iteration # 12     ecut=    60.00 Ry     beta= 0.70
     Davidson diagonalization with overlap

---- Real-time Memory Report at c_bands before calling an iterative solver
           569 MiB given to the printing process from OS
             0 MiB allocation reported by mallinfo(arena+hblkhd)
          4923 MiB available memory on the node where the printing process lives
------------------
     ethr =  9.95E-11,  avg # of iterations =  3.2

     total cpu time spent up to now is      106.6 secs

     End of self-consistent calculation

          k = 0.1667 0.1795 0.1644 ( 12087 PWs)   bands (ev):

   -14.2358 -14.2280 -14.2241 -14.2202 -14.2165 -14.2163 -14.2153 -14.2149
   -14.2056 -14.1997 -14.1985 -14.1980 -14.1947 -14.1909 -14.1771 -14.1729
   -14.1700 -14.1667 -14.1624 -14.1587  -6.2272  -5.9887  -5.3963  -5.0816
     0.1420   0.8837   1.5646   1.9883   2.7573   3.9206   4.0880   4.3200
     4.5370   4.5881   5.0814   5.3484   5.5583   5.8396   6.4293   6.7131

     occupation numbers 
     1.0000   1.0000   1.0000   1.0000   1.0000   1.0000   1.0000   1.0000
     1.0000   1.0000   1.0000   1.0000   1.0000   1.0000   1.0000   1.0000
     1.0000   1.0000   1.0000   1.0000   1.0000   1.0000   1.0000   1.0000
     1.0000   1.0000   1.0000   1.0000   1.0000   1.0000   1.0000   1.0000
     1.0000   1.0000   1.0000   1.0000   1.0000   1.0000   1.0000   1.0000

          k = 0.1667 0.1795 0.4931 ( 12067 PWs)   bands (ev):

   -14.2348 -14.2278 -14.2241 -14.2205 -14.2175 -14.2165 -14.2160 -14.2149
   -14.2039 -14.1996 -14.1990 -14.1971 -14.1934 -14.1895 -14.1773 -14.1735
   -14.1698 -14.1669 -14.1622 -14.1591  -6.1185  -5.8895  -5.3831  -5.0980
    -0.1836   0.5850   1.0979   1.6258   2.8370   3.9860   4.1946   4.6173
     4.8638   5.1000   5.1137   5.4521   5.9063   6.2117   6.3723   6.6745

     occupation numbers 
     1.0000   1.0000   1.0000   1.0000   1.0000   1.0000   1.0000   1.0000
     1.0000   1.0000   1.0000   1.0000   1.0000   1.0000   1.0000   1.0000
     1.0000   1.0000   1.0000   1.0000   1.0000   1.0000   1.0000   1.0000
     1.0000   1.0000   1.0000   1.0000   1.0000   1.0000   1.0000   1.0000
     1.0000   1.0000   1.0000   1.0000   1.0000   1.0000   1.0000   1.0000

          k = 0.1667 0.1795 0.8218 ( 12057 PWs)   bands (ev):

   -14.2329 -14.2278 -14.2242 -14.2214 -14.2184 -14.2178 -14.2160 -14.2152
   -14.2016 -14.1997 -14.1993 -14.1962 -14.1905 -14.1876 -14.1774 -14.1747
   -14.1692 -14.1673 -14.1619 -14.1598  -5.9256  -5.7146  -5.3946  -5.1565
    -0.5204   0.0719   0.6707   1.1276   3.1318   4.2181   4.4274   4.9514
     5.0281   5.2516   5.4507   5.6575   6.0615   6.5075   6.5572   6.9188

     occupation numbers 
     1.0000   1.0000   1.0000   1.0000   1.0000   1.0000   1.0000   1.0000
     1.0000   1.0000   1.0000   1.0000   1.0000   1.0000   1.0000   1.0000
     1.0000   1.0000   1.0000   1.0000   1.0000   1.0000   1.0000   1.0000
     1.0000   1.0000   1.0000   1.0000   1.0000   1.0000   1.0000   1.0000
     1.0000   1.0000   1.0000   1.0000   1.0000   1.0000   1.0000   1.0000

          k = 0.1667 0.1795 1.1505 ( 12034 PWs)   bands (ev):

   -14.2308 -14.2289 -14.2236 -14.2226 -14.2190 -14.2188 -14.2159 -14.2156
   -14.2009 -14.2005 -14.1976 -14.1963 -14.1878 -14.1868 -14.1770 -14.1760
   -14.1684 -14.1677 -14.1613 -14.1605  -5.7021  -5.5565  -5.4345  -5.2827
    -0.6228  -0.4035   0.5404   0.7149   3.6044   4.1212   4.7784   4.9929
     5.1844   5.2748   5.4512   5.7781   6.3477   6.6989   6.8369   6.9229

     occupation numbers 
     1.0000   1.0000   1.0000   1.0000   1.0000   1.0000   1.0000   1.0000
     1.0000   1.0000   1.0000   1.0000   1.0000   1.0000   1.0000   1.0000
     1.0000   1.0000   1.0000   1.0000   1.0000   1.0000   1.0000   1.0000
     1.0000   1.0000   1.0000   1.0000   1.0000   1.0000   1.0000   1.0000
     1.0000   1.0000   1.0000   1.0000   1.0000   1.0000   1.0000   1.0000

          k = 0.1667 0.5385 0.1644 ( 12071 PWs)   bands (ev):

   -14.2305 -14.2251 -14.2207 -14.2198 -14.2177 -14.2173 -14.2163 -14.2157
   -14.2059 -14.2031 -14.2029 -14.1980 -14.1923 -14.1879 -14.1743 -14.1724
   -14.1701 -14.1697 -14.1619 -14.1592  -6.0734  -5.8544  -5.3222  -5.0555
    -0.0265   0.6069   1.2510   1.3904   2.8702   3.8241   4.0937   4.3441
     4.6719   4.9105   5.0832   5.3730   5.6890   6.2345   6.4756   6.5946

     occupation numbers 
     1.0000   1.0000   1.0000   1.0000   1.0000   1.0000   1.0000   1.0000
     1.0000   1.0000   1.0000   1.0000   1.0000   1.0000   1.0000   1.0000
     1.0000   1.0000   1.0000   1.0000   1.0000   1.0000   1.0000   1.0000
     1.0000   1.0000   1.0000   1.0000   1.0000   1.0000   1.0000   1.0000
     1.0000   1.0000   1.0000   1.0000   1.0000   1.0000   1.0000   1.0000

          k = 0.1667 0.5385 0.4931 ( 12062 PWs)   bands (ev):

   -14.2300 -14.2251 -14.2215 -14.2210 -14.2181 -14.2177 -14.2161 -14.2158
   -14.2057 -14.2032 -14.2017 -14.1974 -14.1907 -14.1868 -14.1746 -14.1720
   -14.1708 -14.1697 -14.1618 -14.1595  -5.9703  -5.7611  -5.3077  -5.0651
    -0.1915   0.5120   0.9428   1.2897   3.0005   3.4276   3.6740   4.3425
     4.5510   5.0781   5.4476   5.5280   6.1640   6.2726   6.5018   6.6703

     occupation numbers 
     1.0000   1.0000   1.0000   1.0000   1.0000   1.0000   1.0000   1.0000
     1.0000   1.0000   1.0000   1.0000   1.0000   1.0000   1.0000   1.0000
     1.0000   1.0000   1.0000   1.0000   1.0000   1.0000   1.0000   1.0000
     1.0000   1.0000   1.0000   1.0000   1.0000   1.0000   1.0000   1.0000
     1.0000   1.0000   1.0000   1.0000   1.0000   1.0000   1.0000   1.0000

          k = 0.1667 0.5385 0.8218 ( 12046 PWs)   bands (ev):

   -14.2292 -14.2248 -14.2238 -14.2220 -14.2187 -14.2184 -14.2163 -14.2159
   -14.2052 -14.2037 -14.1997 -14.1967 -14.1880 -14.1853 -14.1747 -14.1724
   -14.1709 -14.1697 -14.1615 -14.1600  -5.7895  -5.5986  -5.3137  -5.1088
    -0.3889   0.1726   0.6997   1.0506   3.2571   3.3782   3.6219   4.2994
     4.3822   5.1581   5.2598   5.8184   6.0193   6.2359   6.4180   6.6394

     occupation numbers 
     1.0000   1.0000   1.0000   1.0000   1.0000   1.0000   1.0000   1.0000
     1.0000   1.0000   1.0000   1.0000   1.0000   1.0000   1.0000   1.0000
     1.0000   1.0000   1.0000   1.0000   1.0000   1.0000   1.0000   1.0000
     1.0000   1.0000   1.0000   1.0000   1.0000   1.0000   1.0000   1.0000
     1.0000   1.0000   1.0000   1.0000   1.0000   1.0000   1.0000   1.0000

          k = 0.1667 0.5385 1.1505 ( 12043 PWs)   bands (ev):

   -14.2280 -14.2261 -14.2242 -14.2232 -14.2190 -14.2190 -14.2164 -14.2162
   -14.2047 -14.2043 -14.1978 -14.1967 -14.1855 -14.1846 -14.1743 -14.1735
   -14.1702 -14.1698 -14.1610 -14.1605  -5.5840  -5.4537  -5.3460  -5.2134
    -0.4346  -0.2287   0.6534   0.7897   3.5673   3.6200   3.8539   4.1005
     4.3462   4.7022   5.3083   5.5955   5.8986   6.1255   6.3470   6.5179

     occupation numbers 
     1.0000   1.0000   1.0000   1.0000   1.0000   1.0000   1.0000   1.0000
     1.0000   1.0000   1.0000   1.0000   1.0000   1.0000   1.0000   1.0000
     1.0000   1.0000   1.0000   1.0000   1.0000   1.0000   1.0000   1.0000
     1.0000   1.0000   1.0000   1.0000   1.0000   1.0000   1.0000   1.0000
     1.0000   1.0000   1.0000   1.0000   1.0000   1.0000   1.0000   1.0000

          k = 0.1667 0.8975 0.1644 ( 12052 PWs)   bands (ev):

   -14.2256 -14.2235 -14.2215 -14.2211 -14.2196 -14.2150 -14.2135 -14.2131
   -14.2077 -14.2066 -14.2055 -14.1995 -14.1888 -14.1848 -14.1755 -14.1753
   -14.1696 -14.1667 -14.1608 -14.1596  -5.7973  -5.6238  -5.2332  -5.0653
    -0.2648   0.2315   0.5745   0.7697   3.2019   3.9470   4.2920   4.5516
     4.9718   5.0377   5.2503   5.4295   5.8492   6.2724   6.3541   6.6548

     occupation numbers 
     1.0000   1.0000   1.0000   1.0000   1.0000   1.0000   1.0000   1.0000
     1.0000   1.0000   1.0000   1.0000   1.0000   1.0000   1.0000   1.0000
     1.0000   1.0000   1.0000   1.0000   1.0000   1.0000   1.0000   1.0000
     1.0000   1.0000   1.0000   1.0000   1.0000   1.0000   1.0000   1.0000
     1.0000   1.0000   1.0000   1.0000   1.0000   1.0000   1.0000   1.0000

          k = 0.1667 0.8975 0.4931 ( 12057 PWs)   bands (ev):

   -14.2277 -14.2246 -14.2225 -14.2215 -14.2202 -14.2154 -14.2134 -14.2127
   -14.2078 -14.2067 -14.2036 -14.1990 -14.1873 -14.1840 -14.1750 -14.1748
   -14.1697 -14.1673 -14.1607 -14.1597  -5.7076  -5.5439  -5.2131  -5.0583
    -0.2295   0.3214   0.5878   0.7492   3.2015   3.3228   3.6174   4.1118
     4.5233   5.1177   5.2831   5.6440   5.7750   5.9743   6.2651   6.4602

     occupation numbers 
     1.0000   1.0000   1.0000   1.0000   1.0000   1.0000   1.0000   1.0000
     1.0000   1.0000   1.0000   1.0000   1.0000   1.0000   1.0000   1.0000
     1.0000   1.0000   1.0000   1.0000   1.0000   1.0000   1.0000   1.0000
     1.0000   1.0000   1.0000   1.0000   1.0000   1.0000   1.0000   1.0000
     1.0000   1.0000   1.0000   1.0000   1.0000   1.0000   1.0000   1.0000

          k = 0.1667 0.8975 0.8218 ( 12055 PWs)   bands (ev):

   -14.2296 -14.2272 -14.2239 -14.2232 -14.2196 -14.2162 -14.2133 -14.2127
   -14.2071 -14.2066 -14.2015 -14.1986 -14.1849 -14.1827 -14.1741 -14.1739
   -14.1698 -14.1681 -14.1606 -14.1599  -5.5546  -5.4090  -5.2032  -5.0681
    -0.1814   0.2874   0.6305   0.7898   2.8058   3.1092   3.5568   3.7534
     3.9736   4.6819   4.9778   5.2765   5.5629   5.7051   5.8907   6.3736

     occupation numbers 
     1.0000   1.0000   1.0000   1.0000   1.0000   1.0000   1.0000   1.0000
     1.0000   1.0000   1.0000   1.0000   1.0000   1.0000   1.0000   1.0000
     1.0000   1.0000   1.0000   1.0000   1.0000   1.0000   1.0000   1.0000
     1.0000   1.0000   1.0000   1.0000   1.0000   1.0000   1.0000   1.0000
     1.0000   1.0000   1.0000   1.0000   1.0000   1.0000   1.0000   1.0000

          k = 0.1667 0.8975 1.1505 ( 12055 PWs)   bands (ev):

   -14.2305 -14.2296 -14.2248 -14.2245 -14.2186 -14.2174 -14.2132 -14.2130
   -14.2066 -14.2064 -14.1998 -14.1988 -14.1828 -14.1821 -14.1734 -14.1733
   -14.1695 -14.1689 -14.1604 -14.1602  -5.3895  -5.2932  -5.2164  -5.1251
    -0.1008   0.0692   0.7528   0.8091   2.8137   3.1369   3.1737   3.5356
     3.9617   4.3764   4.6123   5.0179   5.1709   5.3978   5.9349   6.0938

     occupation numbers 
     1.0000   1.0000   1.0000   1.0000   1.0000   1.0000   1.0000   1.0000
     1.0000   1.0000   1.0000   1.0000   1.0000   1.0000   1.0000   1.0000
     1.0000   1.0000   1.0000   1.0000   1.0000   1.0000   1.0000   1.0000
     1.0000   1.0000   1.0000   1.0000   1.0000   1.0000   1.0000   1.0000
     1.0000   1.0000   1.0000   1.0000   1.0000   1.0000   1.0000   1.0000

          k = 0.1667 1.2565 0.1644 ( 12036 PWs)   bands (ev):

   -14.2263 -14.2248 -14.2240 -14.2230 -14.2154 -14.2128 -14.2112 -14.2103
   -14.2089 -14.2074 -14.2056 -14.2024 -14.1850 -14.1821 -14.1805 -14.1789
   -14.1647 -14.1629 -14.1610 -14.1607  -5.4697  -5.3793  -5.2313  -5.1974
    -0.3392  -0.0559   0.0789   0.2906   3.7254   4.1827   4.5144   4.7773
     4.9496   5.0279   5.3843   5.6048   5.9824   6.1192   6.2060   6.3468

     occupation numbers 
     1.0000   1.0000   1.0000   1.0000   1.0000   1.0000   1.0000   1.0000
     1.0000   1.0000   1.0000   1.0000   1.0000   1.0000   1.0000   1.0000
     1.0000   1.0000   1.0000   1.0000   1.0000   1.0000   1.0000   1.0000
     1.0000   1.0000   1.0000   1.0000   1.0000   1.0000   1.0000   1.0000
     1.0000   1.0000   1.0000   1.0000   1.0000   1.0000   1.0000   1.0000

          k = 0.1667 1.2565 0.4931 ( 12065 PWs)   bands (ev):

   -14.2284 -14.2268 -14.2257 -14.2247 -14.2153 -14.2130 -14.2110 -14.2104
   -14.2080 -14.2071 -14.2043 -14.2018 -14.1840 -14.1820 -14.1789 -14.1780
   -14.1648 -14.1634 -14.1609 -14.1607  -5.4036  -5.3208  -5.1962  -5.1624
    -0.1949   0.0820   0.2152   0.3640   3.4747   3.6804   3.9130   4.2067
     4.2865   4.7815   5.1373   5.3113   5.4288   5.7169   6.0365   6.3410

     occupation numbers 
     1.0000   1.0000   1.0000   1.0000   1.0000   1.0000   1.0000   1.0000
     1.0000   1.0000   1.0000   1.0000   1.0000   1.0000   1.0000   1.0000
     1.0000   1.0000   1.0000   1.0000   1.0000   1.0000   1.0000   1.0000
     1.0000   1.0000   1.0000   1.0000   1.0000   1.0000   1.0000   1.0000
     1.0000   1.0000   1.0000   1.0000   1.0000   1.0000   1.0000   1.0000

          k = 0.1667 1.2565 0.8218 ( 12058 PWs)   bands (ev):

   -14.2310 -14.2298 -14.2279 -14.2272 -14.2152 -14.2135 -14.2109 -14.2105
   -14.2070 -14.2066 -14.2029 -14.2013 -14.1824 -14.1813 -14.1769 -14.1765
   -14.1650 -14.1641 -14.1608 -14.1607  -5.2980  -5.2293  -5.1526  -5.1176
     0.0477   0.2918   0.4365   0.4884   2.8257   3.2471   3.3391   3.7484
     3.8082   4.2409   4.4474   4.9154   4.9948   5.2860   5.8907   6.0486

     occupation numbers 
     1.0000   1.0000   1.0000   1.0000   1.0000   1.0000   1.0000   1.0000
     1.0000   1.0000   1.0000   1.0000   1.0000   1.0000   1.0000   1.0000
     1.0000   1.0000   1.0000   1.0000   1.0000   1.0000   1.0000   1.0000
     1.0000   1.0000   1.0000   1.0000   1.0000   1.0000   1.0000   1.0000
     1.0000   1.0000   1.0000   1.0000   1.0000   1.0000   1.0000   1.0000

          k = 0.1667 1.2565 1.1505 ( 12060 PWs)   bands (ev):

   -14.2326 -14.2321 -14.2293 -14.2291 -14.2149 -14.2143 -14.2108 -14.2106
   -14.2063 -14.2061 -14.2019 -14.2013 -14.1810 -14.1806 -14.1755 -14.1754
   -14.1649 -14.1646 -14.1607 -14.1607  -5.1990  -5.1582  -5.1297  -5.1010
     0.2787   0.3784   0.6289   0.6517   2.5620   2.7595   3.0965   3.3073
     3.5589   3.6953   4.1304   4.4303   4.9876   5.1868   5.8100   5.8471

     occupation numbers 
     1.0000   1.0000   1.0000   1.0000   1.0000   1.0000   1.0000   1.0000
     1.0000   1.0000   1.0000   1.0000   1.0000   1.0000   1.0000   1.0000
     1.0000   1.0000   1.0000   1.0000   1.0000   1.0000   1.0000   1.0000
     1.0000   1.0000   1.0000   1.0000   1.0000   1.0000   1.0000   1.0000
     1.0000   1.0000   1.0000   1.0000   1.0000   1.0000   1.0000   1.0000

          k =-0.5000 0.1795 0.1644 ( 12074 PWs)   bands (ev):

   -14.2326 -14.2326 -14.2216 -14.2216 -14.2160 -14.2160 -14.2155 -14.2155
   -14.2023 -14.2023 -14.1990 -14.1990 -14.1923 -14.1923 -14.1753 -14.1753
   -14.1680 -14.1680 -14.1605 -14.1605  -6.1286  -6.1286  -5.2184  -5.2184
     0.4028   0.4028   1.8826   1.8826   3.3222   3.3222   4.2340   4.2340
     4.6149   4.6149   5.1558   5.1558   5.4903   5.4903   6.6108   6.6108

     occupation numbers 
     1.0000   1.0000   1.0000   1.0000   1.0000   1.0000   1.0000   1.0000
     1.0000   1.0000   1.0000   1.0000   1.0000   1.0000   1.0000   1.0000
     1.0000   1.0000   1.0000   1.0000   1.0000   1.0000   1.0000   1.0000
     1.0000   1.0000   1.0000   1.0000   1.0000   1.0000   1.0000   1.0000
     1.0000   1.0000   1.0000   1.0000   1.0000   1.0000   1.0000   1.0000

          k =-0.5000 0.1795 0.4931 ( 12078 PWs)   bands (ev):

   -14.2320 -14.2320 -14.2218 -14.2218 -14.2169 -14.2169 -14.2156 -14.2156
   -14.2009 -14.2009 -14.1993 -14.1993 -14.1909 -14.1909 -14.1756 -14.1756
   -14.1681 -14.1681 -14.1606 -14.1606  -6.0246  -6.0246  -5.2199  -5.2199
     0.0929   0.0929   1.4390   1.4390   3.4992   3.4992   4.2831   4.2831
     4.9562   4.9562   5.3141   5.3141   5.9783   5.9783   6.4882   6.4882

     occupation numbers 
     1.0000   1.0000   1.0000   1.0000   1.0000   1.0000   1.0000   1.0000
     1.0000   1.0000   1.0000   1.0000   1.0000   1.0000   1.0000   1.0000
     1.0000   1.0000   1.0000   1.0000   1.0000   1.0000   1.0000   1.0000
     1.0000   1.0000   1.0000   1.0000   1.0000   1.0000   1.0000   1.0000
     1.0000   1.0000   1.0000   1.0000   1.0000   1.0000   1.0000   1.0000

          k =-0.5000 0.1795 0.8218 ( 12048 PWs)   bands (ev):

   -14.2308 -14.2308 -14.2224 -14.2224 -14.2179 -14.2179 -14.2159 -14.2159
   -14.2000 -14.2000 -14.1986 -14.1986 -14.1889 -14.1889 -14.1761 -14.1761
   -14.1682 -14.1682 -14.1607 -14.1607  -5.8422  -5.8422  -5.2535  -5.2535
    -0.2745  -0.2745   0.9093   0.9093   3.8067   3.8067   4.5573   4.5573
     5.0947   5.0947   5.5650   5.5650   6.1950   6.1950   6.7080   6.7080

     occupation numbers 
     1.0000   1.0000   1.0000   1.0000   1.0000   1.0000   1.0000   1.0000
     1.0000   1.0000   1.0000   1.0000   1.0000   1.0000   1.0000   1.0000
     1.0000   1.0000   1.0000   1.0000   1.0000   1.0000   1.0000   1.0000
     1.0000   1.0000   1.0000   1.0000   1.0000   1.0000   1.0000   1.0000
     1.0000   1.0000   1.0000   1.0000   1.0000   1.0000   1.0000   1.0000

          k =-0.5000 0.1795 1.1505 ( 12046 PWs)   bands (ev):

   -14.2298 -14.2298 -14.2232 -14.2232 -14.2186 -14.2186 -14.2161 -14.2161
   -14.2003 -14.2003 -14.1972 -14.1972 -14.1874 -14.1874 -14.1764 -14.1764
   -14.1682 -14.1682 -14.1609 -14.1609  -5.6477  -5.6477  -5.3405  -5.3405
    -0.4921  -0.4921   0.5652   0.5652   4.2170   4.2170   4.8569   4.8569
     4.9279   4.9279   5.4044   5.4044   6.6038   6.6038   6.8725   6.8725

     occupation numbers 
     1.0000   1.0000   1.0000   1.0000   1.0000   1.0000   1.0000   1.0000
     1.0000   1.0000   1.0000   1.0000   1.0000   1.0000   1.0000   1.0000
     1.0000   1.0000   1.0000   1.0000   1.0000   1.0000   1.0000   1.0000
     1.0000   1.0000   1.0000   1.0000   1.0000   1.0000   1.0000   1.0000
     1.0000   1.0000   1.0000   1.0000   1.0000   1.0000   1.0000   1.0000

          k =-0.5000 0.5385 0.1644 ( 12096 PWs)   bands (ev):

   -14.2281 -14.2281 -14.2200 -14.2200 -14.2175 -14.2175 -14.2162 -14.2162
   -14.2031 -14.2031 -14.2021 -14.2021 -14.1896 -14.1896 -14.1732 -14.1732
   -14.1701 -14.1701 -14.1605 -14.1605  -5.9824  -5.9824  -5.1701  -5.1701
     0.2126   0.2126   1.3779   1.3779   3.4507   3.4507   4.0966   4.0966
     4.9230   4.9230   5.0904   5.0904   5.7665   5.7665   6.6268   6.6268

     occupation numbers 
     1.0000   1.0000   1.0000   1.0000   1.0000   1.0000   1.0000   1.0000
     1.0000   1.0000   1.0000   1.0000   1.0000   1.0000   1.0000   1.0000
     1.0000   1.0000   1.0000   1.0000   1.0000   1.0000   1.0000   1.0000
     1.0000   1.0000   1.0000   1.0000   1.0000   1.0000   1.0000   1.0000
     1.0000   1.0000   1.0000   1.0000   1.0000   1.0000   1.0000   1.0000

          k =-0.5000 0.5385 0.4931 ( 12060 PWs)   bands (ev):

   -14.2278 -14.2278 -14.2211 -14.2211 -14.2178 -14.2178 -14.2161 -14.2161
   -14.2033 -14.2033 -14.2009 -14.2009 -14.1884 -14.1884 -14.1733 -14.1733
   -14.1703 -14.1703 -14.1605 -14.1605  -5.8841  -5.8841  -5.1678  -5.1678
     0.0694   0.0694   1.1794   1.1794   3.4215   3.4215   3.9038   3.9038
     4.5571   4.5571   5.5992   5.5992   6.1710   6.1710   6.5858   6.5858

     occupation numbers 
     1.0000   1.0000   1.0000   1.0000   1.0000   1.0000   1.0000   1.0000
     1.0000   1.0000   1.0000   1.0000   1.0000   1.0000   1.0000   1.0000
     1.0000   1.0000   1.0000   1.0000   1.0000   1.0000   1.0000   1.0000
     1.0000   1.0000   1.0000   1.0000   1.0000   1.0000   1.0000   1.0000
     1.0000   1.0000   1.0000   1.0000   1.0000   1.0000   1.0000   1.0000

          k =-0.5000 0.5385 0.8218 ( 12052 PWs)   bands (ev):

   -14.2273 -14.2273 -14.2230 -14.2230 -14.2184 -14.2184 -14.2160 -14.2160
   -14.2035 -14.2035 -14.1993 -14.1993 -14.1864 -14.1864 -14.1735 -14.1735
   -14.1705 -14.1705 -14.1605 -14.1605  -5.7136  -5.7136  -5.1917  -5.1917
    -0.1538  -0.1538   0.8895   0.8895   3.4203   3.4203   4.0731   4.0731
     4.4320   4.4320   5.6217   5.6217   6.0373   6.0373   6.5507   6.5507

     occupation numbers 
     1.0000   1.0000   1.0000   1.0000   1.0000   1.0000   1.0000   1.0000
     1.0000   1.0000   1.0000   1.0000   1.0000   1.0000   1.0000   1.0000
     1.0000   1.0000   1.0000   1.0000   1.0000   1.0000   1.0000   1.0000
     1.0000   1.0000   1.0000   1.0000   1.0000   1.0000   1.0000   1.0000
     1.0000   1.0000   1.0000   1.0000   1.0000   1.0000   1.0000   1.0000

          k =-0.5000 0.5385 1.1505 ( 12030 PWs)   bands (ev):

   -14.2264 -14.2264 -14.2249 -14.2249 -14.2188 -14.2188 -14.2160 -14.2160
   -14.2038 -14.2038 -14.1981 -14.1981 -14.1848 -14.1848 -14.1737 -14.1737
   -14.1705 -14.1705 -14.1605 -14.1605  -5.5351  -5.5351  -5.2637  -5.2637
    -0.3136  -0.3136   0.6715   0.6715   3.6558   3.6558   4.0242   4.0242
     4.6927   4.6927   5.1942   5.1942   5.8730   5.8730   6.3609   6.3609

     occupation numbers 
     1.0000   1.0000   1.0000   1.0000   1.0000   1.0000   1.0000   1.0000
     1.0000   1.0000   1.0000   1.0000   1.0000   1.0000   1.0000   1.0000
     1.0000   1.0000   1.0000   1.0000   1.0000   1.0000   1.0000   1.0000
     1.0000   1.0000   1.0000   1.0000   1.0000   1.0000   1.0000   1.0000
     1.0000   1.0000   1.0000   1.0000   1.0000   1.0000   1.0000   1.0000

          k =-0.5000 0.8975 0.1644 ( 12072 PWs)   bands (ev):

   -14.2250 -14.2250 -14.2208 -14.2208 -14.2176 -14.2176 -14.2137 -14.2137
   -14.2066 -14.2066 -14.2028 -14.2028 -14.1865 -14.1865 -14.1755 -14.1755
   -14.1681 -14.1681 -14.1601 -14.1601  -5.7241  -5.7241  -5.1354  -5.1354
    -0.0575  -0.0575   0.6854   0.6854   3.7414   3.7414   4.2715   4.2715
     5.0904   5.0904   5.2888   5.2888   5.8226   5.8226   6.5240   6.5240

     occupation numbers 
     1.0000   1.0000   1.0000   1.0000   1.0000   1.0000   1.0000   1.0000
     1.0000   1.0000   1.0000   1.0000   1.0000   1.0000   1.0000   1.0000
     1.0000   1.0000   1.0000   1.0000   1.0000   1.0000   1.0000   1.0000
     1.0000   1.0000   1.0000   1.0000   1.0000   1.0000   1.0000   1.0000
     1.0000   1.0000   1.0000   1.0000   1.0000   1.0000   1.0000   1.0000

          k =-0.5000 0.8975 0.4931 ( 12038 PWs)   bands (ev):

   -14.2264 -14.2264 -14.2220 -14.2220 -14.2179 -14.2179 -14.2132 -14.2132
   -14.2062 -14.2062 -14.2021 -14.2021 -14.1853 -14.1853 -14.1751 -14.1751
   -14.1684 -14.1684 -14.1602 -14.1602  -5.6391  -5.6391  -5.1221  -5.1221
    -0.0066  -0.0066   0.6964   0.6964   3.3253   3.3253   4.0314   4.0314
     4.4978   4.4978   5.5408   5.5408   5.7307   5.7307   6.4211   6.4211

     occupation numbers 
     1.0000   1.0000   1.0000   1.0000   1.0000   1.0000   1.0000   1.0000
     1.0000   1.0000   1.0000   1.0000   1.0000   1.0000   1.0000   1.0000
     1.0000   1.0000   1.0000   1.0000   1.0000   1.0000   1.0000   1.0000
     1.0000   1.0000   1.0000   1.0000   1.0000   1.0000   1.0000   1.0000
     1.0000   1.0000   1.0000   1.0000   1.0000   1.0000   1.0000   1.0000

          k =-0.5000 0.8975 0.8218 ( 12038 PWs)   bands (ev):

   -14.2283 -14.2283 -14.2238 -14.2238 -14.2182 -14.2182 -14.2127 -14.2127
   -14.2058 -14.2058 -14.2011 -14.2011 -14.1834 -14.1834 -14.1744 -14.1744
   -14.1688 -14.1688 -14.1602 -14.1602  -5.4959  -5.4959  -5.1216  -5.1216
     0.0212   0.0212   0.7216   0.7216   2.9650   2.9650   3.7047   3.7047
     4.3673   4.3673   5.0095   5.0095   5.4953   5.4953   6.2081   6.2081

     occupation numbers 
     1.0000   1.0000   1.0000   1.0000   1.0000   1.0000   1.0000   1.0000
     1.0000   1.0000   1.0000   1.0000   1.0000   1.0000   1.0000   1.0000
     1.0000   1.0000   1.0000   1.0000   1.0000   1.0000   1.0000   1.0000
     1.0000   1.0000   1.0000   1.0000   1.0000   1.0000   1.0000   1.0000
     1.0000   1.0000   1.0000   1.0000   1.0000   1.0000   1.0000   1.0000

          k =-0.5000 0.8975 1.1505 ( 12044 PWs)   bands (ev):

   -14.2297 -14.2297 -14.2252 -14.2252 -14.2184 -14.2184 -14.2126 -14.2126
   -14.2057 -14.2057 -14.2003 -14.2003 -14.1819 -14.1819 -14.1739 -14.1739
   -14.1691 -14.1691 -14.1602 -14.1602  -5.3530  -5.3530  -5.1592  -5.1592
    -0.0041  -0.0041   0.7540   0.7540   2.9729   2.9729   3.3076   3.3076
     4.3526   4.3526   4.6811   4.6811   5.3797   5.3797   5.8479   5.8479

     occupation numbers 
     1.0000   1.0000   1.0000   1.0000   1.0000   1.0000   1.0000   1.0000
     1.0000   1.0000   1.0000   1.0000   1.0000   1.0000   1.0000   1.0000
     1.0000   1.0000   1.0000   1.0000   1.0000   1.0000   1.0000   1.0000
     1.0000   1.0000   1.0000   1.0000   1.0000   1.0000   1.0000   1.0000
     1.0000   1.0000   1.0000   1.0000   1.0000   1.0000   1.0000   1.0000

          k =-0.5000 1.2565 0.1644 ( 12050 PWs)   bands (ev):

   -14.2253 -14.2253 -14.2239 -14.2239 -14.2133 -14.2133 -14.2122 -14.2122
   -14.2068 -14.2068 -14.2046 -14.2046 -14.1834 -14.1834 -14.1798 -14.1798
   -14.1638 -14.1638 -14.1609 -14.1609  -5.4299  -5.4299  -5.2092  -5.2092
    -0.1509  -0.1509   0.1107   0.1107   4.2125   4.2125   4.5539   4.5539
     5.0334   5.0334   5.2457   5.2457   5.9362   5.9362   6.2444   6.2444

     occupation numbers 
     1.0000   1.0000   1.0000   1.0000   1.0000   1.0000   1.0000   1.0000
     1.0000   1.0000   1.0000   1.0000   1.0000   1.0000   1.0000   1.0000
     1.0000   1.0000   1.0000   1.0000   1.0000   1.0000   1.0000   1.0000
     1.0000   1.0000   1.0000   1.0000   1.0000   1.0000   1.0000   1.0000
     1.0000   1.0000   1.0000   1.0000   1.0000   1.0000   1.0000   1.0000

          k =-0.5000 1.2565 0.4931 ( 12078 PWs)   bands (ev):

   -14.2272 -14.2272 -14.2256 -14.2256 -14.2137 -14.2137 -14.2120 -14.2120
   -14.2060 -14.2060 -14.2040 -14.2040 -14.1823 -14.1823 -14.1791 -14.1791
   -14.1639 -14.1639 -14.1609 -14.1609  -5.3674  -5.3674  -5.1743  -5.1743
    -0.0152  -0.0152   0.2261   0.2261   3.6170   3.6170   4.1099   4.1099
     4.6233   4.6233   5.0623   5.0623   5.5720   5.5720   5.9989   5.9989

     occupation numbers 
     1.0000   1.0000   1.0000   1.0000   1.0000   1.0000   1.0000   1.0000
     1.0000   1.0000   1.0000   1.0000   1.0000   1.0000   1.0000   1.0000
     1.0000   1.0000   1.0000   1.0000   1.0000   1.0000   1.0000   1.0000
     1.0000   1.0000   1.0000   1.0000   1.0000   1.0000   1.0000   1.0000
     1.0000   1.0000   1.0000   1.0000   1.0000   1.0000   1.0000   1.0000

          k =-0.5000 1.2565 0.8218 ( 12066 PWs)   bands (ev):

   -14.2298 -14.2298 -14.2281 -14.2281 -14.2142 -14.2142 -14.2119 -14.2119
   -14.2050 -14.2050 -14.2031 -14.2031 -14.1806 -14.1806 -14.1778 -14.1778
   -14.1641 -14.1641 -14.1610 -14.1610  -5.2689  -5.2689  -5.1299  -5.1299
     0.1916   0.1916   0.4264   0.4264   3.0324   3.0324   3.5288   3.5288
     4.0736   4.0736   4.5216   4.5216   5.4169   5.4169   5.7826   5.7826

     occupation numbers 
     1.0000   1.0000   1.0000   1.0000   1.0000   1.0000   1.0000   1.0000
     1.0000   1.0000   1.0000   1.0000   1.0000   1.0000   1.0000   1.0000
     1.0000   1.0000   1.0000   1.0000   1.0000   1.0000   1.0000   1.0000
     1.0000   1.0000   1.0000   1.0000   1.0000   1.0000   1.0000   1.0000
     1.0000   1.0000   1.0000   1.0000   1.0000   1.0000   1.0000   1.0000

          k =-0.5000 1.2565 1.1505 ( 12062 PWs)   bands (ev):

   -14.2315 -14.2315 -14.2298 -14.2298 -14.2146 -14.2146 -14.2121 -14.2121
   -14.2044 -14.2044 -14.2025 -14.2025 -14.1794 -14.1794 -14.1769 -14.1769
   -14.1642 -14.1642 -14.1610 -14.1610  -5.1828  -5.1828  -5.1111  -5.1111
     0.3367   0.3367   0.6230   0.6230   2.8076   2.8076   3.0574   3.0574
     3.6841   3.6841   4.0076   4.0076   5.5131   5.5131   5.6925   5.6925

     occupation numbers 
     1.0000   1.0000   1.0000   1.0000   1.0000   1.0000   1.0000   1.0000
     1.0000   1.0000   1.0000   1.0000   1.0000   1.0000   1.0000   1.0000
     1.0000   1.0000   1.0000   1.0000   1.0000   1.0000   1.0000   1.0000
     1.0000   1.0000   1.0000   1.0000   1.0000   1.0000   1.0000   1.0000
     1.0000   1.0000   1.0000   1.0000   1.0000   1.0000   1.0000   1.0000

     highest occupied level (ev):     6.9229

!    total energy              =    -827.74462222 Ry
     estimated scf accuracy    <          3.5E-10 Ry

     The total energy is the sum of the following terms:
     one-electron contribution =    -274.47821606 Ry
     hartree contribution      =     185.08988721 Ry
     xc contribution           =    -308.84163304 Ry
     ewald contribution        =    -429.39752957 Ry
     DFT-D3 Dispersion         =      -0.11713076 Ry

     convergence has been achieved in  12 iterations

     Forces acting on atoms (cartesian axes, Ry/au):

     atom    1 type  2   force =    -0.00856312    0.00000000   -0.00037499
     atom    2 type  1   force =     0.00947683    0.00000000    0.00161673
     atom    3 type  2   force =     0.00856312   -0.00000000   -0.00037499
     atom    4 type  1   force =    -0.00947683    0.00000000    0.00161673
     atom    5 type  2   force =    -0.00856312    0.00000000    0.00037499
     atom    6 type  1   force =     0.00947683   -0.00000000   -0.00161673
     atom    7 type  2   force =     0.00856312   -0.00000000    0.00037499
     atom    8 type  1   force =    -0.00947683    0.00000000   -0.00161673
     The non-local contrib.  to forces
     atom    1 type  2   force =    -0.09403317    0.00000000    0.11626868
     atom    2 type  1   force =     0.33550670    0.00000000    0.30239650
     atom    3 type  2   force =     0.09403317    0.00000000    0.11626868
     atom    4 type  1   force =    -0.33550670    0.00000000    0.30239650
     atom    5 type  2   force =    -0.09403317    0.00000000   -0.11626868
     atom    6 type  1   force =     0.33550670    0.00000000   -0.30239650
     atom    7 type  2   force =     0.09403317    0.00000000   -0.11626868
     atom    8 type  1   force =    -0.33550670    0.00000000   -0.30239650
     The ionic contribution  to forces
     atom    1 type  2   force =     0.89643463   -0.00000000   -1.43400103
     atom    2 type  1   force =    -0.57120767    0.00000000   -0.90197401
     atom    3 type  2   force =    -0.89643463    0.00000000   -1.43400103
     atom    4 type  1   force =     0.57120767    0.00000000   -0.90197401
     atom    5 type  2   force =     0.89643463    0.00000000    1.43400103
     atom    6 type  1   force =    -0.57120767    0.00000000    0.90197401
     atom    7 type  2   force =    -0.89643463    0.00000000    1.43400103
     atom    8 type  1   force =     0.57120767    0.00000000    0.90197401
     The local contribution  to forces
     atom    1 type  2   force =    -0.82143023    0.00000000    1.32815083
     atom    2 type  1   force =     0.25275470   -0.00000000    0.60453874
     atom    3 type  2   force =     0.82143023    0.00000000    1.32815083
     atom    4 type  1   force =    -0.25275470    0.00000000    0.60453874
     atom    5 type  2   force =    -0.82143023   -0.00000000   -1.32815083
     atom    6 type  1   force =     0.25275470   -0.00000000   -0.60453874
     atom    7 type  2   force =     0.82143023    0.00000000   -1.32815083
     atom    8 type  1   force =    -0.25275470    0.00000000   -0.60453874
     The core correction contribution to forces
     atom    1 type  2   force =     0.01084791    0.00000000   -0.01282682
     atom    2 type  1   force =    -0.00743898   -0.00000000   -0.00462703
     atom    3 type  2   force =    -0.01084791   -0.00000000   -0.01282682
     atom    4 type  1   force =     0.00743898   -0.00000000   -0.00462703
     atom    5 type  2   force =     0.01084791   -0.00000000    0.01282682
     atom    6 type  1   force =    -0.00743898    0.00000000    0.00462703
     atom    7 type  2   force =    -0.01084791   -0.00000000    0.01282682
     atom    8 type  1   force =     0.00743898   -0.00000000    0.00462703
     The Hubbard contrib.    to forces
     atom    1 type  2   force =     0.00000000    0.00000000    0.00000000
     atom    2 type  1   force =     0.00000000    0.00000000    0.00000000
     atom    3 type  2   force =     0.00000000    0.00000000    0.00000000
     atom    4 type  1   force =     0.00000000    0.00000000    0.00000000
     atom    5 type  2   force =     0.00000000    0.00000000    0.00000000
     atom    6 type  1   force =     0.00000000    0.00000000    0.00000000
     atom    7 type  2   force =     0.00000000    0.00000000    0.00000000
     atom    8 type  1   force =     0.00000000    0.00000000    0.00000000
     The SCF correction term to forces
     atom    1 type  2   force =     0.00000143   -0.00000000   -0.00000111
     atom    2 type  1   force =     0.00000295    0.00000000    0.00000444
     atom    3 type  2   force =    -0.00000143   -0.00000000   -0.00000111
     atom    4 type  1   force =    -0.00000295    0.00000000    0.00000444
     atom    5 type  2   force =     0.00000143   -0.00000000    0.00000111
     atom    6 type  1   force =     0.00000295    0.00000000   -0.00000444
     atom    7 type  2   force =    -0.00000143    0.00000000    0.00000111
     atom    8 type  1   force =    -0.00000295    0.00000000   -0.00000444

     DFT-D3 dispersion contribution to forces:
     atom    1 type  2   force =    -0.00038369    0.00000000    0.00203446
     atom    2 type  1   force =    -0.00014087   -0.00000000    0.00127807
     atom    3 type  2   force =     0.00038369   -0.00000000    0.00203446
     atom    4 type  1   force =     0.00014087   -0.00000000    0.00127807
     atom    5 type  2   force =    -0.00038369   -0.00000000   -0.00203446
     atom    6 type  1   force =    -0.00014087    0.00000000   -0.00127807
     atom    7 type  2   force =     0.00038369   -0.00000000   -0.00203446
     atom    8 type  1   force =     0.00014087    0.00000000   -0.00127807

     Total force =     0.025760     Total SCF correction =     0.000011

     DFT-D3 dispersion Force =     0.004874

     Writing all to output data dir ./tmp/SnSe_pnma.save/ :
     XML data file, charge density, pseudopotentials, collected wavefunctions
 
     init_run     :      3.58s CPU      3.95s WALL (       1 calls)
     electrons    :     97.46s CPU    102.49s WALL (       1 calls)
     forces       :      1.45s CPU      1.68s WALL (       1 calls)
     force_dftd3  :      0.05s CPU      0.05s WALL (       1 calls)

     Called by init_run:
     wfcinit      :      2.36s CPU      2.41s WALL (       1 calls)
     wfcinit:atom :      0.03s CPU      0.03s WALL (      11 calls)
     wfcinit:wfcr :      2.11s CPU      2.14s WALL (      11 calls)
     potinit      :      0.31s CPU      0.36s WALL (       1 calls)
     hinit0       :      0.28s CPU      0.32s WALL (       1 calls)

     Called by electrons:
     c_bands      :     71.83s CPU     72.25s WALL (      12 calls)
     sum_band     :     18.24s CPU     20.47s WALL (      12 calls)
     v_of_rho     :      2.84s CPU      3.04s WALL (      13 calls)
     v_h          :      0.24s CPU      0.24s WALL (      13 calls)
     v_xc         :      2.79s CPU      3.03s WALL (      14 calls)
     newd         :      4.61s CPU      6.94s WALL (      13 calls)
     mix_rho      :      0.34s CPU      0.36s WALL (      12 calls)
     energy_dftd3 :      0.04s CPU      0.04s WALL (       1 calls)

     Called by c_bands:
     init_us_2    :      1.95s CPU      1.96s WALL (     286 calls)
     cegterg      :     65.45s CPU     65.74s WALL (     132 calls)

     Called by sum_band:
     sum_band:wei :      0.00s CPU      0.00s WALL (      12 calls)
     sum_band:loo :     13.13s CPU     13.19s WALL (      12 calls)
     sum_band:buf :      0.13s CPU      0.13s WALL (     132 calls)
     sum_band:ini :      0.88s CPU      0.88s WALL (     132 calls)
     sum_band:cal :      1.09s CPU      1.09s WALL (     132 calls)
     sum_band:bec :      0.01s CPU      0.01s WALL (     132 calls)
     addusdens    :      4.57s CPU      6.70s WALL (      12 calls)
                                        0.00s GPU  (      12 calls)
     addusd:skk   :      0.02s CPU      0.04s WALL (      24 calls)
                                        0.00s GPU  (      24 calls)

     Called by *egterg:
     cdiaghg      :      0.97s CPU      0.97s WALL (     609 calls)
     cegterg:over :      2.65s CPU      2.66s WALL (     477 calls)
     cegterg:upda :      1.59s CPU      1.60s WALL (     477 calls)
     cegterg:last :      4.12s CPU      4.12s WALL (     332 calls)
     h_psi        :     52.43s CPU     52.72s WALL (     620 calls)
     s_psi        :      4.06s CPU      4.06s WALL (     620 calls)
     g_psi        :      0.17s CPU      0.17s WALL (     477 calls)

     Called by h_psi:
     h_psi:calbec :      3.60s CPU      3.61s WALL (     620 calls)
     vloc_psi     :     44.44s CPU     44.70s WALL (     620 calls)
     add_vuspsi   :      4.03s CPU      4.04s WALL (     620 calls)

     General routines
     calbec       :      5.05s CPU      5.06s WALL (     796 calls)
     fft          :      1.64s CPU      1.72s WALL (     178 calls)
     ffts         :      0.04s CPU      0.05s WALL (      25 calls)
     fftw         :     28.96s CPU     29.10s WALL (   37496 calls)
     interpolate  :      0.16s CPU      0.17s WALL (      13 calls)
 
     Parallel routines
 
     PWSCF        :   1m42.77s CPU   1m49.36s WALL

 
   This run was terminated on:  18:27:22  20May2026            

=------------------------------------------------------------------------------=
   JOB DONE.
=------------------------------------------------------------------------------=
