
     Program PWSCF v.7.3.1 starts on 20May2026 at 14:21:28 

     This program is part of the open-source Quantum ESPRESSO suite
     for quantum simulation of materials; please cite
         "P. Giannozzi et al., J. Phys.:Condens. Matter 21 395502 (2009);
         "P. Giannozzi et al., J. Phys.:Condens. Matter 29 465901 (2017);
         "P. Giannozzi et al., J. Chem. Phys. 152 154105 (2020);
          URL http://www.quantum-espresso.org", 
     in publications or presentations arising from this work. More details at
     http://www.quantum-espresso.org/quote

     Parallel version (MPI & OpenMP), running on       6 processor cores
     Number of MPI processes:                 6
     Threads/MPI process:                     1

     MPI processes distributed on     1 nodes
     10754 MiB available memory on the printing compute node when the environment starts
 
     Waiting for input...
     Reading input from standard input

     Current dimensions of program PWSCF are:
     Max number of different atomic species (ntypx) = 10
     Max number of k-points (npk) =  40000
     Max angular momentum in pseudopotentials (lmaxx) =  4
 
     K-points division:     npool     =       3
     R & G space division:  proc/nbgrp/npool/nimage =       2
     Subspace diagonalization in iterative solution of the eigenvalue problem:
     a serial algorithm will be used

 
     Parallelization info
     --------------------
     sticks:   dense  smooth     PW     G-vecs:    dense   smooth      PW
     Min        2154     858    256                68163    17208    2780
     Max        2155     859    257                68164    17211    2781
     Sum        4309    1717    513               136327    34419    5561
 
     Using Slab Decomposition
 


     bravais-lattice index     =            8
     lattice parameter (alat)  =      22.8846  a.u.
     unit-cell volume          =    1552.9541 (a.u.)^3
     number of atoms/cell      =            8
     number of atomic types    =            2
     number of electrons       =        80.00
     number of Kohn-Sham states=           40
     kinetic-energy cutoff     =      30.0000  Ry
     charge density cutoff     =     300.0000  Ry
     scf convergence threshold =      1.0E-08
     mixing beta               =       0.7000
     number of iterations used =            8  plain     mixing
     Exchange-correlation= SLA  PW   PBE  PBE
                           (   1   4   3   4   0   0   0)

     celldm(1)=  22.884583  celldm(2)=   0.344459  celldm(3)=   0.376177
     celldm(4)=   0.000000  celldm(5)=   0.000000  celldm(6)=   0.000000

     crystal axes: (cart. coord. in units of alat)
               a(1) = (   1.000000   0.000000   0.000000 )  
               a(2) = (   0.000000   0.344459   0.000000 )  
               a(3) = (   0.000000   0.000000   0.376177 )  

     reciprocal axes: (cart. coord. in units 2 pi/alat)
               b(1) = (  1.000000  0.000000  0.000000 )  
               b(2) = (  0.000000  2.903102  0.000000 )  
               b(3) = (  0.000000  0.000000  2.658325 )  


     PseudoPot. # 1 for Sn read from file:
     ../pseudo/Sn_pbe_v1.uspp.F.UPF
     MD5 check sum: 4cf58ce39ec5d5d420df3dd08604eb00
     Pseudo is Ultrasoft + core correction, Zval = 14.0
     Generated by new atomic code, or converted to UPF format
     Using radial grid of  891 points,  6 beta functions with: 
                l(1) =   0
                l(2) =   0
                l(3) =   1
                l(4) =   1
                l(5) =   2
                l(6) =   2
     Q(r) pseudized with  6 coefficients,  rinner =    1.200   1.200   1.200
                                                       1.200   1.200

     PseudoPot. # 2 for Se read from file:
     ../pseudo/Se_pbe_v1.uspp.F.UPF
     MD5 check sum: 1b3568f3a8ae88f9a2a0ad0698632c85
     Pseudo is Ultrasoft + core correction, Zval =  6.0
     Generated by new atomic code, or converted to UPF format
     Using radial grid of  877 points,  6 beta functions with: 
                l(1) =   0
                l(2) =   0
                l(3) =   1
                l(4) =   1
                l(5) =   2
                l(6) =   2
     Q(r) pseudized with  8 coefficients,  rinner =    1.300   1.300   1.300
                                                       1.300   1.300

     atomic species   valence    mass     pseudopotential
     Sn               14.00   118.71000     Sn( 1.00)
     Se                6.00    78.97100     Se( 1.00)

      8 Sym. Ops., with inversion, found ( 6 have fractional translation)


                                    s                        frac. trans.

      isym =  1     identity                                     

 cryst.   s( 1) = (     1          0          0      )
                  (     0          1          0      )
                  (     0          0          1      )

 cart.    s( 1) = (  1.0000000  0.0000000  0.0000000 )
                  (  0.0000000  1.0000000  0.0000000 )
                  (  0.0000000  0.0000000  1.0000000 )


      isym =  2     180 deg rotation - cart. axis [0,0,1]        

 cryst.   s( 2) = (    -1          0          0      )    f =(  0.5000000 )
                  (     0         -1          0      )       (  0.0000000 )
                  (     0          0          1      )       ( -0.5000000 )

 cart.    s( 2) = ( -1.0000000  0.0000000  0.0000000 )    f =(  0.5000000 )
                  (  0.0000000 -1.0000000  0.0000000 )       (  0.0000000 )
                  (  0.0000000  0.0000000  1.0000000 )       ( -0.1880884 )


      isym =  3     180 deg rotation - cart. axis [0,1,0]        

 cryst.   s( 3) = (    -1          0          0      )    f =(  0.0000000 )
                  (     0          1          0      )       ( -0.5000000 )
                  (     0          0         -1      )       (  0.0000000 )

 cart.    s( 3) = ( -1.0000000  0.0000000  0.0000000 )    f =(  0.0000000 )
                  (  0.0000000  1.0000000  0.0000000 )       ( -0.1722296 )
                  (  0.0000000  0.0000000 -1.0000000 )       (  0.0000000 )


      isym =  4     180 deg rotation - cart. axis [1,0,0]        

 cryst.   s( 4) = (     1          0          0      )    f =(  0.5000000 )
                  (     0         -1          0      )       (  0.5000000 )
                  (     0          0         -1      )       (  0.5000000 )

 cart.    s( 4) = (  1.0000000  0.0000000  0.0000000 )    f =(  0.5000000 )
                  (  0.0000000 -1.0000000  0.0000000 )       (  0.1722296 )
                  (  0.0000000  0.0000000 -1.0000000 )       (  0.1880884 )


      isym =  5     inversion                                    

 cryst.   s( 5) = (    -1          0          0      )
                  (     0         -1          0      )
                  (     0          0         -1      )

 cart.    s( 5) = ( -1.0000000  0.0000000  0.0000000 )
                  (  0.0000000 -1.0000000  0.0000000 )
                  (  0.0000000  0.0000000 -1.0000000 )


      isym =  6     inv. 180 deg rotation - cart. axis [0,0,1]   

 cryst.   s( 6) = (     1          0          0      )    f =(  0.5000000 )
                  (     0          1          0      )       (  0.0000000 )
                  (     0          0         -1      )       (  0.5000000 )

 cart.    s( 6) = (  1.0000000  0.0000000  0.0000000 )    f =(  0.5000000 )
                  (  0.0000000  1.0000000  0.0000000 )       (  0.0000000 )
                  (  0.0000000  0.0000000 -1.0000000 )       (  0.1880884 )


      isym =  7     inv. 180 deg rotation - cart. axis [0,1,0]   

 cryst.   s( 7) = (     1          0          0      )    f =(  0.0000000 )
                  (     0         -1          0      )       (  0.5000000 )
                  (     0          0          1      )       (  0.0000000 )

 cart.    s( 7) = (  1.0000000  0.0000000  0.0000000 )    f =(  0.0000000 )
                  (  0.0000000 -1.0000000  0.0000000 )       (  0.1722296 )
                  (  0.0000000  0.0000000  1.0000000 )       (  0.0000000 )


      isym =  8     inv. 180 deg rotation - cart. axis [1,0,0]   

 cryst.   s( 8) = (    -1          0          0      )    f =(  0.5000000 )
                  (     0          1          0      )       ( -0.5000000 )
                  (     0          0          1      )       ( -0.5000000 )

 cart.    s( 8) = ( -1.0000000  0.0000000  0.0000000 )    f =(  0.5000000 )
                  (  0.0000000  1.0000000  0.0000000 )       ( -0.1722296 )
                  (  0.0000000  0.0000000  1.0000000 )       ( -0.1880884 )


     point group D_2h (mmm) 
     there are  8 classes
     the character table:

       E     C2    C2'   C2''  i     s_v   s_v'  s_v''
A_g    1.00  1.00  1.00  1.00  1.00  1.00  1.00  1.00
B_1g   1.00  1.00 -1.00 -1.00  1.00  1.00 -1.00 -1.00
B_2g   1.00 -1.00  1.00 -1.00  1.00 -1.00  1.00 -1.00
B_3g   1.00 -1.00 -1.00  1.00  1.00 -1.00 -1.00  1.00
A_u    1.00  1.00  1.00  1.00 -1.00 -1.00 -1.00 -1.00
B_1u   1.00  1.00 -1.00 -1.00 -1.00 -1.00  1.00  1.00
B_2u   1.00 -1.00  1.00 -1.00 -1.00  1.00 -1.00  1.00
B_3u   1.00 -1.00 -1.00  1.00 -1.00  1.00  1.00 -1.00

     the symmetry operations in each class and the name of the first element:

     E        1
          identity                                               
     C2       2
          180 deg rotation - cart. axis [0,0,1]                  
     C2'      4
          180 deg rotation - cart. axis [1,0,0]                  
     C2''     3
          180 deg rotation - cart. axis [0,1,0]                  
     i        5
          inversion                                              
     s_v      6
          inv. 180 deg rotation - cart. axis [0,0,1]             
     s_v'     8
          inv. 180 deg rotation - cart. axis [1,0,0]             
     s_v''    7
          inv. 180 deg rotation - cart. axis [0,1,0]             

   Cartesian axes

     site n.     atom                  positions (alat units)
         1        Se     tau(   1) = (   0.8549563   0.0861148   0.1817867  )
         2        Sn     tau(   2) = (   0.1165395   0.0861148   0.0422398  )
         3        Se     tau(   3) = (   0.6450437   0.2583443   0.3698750  )
         4        Sn     tau(   4) = (   0.3834605   0.2583443   0.2303281  )
         5        Se     tau(   5) = (   0.3549563   0.0861148   0.0063017  )
         6        Sn     tau(   6) = (   0.6165395   0.0861148   0.1458486  )
         7        Se     tau(   7) = (   0.1450437   0.2583443   0.1943900  )
         8        Sn     tau(   8) = (   0.8834605   0.2583443   0.3339370  )

     --------------------------------------------
     DFT-D3 Dispersion Correction (3-body terms):
     --------------------------------------------
       Reference C6 values for interpolation: 

         atom   Coordination number   C6
         Se         0.000           427.35
         Se         0.990           427.57
         Se         1.981           421.05
         Sn         0.000          1255.14
         Sn         0.951          1084.09
         Sn         1.950          1010.83
         Sn         2.926           818.29
         Sn         3.912           672.20

       Values used:

         atom   Coordination number  R0_AB[au]  C6      C8
         Se         3.196            3.332    421.05  29958.36
         Sn         3.731            3.957    682.95  85718.16
         Se         3.196            3.332    421.05  29958.36
         Sn         3.731            3.957    682.95  85718.16
         Se         3.196            3.332    421.05  29958.36
         Sn         3.731            3.957    682.95  85718.16
         Se         3.196            3.332    421.05  29958.36
         Sn         3.731            3.957    682.95  85718.16

         Molecular C6 ( Ry / a.u.^6 ) =     34800.65


   Crystallographic axes

     site n.     atom                  positions (cryst. coord.)
         1        Se     tau(   1) = (  0.8549563  0.2500000  0.4832481  )
         2        Sn     tau(   2) = (  0.1165395  0.2500000  0.1122870  )
         3        Se     tau(   3) = (  0.6450437  0.7500000  0.9832481  )
         4        Sn     tau(   4) = (  0.3834605  0.7500000  0.6122870  )
         5        Se     tau(   5) = (  0.3549563  0.2500000  0.0167519  )
         6        Sn     tau(   6) = (  0.6165395  0.2500000  0.3877130  )
         7        Se     tau(   7) = (  0.1450437  0.7500000  0.5167519  )
         8        Sn     tau(   8) = (  0.8834605  0.7500000  0.8877130  )

     number of k points=    32
                       cart. coord. in units 2pi/alat
        k(    1) = (   0.1666667   0.1814439   0.1661453), wk =   0.0833333
        k(    2) = (   0.1666667   0.1814439   0.4984360), wk =   0.0833333
        k(    3) = (   0.1666667   0.1814439   0.8307266), wk =   0.0833333
        k(    4) = (   0.1666667   0.1814439   1.1630172), wk =   0.0833333
        k(    5) = (   0.1666667   0.5443316   0.1661453), wk =   0.0833333
        k(    6) = (   0.1666667   0.5443316   0.4984360), wk =   0.0833333
        k(    7) = (   0.1666667   0.5443316   0.8307266), wk =   0.0833333
        k(    8) = (   0.1666667   0.5443316   1.1630172), wk =   0.0833333
        k(    9) = (   0.1666667   0.9072194   0.1661453), wk =   0.0833333
        k(   10) = (   0.1666667   0.9072194   0.4984360), wk =   0.0833333
        k(   11) = (   0.1666667   0.9072194   0.8307266), wk =   0.0833333
        k(   12) = (   0.1666667   0.9072194   1.1630172), wk =   0.0833333
        k(   13) = (   0.1666667   1.2701072   0.1661453), wk =   0.0833333
        k(   14) = (   0.1666667   1.2701072   0.4984360), wk =   0.0833333
        k(   15) = (   0.1666667   1.2701072   0.8307266), wk =   0.0833333
        k(   16) = (   0.1666667   1.2701072   1.1630172), wk =   0.0833333
        k(   17) = (  -0.5000000   0.1814439   0.1661453), wk =   0.0416667
        k(   18) = (  -0.5000000   0.1814439   0.4984360), wk =   0.0416667
        k(   19) = (  -0.5000000   0.1814439   0.8307266), wk =   0.0416667
        k(   20) = (  -0.5000000   0.1814439   1.1630172), wk =   0.0416667
        k(   21) = (  -0.5000000   0.5443316   0.1661453), wk =   0.0416667
        k(   22) = (  -0.5000000   0.5443316   0.4984360), wk =   0.0416667
        k(   23) = (  -0.5000000   0.5443316   0.8307266), wk =   0.0416667
        k(   24) = (  -0.5000000   0.5443316   1.1630172), wk =   0.0416667
        k(   25) = (  -0.5000000   0.9072194   0.1661453), wk =   0.0416667
        k(   26) = (  -0.5000000   0.9072194   0.4984360), wk =   0.0416667
        k(   27) = (  -0.5000000   0.9072194   0.8307266), wk =   0.0416667
        k(   28) = (  -0.5000000   0.9072194   1.1630172), wk =   0.0416667
        k(   29) = (  -0.5000000   1.2701072   0.1661453), wk =   0.0416667
        k(   30) = (  -0.5000000   1.2701072   0.4984360), wk =   0.0416667
        k(   31) = (  -0.5000000   1.2701072   0.8307266), wk =   0.0416667
        k(   32) = (  -0.5000000   1.2701072   1.1630172), wk =   0.0416667

                       cryst. coord.
        k(    1) = (   0.1666667   0.0625000   0.0625000), wk =   0.0833333
        k(    2) = (   0.1666667   0.0625000   0.1875000), wk =   0.0833333
        k(    3) = (   0.1666667   0.0625000   0.3125000), wk =   0.0833333
        k(    4) = (   0.1666667   0.0625000   0.4375000), wk =   0.0833333
        k(    5) = (   0.1666667   0.1875000   0.0625000), wk =   0.0833333
        k(    6) = (   0.1666667   0.1875000   0.1875000), wk =   0.0833333
        k(    7) = (   0.1666667   0.1875000   0.3125000), wk =   0.0833333
        k(    8) = (   0.1666667   0.1875000   0.4375000), wk =   0.0833333
        k(    9) = (   0.1666667   0.3125000   0.0625000), wk =   0.0833333
        k(   10) = (   0.1666667   0.3125000   0.1875000), wk =   0.0833333
        k(   11) = (   0.1666667   0.3125000   0.3125000), wk =   0.0833333
        k(   12) = (   0.1666667   0.3125000   0.4375000), wk =   0.0833333
        k(   13) = (   0.1666667   0.4375000   0.0625000), wk =   0.0833333
        k(   14) = (   0.1666667   0.4375000   0.1875000), wk =   0.0833333
        k(   15) = (   0.1666667   0.4375000   0.3125000), wk =   0.0833333
        k(   16) = (   0.1666667   0.4375000   0.4375000), wk =   0.0833333
        k(   17) = (  -0.5000000   0.0625000   0.0625000), wk =   0.0416667
        k(   18) = (  -0.5000000   0.0625000   0.1875000), wk =   0.0416667
        k(   19) = (  -0.5000000   0.0625000   0.3125000), wk =   0.0416667
        k(   20) = (  -0.5000000   0.0625000   0.4375000), wk =   0.0416667
        k(   21) = (  -0.5000000   0.1875000   0.0625000), wk =   0.0416667
        k(   22) = (  -0.5000000   0.1875000   0.1875000), wk =   0.0416667
        k(   23) = (  -0.5000000   0.1875000   0.3125000), wk =   0.0416667
        k(   24) = (  -0.5000000   0.1875000   0.4375000), wk =   0.0416667
        k(   25) = (  -0.5000000   0.3125000   0.0625000), wk =   0.0416667
        k(   26) = (  -0.5000000   0.3125000   0.1875000), wk =   0.0416667
        k(   27) = (  -0.5000000   0.3125000   0.3125000), wk =   0.0416667
        k(   28) = (  -0.5000000   0.3125000   0.4375000), wk =   0.0416667
        k(   29) = (  -0.5000000   0.4375000   0.0625000), wk =   0.0416667
        k(   30) = (  -0.5000000   0.4375000   0.1875000), wk =   0.0416667
        k(   31) = (  -0.5000000   0.4375000   0.3125000), wk =   0.0416667
        k(   32) = (  -0.5000000   0.4375000   0.4375000), wk =   0.0416667

     Dense  grid:   136327 G-vectors     FFT dimensions: ( 128,  48,  48)

     Smooth grid:    34419 G-vectors     FFT dimensions: (  80,  30,  32)

     Dynamical RAM for                 wfc:       1.31 MB

     Dynamical RAM for     wfc (w. buffer):      15.78 MB

     Dynamical RAM for           str. fact:       2.08 MB

     Dynamical RAM for           local pot:       0.00 MB

     Dynamical RAM for          nlocal pot:       4.73 MB

     Dynamical RAM for                qrad:       2.78 MB

     Dynamical RAM for          rho,v,vnew:       6.50 MB

     Dynamical RAM for               rhoin:       2.17 MB

     Dynamical RAM for            rho*nmix:      16.64 MB

     Dynamical RAM for           G-vectors:       4.03 MB

     Dynamical RAM for          h,s,v(r/c):       0.29 MB

     Dynamical RAM for          <psi|beta>:       0.09 MB

     Dynamical RAM for                 psi:       2.63 MB

     Dynamical RAM for                hpsi:       2.63 MB

     Dynamical RAM for                spsi:       2.63 MB

     Dynamical RAM for      wfcinit/wfcrot:       3.48 MB

     Dynamical RAM for           addusdens:      66.57 MB

     Dynamical RAM for          addusforce:      68.49 MB

     Estimated static dynamical RAM per process >      46.81 MB

     Estimated max dynamical RAM per process >     131.94 MB

     Estimated total dynamical RAM >     725.06 MB

     Initial potential from superposition of free atoms

     starting charge      75.9995, renormalised to      80.0000
     Starting wfcs are   52 randomized atomic wfcs

     total cpu time spent up to now is        1.6 secs

     Self-consistent Calculation

     iteration #  1     ecut=    30.00 Ry     beta= 0.70
     Davidson diagonalization with overlap

---- Real-time Memory Report at c_bands before calling an iterative solver
           211 MiB given to the printing process from OS
             0 MiB allocation reported by mallinfo(arena+hblkhd)
         10287 MiB available memory on the node where the printing process lives
------------------
     ethr =  1.00E-02,  avg # of iterations =  2.0

     total cpu time spent up to now is        3.7 secs

     total energy              =    -826.57868994 Ry
     estimated scf accuracy    <       2.75029314 Ry

     iteration #  2     ecut=    30.00 Ry     beta= 0.70
     Davidson diagonalization with overlap

---- Real-time Memory Report at c_bands before calling an iterative solver
           265 MiB given to the printing process from OS
             0 MiB allocation reported by mallinfo(arena+hblkhd)
          9787 MiB available memory on the node where the printing process lives
------------------
     ethr =  3.44E-03,  avg # of iterations =  3.0

     total cpu time spent up to now is        6.0 secs

     total energy              =    -827.48718555 Ry
     estimated scf accuracy    <       1.12406318 Ry

     iteration #  3     ecut=    30.00 Ry     beta= 0.70
     Davidson diagonalization with overlap

---- Real-time Memory Report at c_bands before calling an iterative solver
           284 MiB given to the printing process from OS
             0 MiB allocation reported by mallinfo(arena+hblkhd)
          9689 MiB available memory on the node where the printing process lives
------------------
     ethr =  1.41E-03,  avg # of iterations =  2.8

     total cpu time spent up to now is        8.0 secs

     total energy              =    -827.72203689 Ry
     estimated scf accuracy    <       0.01377404 Ry

     iteration #  4     ecut=    30.00 Ry     beta= 0.70
     Davidson diagonalization with overlap

---- Real-time Memory Report at c_bands before calling an iterative solver
           286 MiB given to the printing process from OS
             0 MiB allocation reported by mallinfo(arena+hblkhd)
          9686 MiB available memory on the node where the printing process lives
------------------
     ethr =  1.72E-05,  avg # of iterations =  4.9

     total cpu time spent up to now is       10.8 secs

     total energy              =    -827.72988986 Ry
     estimated scf accuracy    <       0.00621429 Ry

     iteration #  5     ecut=    30.00 Ry     beta= 0.70
     Davidson diagonalization with overlap

---- Real-time Memory Report at c_bands before calling an iterative solver
           289 MiB given to the printing process from OS
             0 MiB allocation reported by mallinfo(arena+hblkhd)
          9675 MiB available memory on the node where the printing process lives
------------------
     ethr =  7.77E-06,  avg # of iterations =  2.2

     total cpu time spent up to now is       12.8 secs

     total energy              =    -827.73090368 Ry
     estimated scf accuracy    <       0.00070963 Ry

     iteration #  6     ecut=    30.00 Ry     beta= 0.70
     Davidson diagonalization with overlap

---- Real-time Memory Report at c_bands before calling an iterative solver
           292 MiB given to the printing process from OS
             0 MiB allocation reported by mallinfo(arena+hblkhd)
          9672 MiB available memory on the node where the printing process lives
------------------
     ethr =  8.87E-07,  avg # of iterations =  4.4

     total cpu time spent up to now is       15.1 secs

     total energy              =    -827.73102491 Ry
     estimated scf accuracy    <       0.00113689 Ry

     iteration #  7     ecut=    30.00 Ry     beta= 0.70
     Davidson diagonalization with overlap

---- Real-time Memory Report at c_bands before calling an iterative solver
           293 MiB given to the printing process from OS
             0 MiB allocation reported by mallinfo(arena+hblkhd)
          9670 MiB available memory on the node where the printing process lives
------------------
     ethr =  8.87E-07,  avg # of iterations =  3.0

     total cpu time spent up to now is       17.1 secs

     total energy              =    -827.73118119 Ry
     estimated scf accuracy    <       0.00002769 Ry

     iteration #  8     ecut=    30.00 Ry     beta= 0.70
     Davidson diagonalization with overlap

---- Real-time Memory Report at c_bands before calling an iterative solver
           296 MiB given to the printing process from OS
             0 MiB allocation reported by mallinfo(arena+hblkhd)
          9667 MiB available memory on the node where the printing process lives
------------------
     ethr =  3.46E-08,  avg # of iterations =  4.8

     total cpu time spent up to now is       19.6 secs

     total energy              =    -827.73120317 Ry
     estimated scf accuracy    <       0.00002487 Ry

     iteration #  9     ecut=    30.00 Ry     beta= 0.70
     Davidson diagonalization with overlap

---- Real-time Memory Report at c_bands before calling an iterative solver
           298 MiB given to the printing process from OS
             0 MiB allocation reported by mallinfo(arena+hblkhd)
          9666 MiB available memory on the node where the printing process lives
------------------
     ethr =  3.11E-08,  avg # of iterations =  2.0

     total cpu time spent up to now is       21.5 secs

     total energy              =    -827.73120547 Ry
     estimated scf accuracy    <       0.00000154 Ry

     iteration # 10     ecut=    30.00 Ry     beta= 0.70
     Davidson diagonalization with overlap

---- Real-time Memory Report at c_bands before calling an iterative solver
           299 MiB given to the printing process from OS
             0 MiB allocation reported by mallinfo(arena+hblkhd)
          9665 MiB available memory on the node where the printing process lives
------------------
     ethr =  1.93E-09,  avg # of iterations =  4.4

     total cpu time spent up to now is       23.8 secs

     total energy              =    -827.73120616 Ry
     estimated scf accuracy    <       0.00000012 Ry

     iteration # 11     ecut=    30.00 Ry     beta= 0.70
     Davidson diagonalization with overlap

---- Real-time Memory Report at c_bands before calling an iterative solver
           300 MiB given to the printing process from OS
             0 MiB allocation reported by mallinfo(arena+hblkhd)
          9664 MiB available memory on the node where the printing process lives
------------------
     ethr =  1.50E-10,  avg # of iterations =  4.3

     total cpu time spent up to now is       25.8 secs

     total energy              =    -827.73120615 Ry
     estimated scf accuracy    <       0.00000007 Ry

     iteration # 12     ecut=    30.00 Ry     beta= 0.70
     Davidson diagonalization with overlap

---- Real-time Memory Report at c_bands before calling an iterative solver
           301 MiB given to the printing process from OS
             0 MiB allocation reported by mallinfo(arena+hblkhd)
          9664 MiB available memory on the node where the printing process lives
------------------
     ethr =  8.13E-11,  avg # of iterations =  3.1

     total cpu time spent up to now is       27.8 secs

     End of self-consistent calculation

          k = 0.1667 0.1814 0.1661 (  4309 PWs)   bands (ev):

   -14.3709 -14.3633 -14.3592 -14.3550 -14.3522 -14.3506 -14.3500 -14.3493
   -14.3417 -14.3348 -14.3321 -14.3312 -14.3291 -14.3254 -14.3133 -14.3094
   -14.3053 -14.3022 -14.2990 -14.2958  -6.2988  -6.0715  -5.5045  -5.2068
     0.0722   0.7883   1.4300   1.8630   2.6883   3.8308   4.0071   4.2231
     4.4326   4.4977   4.9603   5.2171   5.4196   5.6791   6.3078   6.5919

     occupation numbers 
     1.0000   1.0000   1.0000   1.0000   1.0000   1.0000   1.0000   1.0000
     1.0000   1.0000   1.0000   1.0000   1.0000   1.0000   1.0000   1.0000
     1.0000   1.0000   1.0000   1.0000   1.0000   1.0000   1.0000   1.0000
     1.0000   1.0000   1.0000   1.0000   1.0000   1.0000   1.0000   1.0000
     1.0000   1.0000   1.0000   1.0000   1.0000   1.0000   1.0000   1.0000

          k = 0.1667 0.1814 0.4984 (  4299 PWs)   bands (ev):

   -14.3699 -14.3632 -14.3593 -14.3554 -14.3521 -14.3515 -14.3502 -14.3500
   -14.3399 -14.3340 -14.3320 -14.3315 -14.3276 -14.3240 -14.3135 -14.3101
   -14.3050 -14.3023 -14.2989 -14.2961  -6.1918  -5.9738  -5.4887  -5.2189
    -0.2551   0.4808   0.9773   1.4933   2.7643   3.9017   4.1104   4.5007
     4.7596   4.9834   5.0226   5.3185   5.7905   6.0974   6.2256   6.5429

     occupation numbers 
     1.0000   1.0000   1.0000   1.0000   1.0000   1.0000   1.0000   1.0000
     1.0000   1.0000   1.0000   1.0000   1.0000   1.0000   1.0000   1.0000
     1.0000   1.0000   1.0000   1.0000   1.0000   1.0000   1.0000   1.0000
     1.0000   1.0000   1.0000   1.0000   1.0000   1.0000   1.0000   1.0000
     1.0000   1.0000   1.0000   1.0000   1.0000   1.0000   1.0000   1.0000

          k = 0.1667 0.1814 0.8307 (  4294 PWs)   bands (ev):

   -14.3682 -14.3633 -14.3593 -14.3563 -14.3525 -14.3521 -14.3512 -14.3504
   -14.3372 -14.3335 -14.3324 -14.3319 -14.3246 -14.3221 -14.3137 -14.3113
   -14.3043 -14.3025 -14.2987 -14.2968  -6.0025  -5.8022  -5.4950  -5.2696
    -0.5977  -0.0336   0.5527   0.9918   3.0569   4.1342   4.3461   4.8539
     4.8998   5.1418   5.3283   5.5623   5.9414   6.3801   6.4419   6.7834

     occupation numbers 
     1.0000   1.0000   1.0000   1.0000   1.0000   1.0000   1.0000   1.0000
     1.0000   1.0000   1.0000   1.0000   1.0000   1.0000   1.0000   1.0000
     1.0000   1.0000   1.0000   1.0000   1.0000   1.0000   1.0000   1.0000
     1.0000   1.0000   1.0000   1.0000   1.0000   1.0000   1.0000   1.0000
     1.0000   1.0000   1.0000   1.0000   1.0000   1.0000   1.0000   1.0000

          k = 0.1667 0.1814 1.1630 (  4285 PWs)   bands (ev):

   -14.3662 -14.3644 -14.3587 -14.3576 -14.3530 -14.3528 -14.3513 -14.3509
   -14.3350 -14.3339 -14.3325 -14.3321 -14.3219 -14.3210 -14.3134 -14.3125
   -14.3035 -14.3029 -14.2982 -14.2975  -5.7849  -5.6460  -5.5310  -5.3864
    -0.7095  -0.5006   0.4144   0.5817   3.5293   4.0463   4.6923   4.8945
     5.0803   5.1606   5.3220   5.6552   6.2283   6.5878   6.7198   6.8047

     occupation numbers 
     1.0000   1.0000   1.0000   1.0000   1.0000   1.0000   1.0000   1.0000
     1.0000   1.0000   1.0000   1.0000   1.0000   1.0000   1.0000   1.0000
     1.0000   1.0000   1.0000   1.0000   1.0000   1.0000   1.0000   1.0000
     1.0000   1.0000   1.0000   1.0000   1.0000   1.0000   1.0000   1.0000
     1.0000   1.0000   1.0000   1.0000   1.0000   1.0000   1.0000   1.0000

          k = 0.1667 0.5443 0.1661 (  4310 PWs)   bands (ev):

   -14.3658 -14.3602 -14.3562 -14.3542 -14.3534 -14.3525 -14.3505 -14.3498
   -14.3421 -14.3363 -14.3361 -14.3350 -14.3262 -14.3223 -14.3105 -14.3077
   -14.3064 -14.3052 -14.2985 -14.2960  -6.1466  -5.9380  -5.4285  -5.1756
    -0.1009   0.5072   1.1143   1.2681   2.8001   3.7437   4.0051   4.2358
     4.5719   4.8295   4.9593   5.2357   5.5736   6.0926   6.3418   6.4655

     occupation numbers 
     1.0000   1.0000   1.0000   1.0000   1.0000   1.0000   1.0000   1.0000
     1.0000   1.0000   1.0000   1.0000   1.0000   1.0000   1.0000   1.0000
     1.0000   1.0000   1.0000   1.0000   1.0000   1.0000   1.0000   1.0000
     1.0000   1.0000   1.0000   1.0000   1.0000   1.0000   1.0000   1.0000
     1.0000   1.0000   1.0000   1.0000   1.0000   1.0000   1.0000   1.0000

          k = 0.1667 0.5443 0.4984 (  4318 PWs)   bands (ev):

   -14.3653 -14.3602 -14.3568 -14.3555 -14.3536 -14.3529 -14.3505 -14.3501
   -14.3410 -14.3366 -14.3357 -14.3341 -14.3247 -14.3212 -14.3107 -14.3078
   -14.3065 -14.3051 -14.2984 -14.2963  -6.0451  -5.8461  -5.4117  -5.1817
    -0.2669   0.4055   0.8198   1.1630   2.9300   3.3486   3.5852   4.2189
     4.4287   4.9450   5.3491   5.4326   6.0581   6.1626   6.3738   6.5386

     occupation numbers 
     1.0000   1.0000   1.0000   1.0000   1.0000   1.0000   1.0000   1.0000
     1.0000   1.0000   1.0000   1.0000   1.0000   1.0000   1.0000   1.0000
     1.0000   1.0000   1.0000   1.0000   1.0000   1.0000   1.0000   1.0000
     1.0000   1.0000   1.0000   1.0000   1.0000   1.0000   1.0000   1.0000
     1.0000   1.0000   1.0000   1.0000   1.0000   1.0000   1.0000   1.0000

          k = 0.1667 0.5443 0.8307 (  4301 PWs)   bands (ev):

   -14.3642 -14.3600 -14.3583 -14.3572 -14.3540 -14.3535 -14.3508 -14.3505
   -14.3394 -14.3372 -14.3348 -14.3332 -14.3221 -14.3196 -14.3108 -14.3088
   -14.3060 -14.3050 -14.2982 -14.2968  -5.8678  -5.6867  -5.4131  -5.2190
    -0.4686   0.0654   0.5812   0.9207   3.1852   3.2992   3.5327   4.1848
     4.2610   5.0343   5.1625   5.7143   5.9123   6.1204   6.2933   6.5009

     occupation numbers 
     1.0000   1.0000   1.0000   1.0000   1.0000   1.0000   1.0000   1.0000
     1.0000   1.0000   1.0000   1.0000   1.0000   1.0000   1.0000   1.0000
     1.0000   1.0000   1.0000   1.0000   1.0000   1.0000   1.0000   1.0000
     1.0000   1.0000   1.0000   1.0000   1.0000   1.0000   1.0000   1.0000
     1.0000   1.0000   1.0000   1.0000   1.0000   1.0000   1.0000   1.0000

          k = 0.1667 0.5443 1.1630 (  4294 PWs)   bands (ev):

   -14.3628 -14.3608 -14.3593 -14.3584 -14.3542 -14.3541 -14.3510 -14.3509
   -14.3384 -14.3378 -14.3337 -14.3330 -14.3196 -14.3188 -14.3105 -14.3098
   -14.3054 -14.3050 -14.2978 -14.2973  -5.6677  -5.5436  -5.4420  -5.3157
    -0.5225  -0.3266   0.5286   0.6602   3.4901   3.5424   3.7655   4.0045
     4.2392   4.6046   5.1985   5.4866   5.7745   5.9967   6.2064   6.3728

     occupation numbers 
     1.0000   1.0000   1.0000   1.0000   1.0000   1.0000   1.0000   1.0000
     1.0000   1.0000   1.0000   1.0000   1.0000   1.0000   1.0000   1.0000
     1.0000   1.0000   1.0000   1.0000   1.0000   1.0000   1.0000   1.0000
     1.0000   1.0000   1.0000   1.0000   1.0000   1.0000   1.0000   1.0000
     1.0000   1.0000   1.0000   1.0000   1.0000   1.0000   1.0000   1.0000

          k = 0.1667 0.9072 0.1661 (  4315 PWs)   bands (ev):

   -14.3599 -14.3582 -14.3559 -14.3556 -14.3551 -14.3512 -14.3483 -14.3478
   -14.3432 -14.3405 -14.3399 -14.3365 -14.3229 -14.3194 -14.3106 -14.3105
   -14.3056 -14.3031 -14.2972 -14.2960  -5.8743  -5.7095  -5.3354  -5.1750
    -0.3480   0.1209   0.4624   0.6291   3.1296   3.8678   4.2068   4.4437
     4.8744   4.9582   5.1307   5.3097   5.7423   6.1529   6.2266   6.5096

     occupation numbers 
     1.0000   1.0000   1.0000   1.0000   1.0000   1.0000   1.0000   1.0000
     1.0000   1.0000   1.0000   1.0000   1.0000   1.0000   1.0000   1.0000
     1.0000   1.0000   1.0000   1.0000   1.0000   1.0000   1.0000   1.0000
     1.0000   1.0000   1.0000   1.0000   1.0000   1.0000   1.0000   1.0000
     1.0000   1.0000   1.0000   1.0000   1.0000   1.0000   1.0000   1.0000

          k = 0.1667 0.9072 0.4984 (  4318 PWs)   bands (ev):

   -14.3618 -14.3586 -14.3570 -14.3563 -14.3558 -14.3516 -14.3483 -14.3477
   -14.3426 -14.3407 -14.3387 -14.3358 -14.3216 -14.3185 -14.3101 -14.3101
   -14.3057 -14.3035 -14.2971 -14.2961  -5.7860  -5.6308  -5.3137  -5.1659
    -0.3132   0.2093   0.4707   0.6210   3.1255   3.2504   3.5293   3.9984
     4.4032   5.0069   5.1988   5.5329   5.6741   5.8399   6.1426   6.3304

     occupation numbers 
     1.0000   1.0000   1.0000   1.0000   1.0000   1.0000   1.0000   1.0000
     1.0000   1.0000   1.0000   1.0000   1.0000   1.0000   1.0000   1.0000
     1.0000   1.0000   1.0000   1.0000   1.0000   1.0000   1.0000   1.0000
     1.0000   1.0000   1.0000   1.0000   1.0000   1.0000   1.0000   1.0000
     1.0000   1.0000   1.0000   1.0000   1.0000   1.0000   1.0000   1.0000

          k = 0.1667 0.9072 0.8307 (  4317 PWs)   bands (ev):

   -14.3635 -14.3609 -14.3582 -14.3577 -14.3553 -14.3523 -14.3484 -14.3479
   -14.3416 -14.3407 -14.3372 -14.3351 -14.3193 -14.3173 -14.3094 -14.3093
   -14.3056 -14.3042 -14.2970 -14.2963  -5.6361  -5.4983  -5.3006  -5.1720
    -0.2672   0.1771   0.5123   0.6694   2.7276   3.0211   3.4695   3.6577
     3.8548   4.5939   4.8868   5.1696   5.4531   5.5604   5.7494   6.2278

     occupation numbers 
     1.0000   1.0000   1.0000   1.0000   1.0000   1.0000   1.0000   1.0000
     1.0000   1.0000   1.0000   1.0000   1.0000   1.0000   1.0000   1.0000
     1.0000   1.0000   1.0000   1.0000   1.0000   1.0000   1.0000   1.0000
     1.0000   1.0000   1.0000   1.0000   1.0000   1.0000   1.0000   1.0000
     1.0000   1.0000   1.0000   1.0000   1.0000   1.0000   1.0000   1.0000

          k = 0.1667 0.9072 1.1630 (  4300 PWs)   bands (ev):

   -14.3641 -14.3632 -14.3591 -14.3589 -14.3544 -14.3533 -14.3485 -14.3483
   -14.3410 -14.3407 -14.3358 -14.3351 -14.3173 -14.3166 -14.3088 -14.3088
   -14.3053 -14.3049 -14.2968 -14.2965  -5.4754  -5.3837  -5.3113  -5.2242
    -0.1920  -0.0309   0.6323   0.6883   2.7332   3.0473   3.0806   3.4294
     3.8823   4.2925   4.5041   4.9112   5.0480   5.2665   5.7792   5.9429

     occupation numbers 
     1.0000   1.0000   1.0000   1.0000   1.0000   1.0000   1.0000   1.0000
     1.0000   1.0000   1.0000   1.0000   1.0000   1.0000   1.0000   1.0000
     1.0000   1.0000   1.0000   1.0000   1.0000   1.0000   1.0000   1.0000
     1.0000   1.0000   1.0000   1.0000   1.0000   1.0000   1.0000   1.0000
     1.0000   1.0000   1.0000   1.0000   1.0000   1.0000   1.0000   1.0000

          k = 0.1667 1.2701 0.1661 (  4335 PWs)   bands (ev):

   -14.3602 -14.3589 -14.3579 -14.3573 -14.3508 -14.3479 -14.3476 -14.3463
   -14.3436 -14.3424 -14.3409 -14.3389 -14.3196 -14.3170 -14.3155 -14.3139
   -14.3006 -14.2991 -14.2971 -14.2969  -5.5540  -5.4692  -5.3273  -5.2935
    -0.4330  -0.1597  -0.0456   0.1549   3.6541   4.1121   4.4314   4.6794
     4.8516   4.9342   5.2775   5.4897   5.8767   5.9994   6.0903   6.2244

     occupation numbers 
     1.0000   1.0000   1.0000   1.0000   1.0000   1.0000   1.0000   1.0000
     1.0000   1.0000   1.0000   1.0000   1.0000   1.0000   1.0000   1.0000
     1.0000   1.0000   1.0000   1.0000   1.0000   1.0000   1.0000   1.0000
     1.0000   1.0000   1.0000   1.0000   1.0000   1.0000   1.0000   1.0000
     1.0000   1.0000   1.0000   1.0000   1.0000   1.0000   1.0000   1.0000

          k = 0.1667 1.2701 0.4984 (  4333 PWs)   bands (ev):

   -14.3621 -14.3605 -14.3597 -14.3589 -14.3508 -14.3481 -14.3474 -14.3464
   -14.3428 -14.3421 -14.3398 -14.3382 -14.3187 -14.3168 -14.3141 -14.3131
   -14.3007 -14.2995 -14.2970 -14.2968  -5.4888  -5.4113  -5.2917  -5.2582
    -0.2891  -0.0220   0.0929   0.2334   3.3990   3.6078   3.8310   4.1266
     4.1850   4.6936   5.0246   5.1940   5.3112   5.5991   5.8798   6.1946

     occupation numbers 
     1.0000   1.0000   1.0000   1.0000   1.0000   1.0000   1.0000   1.0000
     1.0000   1.0000   1.0000   1.0000   1.0000   1.0000   1.0000   1.0000
     1.0000   1.0000   1.0000   1.0000   1.0000   1.0000   1.0000   1.0000
     1.0000   1.0000   1.0000   1.0000   1.0000   1.0000   1.0000   1.0000
     1.0000   1.0000   1.0000   1.0000   1.0000   1.0000   1.0000   1.0000

          k = 0.1667 1.2701 0.8307 (  4315 PWs)   bands (ev):

   -14.3645 -14.3632 -14.3619 -14.3612 -14.3506 -14.3488 -14.3473 -14.3466
   -14.3418 -14.3416 -14.3387 -14.3375 -14.3171 -14.3160 -14.3123 -14.3118
   -14.3007 -14.3000 -14.2969 -14.2968  -5.3851  -5.3207  -5.2470  -5.2129
    -0.0474   0.1864   0.3195   0.3682   2.7491   3.1613   3.2536   3.6643
     3.7142   4.1509   4.3269   4.7956   4.8711   5.1707   5.7374   5.8983

     occupation numbers 
     1.0000   1.0000   1.0000   1.0000   1.0000   1.0000   1.0000   1.0000
     1.0000   1.0000   1.0000   1.0000   1.0000   1.0000   1.0000   1.0000
     1.0000   1.0000   1.0000   1.0000   1.0000   1.0000   1.0000   1.0000
     1.0000   1.0000   1.0000   1.0000   1.0000   1.0000   1.0000   1.0000
     1.0000   1.0000   1.0000   1.0000   1.0000   1.0000   1.0000   1.0000

          k = 0.1667 1.2701 1.1630 (  4299 PWs)   bands (ev):

   -14.3659 -14.3654 -14.3632 -14.3630 -14.3503 -14.3496 -14.3470 -14.3468
   -14.3413 -14.3412 -14.3378 -14.3374 -14.3158 -14.3154 -14.3110 -14.3109
   -14.3006 -14.3003 -14.2968 -14.2968  -5.2886  -5.2500  -5.2231  -5.1954
     0.1812   0.2751   0.5185   0.5388   2.4834   2.6790   3.0019   3.2277
     3.4377   3.5945   4.0133   4.3064   4.8728   5.0747   5.6689   5.7037

     occupation numbers 
     1.0000   1.0000   1.0000   1.0000   1.0000   1.0000   1.0000   1.0000
     1.0000   1.0000   1.0000   1.0000   1.0000   1.0000   1.0000   1.0000
     1.0000   1.0000   1.0000   1.0000   1.0000   1.0000   1.0000   1.0000
     1.0000   1.0000   1.0000   1.0000   1.0000   1.0000   1.0000   1.0000
     1.0000   1.0000   1.0000   1.0000   1.0000   1.0000   1.0000   1.0000

          k =-0.5000 0.1814 0.1661 (  4308 PWs)   bands (ev):

   -14.3679 -14.3679 -14.3565 -14.3565 -14.3513 -14.3513 -14.3497 -14.3497
   -14.3386 -14.3386 -14.3316 -14.3316 -14.3269 -14.3269 -14.3116 -14.3116
   -14.3035 -14.3035 -14.2973 -14.2973  -6.2047  -6.2047  -5.3362  -5.3362
     0.3238   0.3238   1.7523   1.7523   3.2310   3.2310   4.1444   4.1444
     4.5126   4.5126   5.0329   5.0329   5.3655   5.3655   6.4877   6.4877

     occupation numbers 
     1.0000   1.0000   1.0000   1.0000   1.0000   1.0000   1.0000   1.0000
     1.0000   1.0000   1.0000   1.0000   1.0000   1.0000   1.0000   1.0000
     1.0000   1.0000   1.0000   1.0000   1.0000   1.0000   1.0000   1.0000
     1.0000   1.0000   1.0000   1.0000   1.0000   1.0000   1.0000   1.0000
     1.0000   1.0000   1.0000   1.0000   1.0000   1.0000   1.0000   1.0000

          k =-0.5000 0.1814 0.4984 (  4290 PWs)   bands (ev):

   -14.3672 -14.3672 -14.3568 -14.3568 -14.3515 -14.3515 -14.3504 -14.3504
   -14.3372 -14.3372 -14.3318 -14.3318 -14.3255 -14.3255 -14.3120 -14.3120
   -14.3035 -14.3035 -14.2975 -14.2975  -6.1022  -6.1022  -5.3344  -5.3344
     0.0099   0.0099   1.3130   1.3130   3.3983   3.3983   4.1921   4.1921
     4.8595   4.8595   5.1963   5.1963   5.8622   5.8622   6.3597   6.3597

     occupation numbers 
     1.0000   1.0000   1.0000   1.0000   1.0000   1.0000   1.0000   1.0000
     1.0000   1.0000   1.0000   1.0000   1.0000   1.0000   1.0000   1.0000
     1.0000   1.0000   1.0000   1.0000   1.0000   1.0000   1.0000   1.0000
     1.0000   1.0000   1.0000   1.0000   1.0000   1.0000   1.0000   1.0000
     1.0000   1.0000   1.0000   1.0000   1.0000   1.0000   1.0000   1.0000

          k =-0.5000 0.1814 0.8307 (  4304 PWs)   bands (ev):

   -14.3662 -14.3662 -14.3575 -14.3575 -14.3519 -14.3519 -14.3512 -14.3512
   -14.3352 -14.3352 -14.3324 -14.3324 -14.3232 -14.3232 -14.3125 -14.3125
   -14.3034 -14.3034 -14.2977 -14.2977  -5.9231  -5.9231  -5.3616  -5.3616
    -0.3640  -0.3640   0.7863   0.7863   3.7031   3.7031   4.4650   4.4650
     4.9977   4.9977   5.4534   5.4534   6.0813   6.0813   6.5863   6.5863

     occupation numbers 
     1.0000   1.0000   1.0000   1.0000   1.0000   1.0000   1.0000   1.0000
     1.0000   1.0000   1.0000   1.0000   1.0000   1.0000   1.0000   1.0000
     1.0000   1.0000   1.0000   1.0000   1.0000   1.0000   1.0000   1.0000
     1.0000   1.0000   1.0000   1.0000   1.0000   1.0000   1.0000   1.0000
     1.0000   1.0000   1.0000   1.0000   1.0000   1.0000   1.0000   1.0000

          k =-0.5000 0.1814 1.1630 (  4306 PWs)   bands (ev):

   -14.3653 -14.3653 -14.3583 -14.3583 -14.3524 -14.3524 -14.3516 -14.3516
   -14.3338 -14.3338 -14.3329 -14.3329 -14.3215 -14.3215 -14.3128 -14.3128
   -14.3033 -14.3033 -14.2978 -14.2978  -5.7331  -5.7331  -5.4414  -5.4414
    -0.5871  -0.5871   0.4445   0.4445   4.1134   4.1134   4.7649   4.7649
     4.8322   4.8322   5.2889   5.2889   6.4932   6.4932   6.7607   6.7607

     occupation numbers 
     1.0000   1.0000   1.0000   1.0000   1.0000   1.0000   1.0000   1.0000
     1.0000   1.0000   1.0000   1.0000   1.0000   1.0000   1.0000   1.0000
     1.0000   1.0000   1.0000   1.0000   1.0000   1.0000   1.0000   1.0000
     1.0000   1.0000   1.0000   1.0000   1.0000   1.0000   1.0000   1.0000
     1.0000   1.0000   1.0000   1.0000   1.0000   1.0000   1.0000   1.0000

          k =-0.5000 0.5443 0.1661 (  4316 PWs)   bands (ev):

   -14.3634 -14.3634 -14.3549 -14.3549 -14.3529 -14.3529 -14.3504 -14.3504
   -14.3388 -14.3388 -14.3361 -14.3361 -14.3239 -14.3239 -14.3092 -14.3092
   -14.3057 -14.3057 -14.2972 -14.2972  -6.0597  -6.0597  -5.2844  -5.2844
     0.1286   0.1286   1.2495   1.2495   3.3590   3.3590   4.0042   4.0042
     4.8134   4.8134   4.9821   4.9821   5.6566   5.6566   6.4904   6.4904

     occupation numbers 
     1.0000   1.0000   1.0000   1.0000   1.0000   1.0000   1.0000   1.0000
     1.0000   1.0000   1.0000   1.0000   1.0000   1.0000   1.0000   1.0000
     1.0000   1.0000   1.0000   1.0000   1.0000   1.0000   1.0000   1.0000
     1.0000   1.0000   1.0000   1.0000   1.0000   1.0000   1.0000   1.0000
     1.0000   1.0000   1.0000   1.0000   1.0000   1.0000   1.0000   1.0000

          k =-0.5000 0.5443 0.4984 (  4306 PWs)   bands (ev):

   -14.3631 -14.3631 -14.3559 -14.3559 -14.3532 -14.3532 -14.3505 -14.3505
   -14.3377 -14.3377 -14.3361 -14.3361 -14.3227 -14.3227 -14.3094 -14.3094
   -14.3058 -14.3058 -14.2972 -14.2972  -5.9629  -5.9629  -5.2792  -5.2792
    -0.0176  -0.0176   1.0551   1.0551   3.3359   3.3359   3.7968   3.7968
     4.4401   4.4401   5.5020   5.5020   6.0669   6.0669   6.4563   6.4563

     occupation numbers 
     1.0000   1.0000   1.0000   1.0000   1.0000   1.0000   1.0000   1.0000
     1.0000   1.0000   1.0000   1.0000   1.0000   1.0000   1.0000   1.0000
     1.0000   1.0000   1.0000   1.0000   1.0000   1.0000   1.0000   1.0000
     1.0000   1.0000   1.0000   1.0000   1.0000   1.0000   1.0000   1.0000
     1.0000   1.0000   1.0000   1.0000   1.0000   1.0000   1.0000   1.0000

          k =-0.5000 0.5443 0.8307 (  4306 PWs)   bands (ev):

   -14.3625 -14.3625 -14.3577 -14.3577 -14.3537 -14.3537 -14.3506 -14.3506
   -14.3368 -14.3368 -14.3357 -14.3357 -14.3206 -14.3206 -14.3097 -14.3097
   -14.3057 -14.3057 -14.2973 -14.2973  -5.7956  -5.7956  -5.2976  -5.2976
    -0.2455  -0.2455   0.7681   0.7681   3.3357   3.3357   3.9640   3.9640
     4.3223   4.3223   5.5147   5.5147   5.9363   5.9363   6.4219   6.4219

     occupation numbers 
     1.0000   1.0000   1.0000   1.0000   1.0000   1.0000   1.0000   1.0000
     1.0000   1.0000   1.0000   1.0000   1.0000   1.0000   1.0000   1.0000
     1.0000   1.0000   1.0000   1.0000   1.0000   1.0000   1.0000   1.0000
     1.0000   1.0000   1.0000   1.0000   1.0000   1.0000   1.0000   1.0000
     1.0000   1.0000   1.0000   1.0000   1.0000   1.0000   1.0000   1.0000

          k =-0.5000 0.5443 1.1630 (  4312 PWs)   bands (ev):

   -14.3614 -14.3614 -14.3596 -14.3596 -14.3541 -14.3541 -14.3507 -14.3507
   -14.3369 -14.3369 -14.3347 -14.3347 -14.3191 -14.3191 -14.3100 -14.3100
   -14.3057 -14.3057 -14.2973 -14.2973  -5.6213  -5.6213  -5.3634  -5.3634
    -0.4092  -0.4092   0.5515   0.5515   3.5698   3.5698   3.9283   3.9283
     4.5876   4.5876   5.0829   5.0829   5.7593   5.7593   6.2272   6.2272

     occupation numbers 
     1.0000   1.0000   1.0000   1.0000   1.0000   1.0000   1.0000   1.0000
     1.0000   1.0000   1.0000   1.0000   1.0000   1.0000   1.0000   1.0000
     1.0000   1.0000   1.0000   1.0000   1.0000   1.0000   1.0000   1.0000
     1.0000   1.0000   1.0000   1.0000   1.0000   1.0000   1.0000   1.0000
     1.0000   1.0000   1.0000   1.0000   1.0000   1.0000   1.0000   1.0000

          k =-0.5000 0.9072 0.1661 (  4338 PWs)   bands (ev):

   -14.3593 -14.3593 -14.3556 -14.3556 -14.3532 -14.3532 -14.3484 -14.3484
   -14.3407 -14.3407 -14.3392 -14.3392 -14.3209 -14.3209 -14.3106 -14.3106
   -14.3044 -14.3044 -14.2966 -14.2966  -5.8047  -5.8047  -5.2421  -5.2421
    -0.1516  -0.1516   0.5605   0.5605   3.6502   3.6502   4.1787   4.1787
     4.9806   4.9806   5.1936   5.1936   5.7233   5.7233   6.3899   6.3899

     occupation numbers 
     1.0000   1.0000   1.0000   1.0000   1.0000   1.0000   1.0000   1.0000
     1.0000   1.0000   1.0000   1.0000   1.0000   1.0000   1.0000   1.0000
     1.0000   1.0000   1.0000   1.0000   1.0000   1.0000   1.0000   1.0000
     1.0000   1.0000   1.0000   1.0000   1.0000   1.0000   1.0000   1.0000
     1.0000   1.0000   1.0000   1.0000   1.0000   1.0000   1.0000   1.0000

          k =-0.5000 0.9072 0.4984 (  4318 PWs)   bands (ev):

   -14.3605 -14.3605 -14.3566 -14.3566 -14.3536 -14.3536 -14.3481 -14.3481
   -14.3402 -14.3402 -14.3386 -14.3386 -14.3198 -14.3198 -14.3102 -14.3102
   -14.3046 -14.3046 -14.2966 -14.2966  -5.7210  -5.7210  -5.2271  -5.2271
    -0.1020  -0.1020   0.5751   0.5751   3.2425   3.2425   3.9266   3.9266
     4.3882   4.3882   5.4432   5.4432   5.6274   5.6274   6.2899   6.2899

     occupation numbers 
     1.0000   1.0000   1.0000   1.0000   1.0000   1.0000   1.0000   1.0000
     1.0000   1.0000   1.0000   1.0000   1.0000   1.0000   1.0000   1.0000
     1.0000   1.0000   1.0000   1.0000   1.0000   1.0000   1.0000   1.0000
     1.0000   1.0000   1.0000   1.0000   1.0000   1.0000   1.0000   1.0000
     1.0000   1.0000   1.0000   1.0000   1.0000   1.0000   1.0000   1.0000

          k =-0.5000 0.9072 0.8307 (  4304 PWs)   bands (ev):

   -14.3622 -14.3622 -14.3581 -14.3581 -14.3541 -14.3541 -14.3479 -14.3479
   -14.3399 -14.3399 -14.3375 -14.3375 -14.3179 -14.3179 -14.3096 -14.3096
   -14.3049 -14.3049 -14.2966 -14.2966  -5.5804  -5.5804  -5.2231  -5.2231
    -0.0758  -0.0758   0.6043   0.6043   2.8784   2.8784   3.5988   3.5988
     4.2756   4.2756   4.9101   4.9101   5.3747   5.3747   6.0625   6.0625

     occupation numbers 
     1.0000   1.0000   1.0000   1.0000   1.0000   1.0000   1.0000   1.0000
     1.0000   1.0000   1.0000   1.0000   1.0000   1.0000   1.0000   1.0000
     1.0000   1.0000   1.0000   1.0000   1.0000   1.0000   1.0000   1.0000
     1.0000   1.0000   1.0000   1.0000   1.0000   1.0000   1.0000   1.0000
     1.0000   1.0000   1.0000   1.0000   1.0000   1.0000   1.0000   1.0000

          k =-0.5000 0.9072 1.1630 (  4310 PWs)   bands (ev):

   -14.3634 -14.3634 -14.3593 -14.3593 -14.3544 -14.3544 -14.3479 -14.3479
   -14.3399 -14.3399 -14.3366 -14.3366 -14.3165 -14.3165 -14.3091 -14.3091
   -14.3051 -14.3051 -14.2965 -14.2965  -5.4407  -5.4407  -5.2567  -5.2567
    -0.1014  -0.1014   0.6373   0.6373   2.8843   2.8843   3.2124   3.2124
     4.2572   4.2572   4.5939   4.5939   5.2403   5.2403   5.6970   5.6970

     occupation numbers 
     1.0000   1.0000   1.0000   1.0000   1.0000   1.0000   1.0000   1.0000
     1.0000   1.0000   1.0000   1.0000   1.0000   1.0000   1.0000   1.0000
     1.0000   1.0000   1.0000   1.0000   1.0000   1.0000   1.0000   1.0000
     1.0000   1.0000   1.0000   1.0000   1.0000   1.0000   1.0000   1.0000
     1.0000   1.0000   1.0000   1.0000   1.0000   1.0000   1.0000   1.0000

          k =-0.5000 1.2701 0.1661 (  4322 PWs)   bands (ev):

   -14.3592 -14.3592 -14.3581 -14.3581 -14.3491 -14.3491 -14.3474 -14.3474
   -14.3419 -14.3419 -14.3407 -14.3407 -14.3181 -14.3181 -14.3148 -14.3148
   -14.2998 -14.2998 -14.2970 -14.2970  -5.5166  -5.5166  -5.3055  -5.3055
    -0.2578  -0.2578  -0.0073  -0.0073   4.1227   4.1227   4.4626   4.4626
     4.9392   4.9392   5.1440   5.1440   5.8337   5.8337   6.1292   6.1292

     occupation numbers 
     1.0000   1.0000   1.0000   1.0000   1.0000   1.0000   1.0000   1.0000
     1.0000   1.0000   1.0000   1.0000   1.0000   1.0000   1.0000   1.0000
     1.0000   1.0000   1.0000   1.0000   1.0000   1.0000   1.0000   1.0000
     1.0000   1.0000   1.0000   1.0000   1.0000   1.0000   1.0000   1.0000
     1.0000   1.0000   1.0000   1.0000   1.0000   1.0000   1.0000   1.0000

          k =-0.5000 1.2701 0.4984 (  4334 PWs)   bands (ev):

   -14.3610 -14.3610 -14.3596 -14.3596 -14.3494 -14.3494 -14.3474 -14.3474
   -14.3411 -14.3411 -14.3401 -14.3401 -14.3171 -14.3171 -14.3141 -14.3141
   -14.2999 -14.2999 -14.2970 -14.2970  -5.4549  -5.4549  -5.2702  -5.2702
    -0.1217  -0.1217   0.1103   0.1103   3.5352   3.5352   4.0188   4.0188
     4.5319   4.5319   4.9691   4.9691   5.4363   5.4363   5.8614   5.8614

     occupation numbers 
     1.0000   1.0000   1.0000   1.0000   1.0000   1.0000   1.0000   1.0000
     1.0000   1.0000   1.0000   1.0000   1.0000   1.0000   1.0000   1.0000
     1.0000   1.0000   1.0000   1.0000   1.0000   1.0000   1.0000   1.0000
     1.0000   1.0000   1.0000   1.0000   1.0000   1.0000   1.0000   1.0000
     1.0000   1.0000   1.0000   1.0000   1.0000   1.0000   1.0000   1.0000

          k =-0.5000 1.2701 0.8307 (  4316 PWs)   bands (ev):

   -14.3634 -14.3634 -14.3618 -14.3618 -14.3499 -14.3499 -14.3475 -14.3475
   -14.3402 -14.3402 -14.3391 -14.3391 -14.3156 -14.3156 -14.3130 -14.3130
   -14.3000 -14.3000 -14.2970 -14.2970  -5.3579  -5.3579  -5.2251  -5.2251
     0.0868   0.0868   0.3145   0.3145   2.9465   2.9465   3.4371   3.4371
     3.9825   3.9825   4.4281   4.4281   5.2719   5.2719   5.6370   5.6370

     occupation numbers 
     1.0000   1.0000   1.0000   1.0000   1.0000   1.0000   1.0000   1.0000
     1.0000   1.0000   1.0000   1.0000   1.0000   1.0000   1.0000   1.0000
     1.0000   1.0000   1.0000   1.0000   1.0000   1.0000   1.0000   1.0000
     1.0000   1.0000   1.0000   1.0000   1.0000   1.0000   1.0000   1.0000
     1.0000   1.0000   1.0000   1.0000   1.0000   1.0000   1.0000   1.0000

          k =-0.5000 1.2701 1.1630 (  4300 PWs)   bands (ev):

   -14.3650 -14.3650 -14.3634 -14.3634 -14.3503 -14.3503 -14.3477 -14.3477
   -14.3397 -14.3397 -14.3384 -14.3384 -14.3144 -14.3144 -14.3121 -14.3121
   -14.3001 -14.3001 -14.2970 -14.2970  -5.2734  -5.2734  -5.2052  -5.2052
     0.2351   0.2351   0.5140   0.5140   2.7155   2.7155   2.9653   2.9653
     3.5846   3.5846   3.9137   3.9137   5.3707   5.3707   5.5485   5.5485

     occupation numbers 
     1.0000   1.0000   1.0000   1.0000   1.0000   1.0000   1.0000   1.0000
     1.0000   1.0000   1.0000   1.0000   1.0000   1.0000   1.0000   1.0000
     1.0000   1.0000   1.0000   1.0000   1.0000   1.0000   1.0000   1.0000
     1.0000   1.0000   1.0000   1.0000   1.0000   1.0000   1.0000   1.0000
     1.0000   1.0000   1.0000   1.0000   1.0000   1.0000   1.0000   1.0000

     highest occupied level (ev):     6.8047

!    total energy              =    -827.73120616 Ry
     estimated scf accuracy    <          1.8E-09 Ry

     The total energy is the sum of the following terms:
     one-electron contribution =    -276.87835987 Ry
     hartree contribution      =     185.91554384 Ry
     xc contribution           =    -308.81184605 Ry
     ewald contribution        =    -427.83990990 Ry
     DFT-D3 Dispersion         =      -0.11663418 Ry

     convergence has been achieved in  12 iterations

     Forces acting on atoms (cartesian axes, Ry/au):

     atom    1 type  2   force =    -0.01011812    0.00000000   -0.00008436
     atom    2 type  1   force =     0.01163116    0.00000000    0.00239441
     atom    3 type  2   force =     0.01011812    0.00000000   -0.00008436
     atom    4 type  1   force =    -0.01163116   -0.00000000    0.00239441
     atom    5 type  2   force =    -0.01011812    0.00000000    0.00008436
     atom    6 type  1   force =     0.01163116    0.00000000   -0.00239441
     atom    7 type  2   force =     0.01011812   -0.00000000    0.00008436
     atom    8 type  1   force =    -0.01163116    0.00000000   -0.00239441
     The non-local contrib.  to forces
     atom    1 type  2   force =    -0.09107150    0.00000000    0.11842786
     atom    2 type  1   force =     0.33223725    0.00000000    0.30224844
     atom    3 type  2   force =     0.09107150    0.00000000    0.11842786
     atom    4 type  1   force =    -0.33223725    0.00000000    0.30224844
     atom    5 type  2   force =    -0.09107150    0.00000000   -0.11842786
     atom    6 type  1   force =     0.33223725    0.00000000   -0.30224844
     atom    7 type  2   force =     0.09107150    0.00000000   -0.11842786
     atom    8 type  1   force =    -0.33223725    0.00000000   -0.30224844
     The ionic contribution  to forces
     atom    1 type  2   force =     0.82612926   -0.00000000   -1.46694793
     atom    2 type  1   force =    -0.56500353   -0.00000000   -0.94556975
     atom    3 type  2   force =    -0.82612926    0.00000000   -1.46694793
     atom    4 type  1   force =     0.56500353   -0.00000000   -0.94556975
     atom    5 type  2   force =     0.82612926    0.00000000    1.46694793
     atom    6 type  1   force =    -0.56500353   -0.00000000    0.94556975
     atom    7 type  2   force =    -0.82612926   -0.00000000    1.46694793
     atom    8 type  1   force =     0.56500353   -0.00000000    0.94556975
     The local contribution  to forces
     atom    1 type  2   force =    -0.75568312    0.00000000    1.35944970
     atom    2 type  1   force =     0.25199651    0.00000000    0.64868648
     atom    3 type  2   force =     0.75568312    0.00000000    1.35944970
     atom    4 type  1   force =    -0.25199651    0.00000000    0.64868648
     atom    5 type  2   force =    -0.75568312    0.00000000   -1.35944970
     atom    6 type  1   force =     0.25199651   -0.00000000   -0.64868648
     atom    7 type  2   force =     0.75568312    0.00000000   -1.35944970
     atom    8 type  1   force =    -0.25199651    0.00000000   -0.64868648
     The core correction contribution to forces
     atom    1 type  2   force =     0.01067766    0.00000000   -0.01326589
     atom    2 type  1   force =    -0.00773561    0.00000000   -0.00457202
     atom    3 type  2   force =    -0.01067766   -0.00000000   -0.01326589
     atom    4 type  1   force =     0.00773561    0.00000000   -0.00457202
     atom    5 type  2   force =     0.01067766    0.00000000    0.01326589
     atom    6 type  1   force =    -0.00773561    0.00000000    0.00457202
     atom    7 type  2   force =    -0.01067766   -0.00000000    0.01326589
     atom    8 type  1   force =     0.00773561   -0.00000000    0.00457202
     The Hubbard contrib.    to forces
     atom    1 type  2   force =     0.00000000    0.00000000    0.00000000
     atom    2 type  1   force =     0.00000000    0.00000000    0.00000000
     atom    3 type  2   force =     0.00000000    0.00000000    0.00000000
     atom    4 type  1   force =     0.00000000    0.00000000    0.00000000
     atom    5 type  2   force =     0.00000000    0.00000000    0.00000000
     atom    6 type  1   force =     0.00000000    0.00000000    0.00000000
     atom    7 type  2   force =     0.00000000    0.00000000    0.00000000
     atom    8 type  1   force =     0.00000000    0.00000000    0.00000000
     The SCF correction term to forces
     atom    1 type  2   force =    -0.00000079   -0.00000000   -0.00000189
     atom    2 type  1   force =     0.00002543    0.00000000    0.00001580
     atom    3 type  2   force =     0.00000079   -0.00000000   -0.00000189
     atom    4 type  1   force =    -0.00002543   -0.00000000    0.00001580
     atom    5 type  2   force =    -0.00000079    0.00000000    0.00000189
     atom    6 type  1   force =     0.00002543    0.00000000   -0.00001580
     atom    7 type  2   force =     0.00000079    0.00000000    0.00000189
     atom    8 type  1   force =    -0.00002543   -0.00000000   -0.00001580

     DFT-D3 dispersion contribution to forces:
     atom    1 type  2   force =    -0.00016963   -0.00000000    0.00225378
     atom    2 type  1   force =     0.00011110   -0.00000000    0.00158546
     atom    3 type  2   force =     0.00016963    0.00000000    0.00225378
     atom    4 type  1   force =    -0.00011110   -0.00000000    0.00158546
     atom    5 type  2   force =    -0.00016963   -0.00000000   -0.00225378
     atom    6 type  1   force =     0.00011110    0.00000000   -0.00158546
     atom    7 type  2   force =     0.00016963    0.00000000   -0.00225378
     atom    8 type  1   force =    -0.00011110    0.00000000   -0.00158546

     Total force =     0.031203     Total SCF correction =     0.000060

     DFT-D3 dispersion Force =     0.005526

     Writing all to output data dir ./tmp/SnSe_pnma.save/ :
     XML data file, charge density, pseudopotentials, collected wavefunctions
 
     init_run     :      1.20s CPU      1.34s WALL (       1 calls)
     electrons    :     24.32s CPU     26.27s WALL (       1 calls)
     forces       :      0.49s CPU      0.58s WALL (       1 calls)
     force_dftd3  :      0.06s CPU      0.07s WALL (       1 calls)

     Called by init_run:
     wfcinit      :      0.72s CPU      0.74s WALL (       1 calls)
     wfcinit:atom :      0.01s CPU      0.01s WALL (      11 calls)
     wfcinit:wfcr :      0.61s CPU      0.62s WALL (      11 calls)
     potinit      :      0.10s CPU      0.11s WALL (       1 calls)
     hinit0       :      0.19s CPU      0.20s WALL (       1 calls)

     Called by electrons:
     c_bands      :     17.76s CPU     18.03s WALL (      12 calls)
     sum_band     :      4.32s CPU      5.10s WALL (      12 calls)
     v_of_rho     :      0.77s CPU      0.82s WALL (      13 calls)
     v_h          :      0.05s CPU      0.05s WALL (      13 calls)
     v_xc         :      0.78s CPU      0.83s WALL (      14 calls)
     newd         :      1.48s CPU      2.40s WALL (      13 calls)
     mix_rho      :      0.09s CPU      0.09s WALL (      12 calls)
     energy_dftd3 :      0.04s CPU      0.04s WALL (       1 calls)

     Called by c_bands:
     init_us_2    :      0.59s CPU      0.61s WALL (     286 calls)
     cegterg      :     15.49s CPU     15.68s WALL (     132 calls)

     Called by sum_band:
     sum_band:wei :      0.00s CPU      0.00s WALL (      12 calls)
     sum_band:loo :      2.53s CPU      2.54s WALL (      12 calls)
     sum_band:buf :      0.04s CPU      0.04s WALL (     132 calls)
     sum_band:ini :      0.27s CPU      0.27s WALL (     132 calls)
     sum_band:cal :      0.39s CPU      0.39s WALL (     132 calls)
     sum_band:bec :      0.01s CPU      0.01s WALL (     132 calls)
     addusdens    :      1.58s CPU      2.31s WALL (      12 calls)
                                        0.00s GPU  (      12 calls)
     addusd:skk   :      0.01s CPU      0.01s WALL (      24 calls)
                                        0.00s GPU  (      24 calls)

     Called by *egterg:
     cdiaghg      :      0.91s CPU      0.92s WALL (     601 calls)
     cegterg:over :      0.88s CPU      0.88s WALL (     469 calls)
     cegterg:upda :      0.51s CPU      0.51s WALL (     469 calls)
     cegterg:last :      1.19s CPU      1.19s WALL (     314 calls)
     h_psi        :     10.79s CPU     10.94s WALL (     612 calls)
     s_psi        :      1.25s CPU      1.25s WALL (     612 calls)
     g_psi        :      0.05s CPU      0.05s WALL (     469 calls)

     Called by h_psi:
     h_psi:calbec :      1.20s CPU      1.21s WALL (     612 calls)
     vloc_psi     :      8.18s CPU      8.32s WALL (     612 calls)
     add_vuspsi   :      1.29s CPU      1.30s WALL (     612 calls)

     General routines
     calbec       :      1.71s CPU      1.73s WALL (     788 calls)
     fft          :      0.33s CPU      0.35s WALL (     178 calls)
     ffts         :      0.01s CPU      0.01s WALL (      25 calls)
     fftw         :      6.66s CPU      6.76s WALL (   36156 calls)
     interpolate  :      0.03s CPU      0.04s WALL (      13 calls)
 
     Parallel routines
 
     PWSCF        :     26.23s CPU     28.83s WALL

 
   This run was terminated on:  14:21:57  20May2026            

=------------------------------------------------------------------------------=
   JOB DONE.
=------------------------------------------------------------------------------=
