
     Program PWSCF v.7.3.1 starts on 20May2026 at 16: 7: 1 

     This program is part of the open-source Quantum ESPRESSO suite
     for quantum simulation of materials; please cite
         "P. Giannozzi et al., J. Phys.:Condens. Matter 21 395502 (2009);
         "P. Giannozzi et al., J. Phys.:Condens. Matter 29 465901 (2017);
         "P. Giannozzi et al., J. Chem. Phys. 152 154105 (2020);
          URL http://www.quantum-espresso.org", 
     in publications or presentations arising from this work. More details at
     http://www.quantum-espresso.org/quote

     Parallel version (MPI & OpenMP), running on       6 processor cores
     Number of MPI processes:                 6
     Threads/MPI process:                     1

     MPI processes distributed on     1 nodes
     10710 MiB available memory on the printing compute node when the environment starts
 
     Waiting for input...
     Reading input from standard input

     Current dimensions of program PWSCF are:
     Max number of different atomic species (ntypx) = 10
     Max number of k-points (npk) =  40000
     Max angular momentum in pseudopotentials (lmaxx) =  4
 
     K-points division:     npool     =       3
     R & G space division:  proc/nbgrp/npool/nimage =       2
     Subspace diagonalization in iterative solution of the eigenvalue problem:
     a serial algorithm will be used

 
     Parallelization info
     --------------------
     sticks:   dense  smooth     PW     G-vecs:    dense   smooth      PW
     Min        2637    1047    310                96284    24351    3851
     Max        2638    1048    311                96285    24354    3852
     Sum        5275    2095    621               192569    48705    7703
 
     Using Slab Decomposition
 


     bravais-lattice index     =            8
     lattice parameter (alat)  =      21.0138  a.u.
     unit-cell volume          =    1425.9992 (a.u.)^3
     number of atoms/cell      =            8
     number of atomic types    =            2
     number of electrons       =        80.00
     number of Kohn-Sham states=           40
     kinetic-energy cutoff     =      40.0000  Ry
     charge density cutoff     =     400.0000  Ry
     scf convergence threshold =      1.0E-08
     mixing beta               =       0.7000
     number of iterations used =            8  plain     mixing
     Exchange-correlation= SLA  PW   PBE  PBE
                           (   1   4   3   4   0   0   0)

     celldm(1)=  21.013755  celldm(2)=   0.375126  celldm(3)=   0.409667
     celldm(4)=   0.000000  celldm(5)=   0.000000  celldm(6)=   0.000000

     crystal axes: (cart. coord. in units of alat)
               a(1) = (   1.000000   0.000000   0.000000 )  
               a(2) = (   0.000000   0.375126   0.000000 )  
               a(3) = (   0.000000   0.000000   0.409667 )  

     reciprocal axes: (cart. coord. in units 2 pi/alat)
               b(1) = (  1.000000  0.000000  0.000000 )  
               b(2) = (  0.000000  2.665772  0.000000 )  
               b(3) = (  0.000000  0.000000  2.441005 )  


     PseudoPot. # 1 for Sn read from file:
     ../pseudo/Sn_pbe_v1.uspp.F.UPF
     MD5 check sum: 4cf58ce39ec5d5d420df3dd08604eb00
     Pseudo is Ultrasoft + core correction, Zval = 14.0
     Generated by new atomic code, or converted to UPF format
     Using radial grid of  891 points,  6 beta functions with: 
                l(1) =   0
                l(2) =   0
                l(3) =   1
                l(4) =   1
                l(5) =   2
                l(6) =   2
     Q(r) pseudized with  6 coefficients,  rinner =    1.200   1.200   1.200
                                                       1.200   1.200

     PseudoPot. # 2 for Se read from file:
     ../pseudo/Se_pbe_v1.uspp.F.UPF
     MD5 check sum: 1b3568f3a8ae88f9a2a0ad0698632c85
     Pseudo is Ultrasoft + core correction, Zval =  6.0
     Generated by new atomic code, or converted to UPF format
     Using radial grid of  877 points,  6 beta functions with: 
                l(1) =   0
                l(2) =   0
                l(3) =   1
                l(4) =   1
                l(5) =   2
                l(6) =   2
     Q(r) pseudized with  8 coefficients,  rinner =    1.300   1.300   1.300
                                                       1.300   1.300

     atomic species   valence    mass     pseudopotential
     Sn               14.00   118.71000     Sn( 1.00)
     Se                6.00    78.97100     Se( 1.00)

      8 Sym. Ops., with inversion, found ( 6 have fractional translation)


                                    s                        frac. trans.

      isym =  1     identity                                     

 cryst.   s( 1) = (     1          0          0      )
                  (     0          1          0      )
                  (     0          0          1      )

 cart.    s( 1) = (  1.0000000  0.0000000  0.0000000 )
                  (  0.0000000  1.0000000  0.0000000 )
                  (  0.0000000  0.0000000  1.0000000 )


      isym =  2     180 deg rotation - cart. axis [0,0,1]        

 cryst.   s( 2) = (    -1          0          0      )    f =(  0.5000000 )
                  (     0         -1          0      )       (  0.0000000 )
                  (     0          0          1      )       ( -0.5000000 )

 cart.    s( 2) = ( -1.0000000  0.0000000  0.0000000 )    f =(  0.5000000 )
                  (  0.0000000 -1.0000000  0.0000000 )       (  0.0000000 )
                  (  0.0000000  0.0000000  1.0000000 )       ( -0.2048336 )


      isym =  3     180 deg rotation - cart. axis [0,1,0]        

 cryst.   s( 3) = (    -1          0          0      )    f =(  0.0000000 )
                  (     0          1          0      )       ( -0.5000000 )
                  (     0          0         -1      )       (  0.0000000 )

 cart.    s( 3) = ( -1.0000000  0.0000000  0.0000000 )    f =(  0.0000000 )
                  (  0.0000000  1.0000000  0.0000000 )       ( -0.1875629 )
                  (  0.0000000  0.0000000 -1.0000000 )       (  0.0000000 )


      isym =  4     180 deg rotation - cart. axis [1,0,0]        

 cryst.   s( 4) = (     1          0          0      )    f =(  0.5000000 )
                  (     0         -1          0      )       ( -0.5000000 )
                  (     0          0         -1      )       ( -0.5000000 )

 cart.    s( 4) = (  1.0000000  0.0000000  0.0000000 )    f =(  0.5000000 )
                  (  0.0000000 -1.0000000  0.0000000 )       ( -0.1875629 )
                  (  0.0000000  0.0000000 -1.0000000 )       ( -0.2048336 )


      isym =  5     inversion                                    

 cryst.   s( 5) = (    -1          0          0      )
                  (     0         -1          0      )
                  (     0          0         -1      )

 cart.    s( 5) = ( -1.0000000  0.0000000  0.0000000 )
                  (  0.0000000 -1.0000000  0.0000000 )
                  (  0.0000000  0.0000000 -1.0000000 )


      isym =  6     inv. 180 deg rotation - cart. axis [0,0,1]   

 cryst.   s( 6) = (     1          0          0      )    f =(  0.5000000 )
                  (     0          1          0      )       (  0.0000000 )
                  (     0          0         -1      )       ( -0.5000000 )

 cart.    s( 6) = (  1.0000000  0.0000000  0.0000000 )    f =(  0.5000000 )
                  (  0.0000000  1.0000000  0.0000000 )       (  0.0000000 )
                  (  0.0000000  0.0000000 -1.0000000 )       ( -0.2048336 )


      isym =  7     inv. 180 deg rotation - cart. axis [0,1,0]   

 cryst.   s( 7) = (     1          0          0      )    f =(  0.0000000 )
                  (     0         -1          0      )       ( -0.5000000 )
                  (     0          0          1      )       (  0.0000000 )

 cart.    s( 7) = (  1.0000000  0.0000000  0.0000000 )    f =(  0.0000000 )
                  (  0.0000000 -1.0000000  0.0000000 )       ( -0.1875629 )
                  (  0.0000000  0.0000000  1.0000000 )       (  0.0000000 )


      isym =  8     inv. 180 deg rotation - cart. axis [1,0,0]   

 cryst.   s( 8) = (    -1          0          0      )    f =(  0.5000000 )
                  (     0          1          0      )       ( -0.5000000 )
                  (     0          0          1      )       ( -0.5000000 )

 cart.    s( 8) = ( -1.0000000  0.0000000  0.0000000 )    f =(  0.5000000 )
                  (  0.0000000  1.0000000  0.0000000 )       ( -0.1875629 )
                  (  0.0000000  0.0000000  1.0000000 )       ( -0.2048336 )


     point group D_2h (mmm) 
     there are  8 classes
     the character table:

       E     C2    C2'   C2''  i     s_v   s_v'  s_v''
A_g    1.00  1.00  1.00  1.00  1.00  1.00  1.00  1.00
B_1g   1.00  1.00 -1.00 -1.00  1.00  1.00 -1.00 -1.00
B_2g   1.00 -1.00  1.00 -1.00  1.00 -1.00  1.00 -1.00
B_3g   1.00 -1.00 -1.00  1.00  1.00 -1.00 -1.00  1.00
A_u    1.00  1.00  1.00  1.00 -1.00 -1.00 -1.00 -1.00
B_1u   1.00  1.00 -1.00 -1.00 -1.00 -1.00  1.00  1.00
B_2u   1.00 -1.00  1.00 -1.00 -1.00  1.00 -1.00  1.00
B_3u   1.00 -1.00 -1.00  1.00 -1.00  1.00  1.00 -1.00

     the symmetry operations in each class and the name of the first element:

     E        1
          identity                                               
     C2       2
          180 deg rotation - cart. axis [0,0,1]                  
     C2'      4
          180 deg rotation - cart. axis [1,0,0]                  
     C2''     3
          180 deg rotation - cart. axis [0,1,0]                  
     i        5
          inversion                                              
     s_v      6
          inv. 180 deg rotation - cart. axis [0,0,1]             
     s_v'     8
          inv. 180 deg rotation - cart. axis [1,0,0]             
     s_v''    7
          inv. 180 deg rotation - cart. axis [0,1,0]             

   Cartesian axes

     site n.     atom                  positions (alat units)
         1        Se     tau(   1) = (   0.8549563   0.0937815   0.1979709  )
         2        Sn     tau(   2) = (   0.1165395   0.0937815   0.0460003  )
         3        Se     tau(   3) = (   0.6450437   0.2813444   0.4028045  )
         4        Sn     tau(   4) = (   0.3834605   0.2813444   0.2508339  )
         5        Se     tau(   5) = (   0.3549563   0.0937815   0.0068627  )
         6        Sn     tau(   6) = (   0.6165395   0.0937815   0.1588333  )
         7        Se     tau(   7) = (   0.1450437   0.2813444   0.2116964  )
         8        Sn     tau(   8) = (   0.8834605   0.2813444   0.3636670  )

     --------------------------------------------
     DFT-D3 Dispersion Correction (3-body terms):
     --------------------------------------------
       Reference C6 values for interpolation: 

         atom   Coordination number   C6
         Se         0.000           427.35
         Se         0.990           427.57
         Se         1.981           421.05
         Sn         0.000          1255.14
         Sn         0.951          1084.09
         Sn         1.950          1010.83
         Sn         2.926           818.29
         Sn         3.912           672.20

       Values used:

         atom   Coordination number  R0_AB[au]  C6      C8
         Se         3.573            3.332    421.05  29958.36
         Sn         4.414            3.957    672.26  84375.70
         Se         3.573            3.332    421.05  29958.36
         Sn         4.414            3.957    672.26  84375.70
         Se         3.573            3.332    421.05  29958.36
         Sn         4.414            3.957    672.26  84375.70
         Se         3.573            3.332    421.05  29958.36
         Sn         4.414            3.957    672.26  84375.70

         Molecular C6 ( Ry / a.u.^6 ) =     34497.72


   Crystallographic axes

     site n.     atom                  positions (cryst. coord.)
         1        Se     tau(   1) = (  0.8549563  0.2500000  0.4832481  )
         2        Sn     tau(   2) = (  0.1165395  0.2500000  0.1122870  )
         3        Se     tau(   3) = (  0.6450437  0.7500000  0.9832481  )
         4        Sn     tau(   4) = (  0.3834605  0.7500000  0.6122870  )
         5        Se     tau(   5) = (  0.3549563  0.2500000  0.0167519  )
         6        Sn     tau(   6) = (  0.6165395  0.2500000  0.3877130  )
         7        Se     tau(   7) = (  0.1450437  0.7500000  0.5167519  )
         8        Sn     tau(   8) = (  0.8834605  0.7500000  0.8877130  )

     number of k points=    32
                       cart. coord. in units 2pi/alat
        k(    1) = (   0.1666667   0.1666107   0.1525628), wk =   0.0833333
        k(    2) = (   0.1666667   0.1666107   0.4576885), wk =   0.0833333
        k(    3) = (   0.1666667   0.1666107   0.7628142), wk =   0.0833333
        k(    4) = (   0.1666667   0.1666107   1.0679399), wk =   0.0833333
        k(    5) = (   0.1666667   0.4998322   0.1525628), wk =   0.0833333
        k(    6) = (   0.1666667   0.4998322   0.4576885), wk =   0.0833333
        k(    7) = (   0.1666667   0.4998322   0.7628142), wk =   0.0833333
        k(    8) = (   0.1666667   0.4998322   1.0679399), wk =   0.0833333
        k(    9) = (   0.1666667   0.8330537   0.1525628), wk =   0.0833333
        k(   10) = (   0.1666667   0.8330537   0.4576885), wk =   0.0833333
        k(   11) = (   0.1666667   0.8330537   0.7628142), wk =   0.0833333
        k(   12) = (   0.1666667   0.8330537   1.0679399), wk =   0.0833333
        k(   13) = (   0.1666667   1.1662751   0.1525628), wk =   0.0833333
        k(   14) = (   0.1666667   1.1662751   0.4576885), wk =   0.0833333
        k(   15) = (   0.1666667   1.1662751   0.7628142), wk =   0.0833333
        k(   16) = (   0.1666667   1.1662751   1.0679399), wk =   0.0833333
        k(   17) = (  -0.5000000   0.1666107   0.1525628), wk =   0.0416667
        k(   18) = (  -0.5000000   0.1666107   0.4576885), wk =   0.0416667
        k(   19) = (  -0.5000000   0.1666107   0.7628142), wk =   0.0416667
        k(   20) = (  -0.5000000   0.1666107   1.0679399), wk =   0.0416667
        k(   21) = (  -0.5000000   0.4998322   0.1525628), wk =   0.0416667
        k(   22) = (  -0.5000000   0.4998322   0.4576885), wk =   0.0416667
        k(   23) = (  -0.5000000   0.4998322   0.7628142), wk =   0.0416667
        k(   24) = (  -0.5000000   0.4998322   1.0679399), wk =   0.0416667
        k(   25) = (  -0.5000000   0.8330537   0.1525628), wk =   0.0416667
        k(   26) = (  -0.5000000   0.8330537   0.4576885), wk =   0.0416667
        k(   27) = (  -0.5000000   0.8330537   0.7628142), wk =   0.0416667
        k(   28) = (  -0.5000000   0.8330537   1.0679399), wk =   0.0416667
        k(   29) = (  -0.5000000   1.1662751   0.1525628), wk =   0.0416667
        k(   30) = (  -0.5000000   1.1662751   0.4576885), wk =   0.0416667
        k(   31) = (  -0.5000000   1.1662751   0.7628142), wk =   0.0416667
        k(   32) = (  -0.5000000   1.1662751   1.0679399), wk =   0.0416667

                       cryst. coord.
        k(    1) = (   0.1666667   0.0625000   0.0625000), wk =   0.0833333
        k(    2) = (   0.1666667   0.0625000   0.1875000), wk =   0.0833333
        k(    3) = (   0.1666667   0.0625000   0.3125000), wk =   0.0833333
        k(    4) = (   0.1666667   0.0625000   0.4375000), wk =   0.0833333
        k(    5) = (   0.1666667   0.1875000   0.0625000), wk =   0.0833333
        k(    6) = (   0.1666667   0.1875000   0.1875000), wk =   0.0833333
        k(    7) = (   0.1666667   0.1875000   0.3125000), wk =   0.0833333
        k(    8) = (   0.1666667   0.1875000   0.4375000), wk =   0.0833333
        k(    9) = (   0.1666667   0.3125000   0.0625000), wk =   0.0833333
        k(   10) = (   0.1666667   0.3125000   0.1875000), wk =   0.0833333
        k(   11) = (   0.1666667   0.3125000   0.3125000), wk =   0.0833333
        k(   12) = (   0.1666667   0.3125000   0.4375000), wk =   0.0833333
        k(   13) = (   0.1666667   0.4375000   0.0625000), wk =   0.0833333
        k(   14) = (   0.1666667   0.4375000   0.1875000), wk =   0.0833333
        k(   15) = (   0.1666667   0.4375000   0.3125000), wk =   0.0833333
        k(   16) = (   0.1666667   0.4375000   0.4375000), wk =   0.0833333
        k(   17) = (  -0.5000000   0.0625000   0.0625000), wk =   0.0416667
        k(   18) = (  -0.5000000   0.0625000   0.1875000), wk =   0.0416667
        k(   19) = (  -0.5000000   0.0625000   0.3125000), wk =   0.0416667
        k(   20) = (  -0.5000000   0.0625000   0.4375000), wk =   0.0416667
        k(   21) = (  -0.5000000   0.1875000   0.0625000), wk =   0.0416667
        k(   22) = (  -0.5000000   0.1875000   0.1875000), wk =   0.0416667
        k(   23) = (  -0.5000000   0.1875000   0.3125000), wk =   0.0416667
        k(   24) = (  -0.5000000   0.1875000   0.4375000), wk =   0.0416667
        k(   25) = (  -0.5000000   0.3125000   0.0625000), wk =   0.0416667
        k(   26) = (  -0.5000000   0.3125000   0.1875000), wk =   0.0416667
        k(   27) = (  -0.5000000   0.3125000   0.3125000), wk =   0.0416667
        k(   28) = (  -0.5000000   0.3125000   0.4375000), wk =   0.0416667
        k(   29) = (  -0.5000000   0.4375000   0.0625000), wk =   0.0416667
        k(   30) = (  -0.5000000   0.4375000   0.1875000), wk =   0.0416667
        k(   31) = (  -0.5000000   0.4375000   0.3125000), wk =   0.0416667
        k(   32) = (  -0.5000000   0.4375000   0.4375000), wk =   0.0416667

     Dense  grid:   192569 G-vectors     FFT dimensions: ( 144,  54,  60)

     Smooth grid:    48705 G-vectors     FFT dimensions: (  90,  32,  36)

     Dynamical RAM for                 wfc:       1.86 MB

     Dynamical RAM for     wfc (w. buffer):      22.31 MB

     Dynamical RAM for           str. fact:       2.94 MB

     Dynamical RAM for           local pot:       0.00 MB

     Dynamical RAM for          nlocal pot:       6.69 MB

     Dynamical RAM for                qrad:       3.21 MB

     Dynamical RAM for          rho,v,vnew:       9.75 MB

     Dynamical RAM for               rhoin:       3.25 MB

     Dynamical RAM for            rho*nmix:      23.51 MB

     Dynamical RAM for           G-vectors:       5.70 MB

     Dynamical RAM for          h,s,v(r/c):       0.29 MB

     Dynamical RAM for          <psi|beta>:       0.09 MB

     Dynamical RAM for                 psi:       3.72 MB

     Dynamical RAM for                hpsi:       3.72 MB

     Dynamical RAM for                spsi:       3.72 MB

     Dynamical RAM for      wfcinit/wfcrot:       4.90 MB

     Dynamical RAM for           addusdens:      94.03 MB

     Dynamical RAM for          addusforce:      96.74 MB

     Estimated static dynamical RAM per process >      67.15 MB

     Estimated max dynamical RAM per process >     187.39 MB

     Estimated total dynamical RAM >       1.01 GB

     Initial potential from superposition of free atoms

     starting charge      75.9995, renormalised to      80.0000
     Starting wfcs are   52 randomized atomic wfcs

     total cpu time spent up to now is        2.2 secs

     Self-consistent Calculation

     iteration #  1     ecut=    40.00 Ry     beta= 0.70
     Davidson diagonalization with overlap

---- Real-time Memory Report at c_bands before calling an iterative solver
           255 MiB given to the printing process from OS
             0 MiB allocation reported by mallinfo(arena+hblkhd)
         10106 MiB available memory on the node where the printing process lives
------------------
     ethr =  1.00E-02,  avg # of iterations =  2.0

     total cpu time spent up to now is        5.4 secs

     total energy              =    -826.63275397 Ry
     estimated scf accuracy    <       2.65849592 Ry

     iteration #  2     ecut=    40.00 Ry     beta= 0.70
     Davidson diagonalization with overlap

---- Real-time Memory Report at c_bands before calling an iterative solver
           323 MiB given to the printing process from OS
             0 MiB allocation reported by mallinfo(arena+hblkhd)
          9877 MiB available memory on the node where the printing process lives
------------------
     ethr =  3.32E-03,  avg # of iterations =  3.0

     total cpu time spent up to now is        8.8 secs

     total energy              =    -827.54339378 Ry
     estimated scf accuracy    <       0.92419063 Ry

     iteration #  3     ecut=    40.00 Ry     beta= 0.70
     Davidson diagonalization with overlap

---- Real-time Memory Report at c_bands before calling an iterative solver
           343 MiB given to the printing process from OS
             0 MiB allocation reported by mallinfo(arena+hblkhd)
          9765 MiB available memory on the node where the printing process lives
------------------
     ethr =  1.16E-03,  avg # of iterations =  2.5

     total cpu time spent up to now is       11.9 secs

     total energy              =    -827.72790204 Ry
     estimated scf accuracy    <       0.00911850 Ry

     iteration #  4     ecut=    40.00 Ry     beta= 0.70
     Davidson diagonalization with overlap

---- Real-time Memory Report at c_bands before calling an iterative solver
           347 MiB given to the printing process from OS
             0 MiB allocation reported by mallinfo(arena+hblkhd)
          9760 MiB available memory on the node where the printing process lives
------------------
     ethr =  1.14E-05,  avg # of iterations =  5.0

     total cpu time spent up to now is       15.8 secs

     total energy              =    -827.73374756 Ry
     estimated scf accuracy    <       0.00431862 Ry

     iteration #  5     ecut=    40.00 Ry     beta= 0.70
     Davidson diagonalization with overlap

---- Real-time Memory Report at c_bands before calling an iterative solver
           350 MiB given to the printing process from OS
             0 MiB allocation reported by mallinfo(arena+hblkhd)
          9752 MiB available memory on the node where the printing process lives
------------------
     ethr =  5.40E-06,  avg # of iterations =  3.3

     total cpu time spent up to now is       19.0 secs

     total energy              =    -827.73512587 Ry
     estimated scf accuracy    <       0.00116768 Ry

     iteration #  6     ecut=    40.00 Ry     beta= 0.70
     Davidson diagonalization with overlap

---- Real-time Memory Report at c_bands before calling an iterative solver
           351 MiB given to the printing process from OS
             0 MiB allocation reported by mallinfo(arena+hblkhd)
          9751 MiB available memory on the node where the printing process lives
------------------
     ethr =  1.46E-06,  avg # of iterations =  2.3

     total cpu time spent up to now is       21.8 secs

     total energy              =    -827.73530343 Ry
     estimated scf accuracy    <       0.00002735 Ry

     iteration #  7     ecut=    40.00 Ry     beta= 0.70
     Davidson diagonalization with overlap

---- Real-time Memory Report at c_bands before calling an iterative solver
           353 MiB given to the printing process from OS
             0 MiB allocation reported by mallinfo(arena+hblkhd)
          9750 MiB available memory on the node where the printing process lives
------------------
     ethr =  3.42E-08,  avg # of iterations =  5.5

     total cpu time spent up to now is       26.2 secs

     total energy              =    -827.73532768 Ry
     estimated scf accuracy    <       0.00000624 Ry

     iteration #  8     ecut=    40.00 Ry     beta= 0.70
     Davidson diagonalization with overlap

---- Real-time Memory Report at c_bands before calling an iterative solver
           355 MiB given to the printing process from OS
             0 MiB allocation reported by mallinfo(arena+hblkhd)
          9740 MiB available memory on the node where the printing process lives
------------------
     ethr =  7.80E-09,  avg # of iterations =  3.8

     total cpu time spent up to now is       29.7 secs

     total energy              =    -827.73533017 Ry
     estimated scf accuracy    <       0.00000179 Ry

     iteration #  9     ecut=    40.00 Ry     beta= 0.70
     Davidson diagonalization with overlap

---- Real-time Memory Report at c_bands before calling an iterative solver
           358 MiB given to the printing process from OS
             0 MiB allocation reported by mallinfo(arena+hblkhd)
          9737 MiB available memory on the node where the printing process lives
------------------
     ethr =  2.24E-09,  avg # of iterations =  3.0

     total cpu time spent up to now is       32.8 secs

     total energy              =    -827.73533065 Ry
     estimated scf accuracy    <       0.00000001 Ry

     iteration # 10     ecut=    40.00 Ry     beta= 0.70
     Davidson diagonalization with overlap

---- Real-time Memory Report at c_bands before calling an iterative solver
           360 MiB given to the printing process from OS
             0 MiB allocation reported by mallinfo(arena+hblkhd)
          9735 MiB available memory on the node where the printing process lives
------------------
     ethr =  1.39E-11,  avg # of iterations = 11.5

     total cpu time spent up to now is       42.3 secs

     total energy              =    -827.73533073 Ry
     estimated scf accuracy    <       0.00000005 Ry

     iteration # 11     ecut=    40.00 Ry     beta= 0.70
     Davidson diagonalization with overlap

---- Real-time Memory Report at c_bands before calling an iterative solver
           361 MiB given to the printing process from OS
             0 MiB allocation reported by mallinfo(arena+hblkhd)
          9733 MiB available memory on the node where the printing process lives
------------------
     ethr =  1.39E-11,  avg # of iterations =  3.7

     total cpu time spent up to now is       45.5 secs

     End of self-consistent calculation

          k = 0.1667 0.1666 0.1526 (  6083 PWs)   bands (ev):

   -13.2610 -13.2491 -13.2448 -13.2431 -13.2410 -13.2401 -13.2365 -13.2332
   -13.2269 -13.2242 -13.2210 -13.2201 -13.2092 -13.2014 -13.1825 -13.1816
   -13.1741 -13.1733 -13.1614 -13.1540  -5.7355  -5.4127  -4.6248  -4.1776
     0.5989   1.5322   2.5283   2.8441   3.2879   4.5350   4.6608   4.9426
     5.2206   5.3734   5.9466   6.3052   6.5720   7.0697   7.3089   7.6025

     occupation numbers 
     1.0000   1.0000   1.0000   1.0000   1.0000   1.0000   1.0000   1.0000
     1.0000   1.0000   1.0000   1.0000   1.0000   1.0000   1.0000   1.0000
     1.0000   1.0000   1.0000   1.0000   1.0000   1.0000   1.0000   1.0000
     1.0000   1.0000   1.0000   1.0000   1.0000   1.0000   1.0000   1.0000
     1.0000   1.0000   1.0000   1.0000   1.0000   1.0000   1.0000   1.0000

          k = 0.1667 0.1666 0.4577 (  6067 PWs)   bands (ev):

   -13.2592 -13.2486 -13.2448 -13.2442 -13.2414 -13.2407 -13.2373 -13.2341
   -13.2260 -13.2215 -13.2203 -13.2185 -13.2089 -13.2023 -13.1829 -13.1805
   -13.1747 -13.1745 -13.1607 -13.1545  -5.6146  -5.3015  -4.6320  -4.2284
     0.2936   1.3093   1.9355   2.5502   3.3990   4.5662   4.7829   5.3688
     5.5414   5.9151   5.9580   6.4056   6.7545   7.0591   7.4582   7.6856

     occupation numbers 
     1.0000   1.0000   1.0000   1.0000   1.0000   1.0000   1.0000   1.0000
     1.0000   1.0000   1.0000   1.0000   1.0000   1.0000   1.0000   1.0000
     1.0000   1.0000   1.0000   1.0000   1.0000   1.0000   1.0000   1.0000
     1.0000   1.0000   1.0000   1.0000   1.0000   1.0000   1.0000   1.0000
     1.0000   1.0000   1.0000   1.0000   1.0000   1.0000   1.0000   1.0000

          k = 0.1667 0.1666 0.7628 (  6079 PWs)   bands (ev):

   -13.2562 -13.2483 -13.2459 -13.2447 -13.2429 -13.2409 -13.2379 -13.2356
   -13.2246 -13.2207 -13.2173 -13.2147 -13.2090 -13.2040 -13.1825 -13.1793
   -13.1765 -13.1758 -13.1596 -13.1555  -5.3952  -5.1019  -4.6856  -4.3490
     0.0068   0.8179   1.4877   2.0831   3.7052   4.7962   4.9921   5.6210
     5.9367   6.0359   6.3258   6.4162   6.9290   7.3839   7.4733   7.9197

     occupation numbers 
     1.0000   1.0000   1.0000   1.0000   1.0000   1.0000   1.0000   1.0000
     1.0000   1.0000   1.0000   1.0000   1.0000   1.0000   1.0000   1.0000
     1.0000   1.0000   1.0000   1.0000   1.0000   1.0000   1.0000   1.0000
     1.0000   1.0000   1.0000   1.0000   1.0000   1.0000   1.0000   1.0000
     1.0000   1.0000   1.0000   1.0000   1.0000   1.0000   1.0000   1.0000

          k = 0.1667 0.1666 1.0679 (  6080 PWs)   bands (ev):

   -13.2528 -13.2499 -13.2464 -13.2459 -13.2426 -13.2416 -13.2379 -13.2371
   -13.2230 -13.2216 -13.2131 -13.2112 -13.2095 -13.2067 -13.1811 -13.1790
   -13.1780 -13.1769 -13.1582 -13.1568  -5.1282  -4.9313  -4.7546  -4.5476
    -0.0210   0.2786   1.4255   1.6543   4.1703   4.6668   5.3813   5.6903
     5.9239   6.0736   6.3984   6.6342   7.2218   7.5085   7.7113   7.7913

     occupation numbers 
     1.0000   1.0000   1.0000   1.0000   1.0000   1.0000   1.0000   1.0000
     1.0000   1.0000   1.0000   1.0000   1.0000   1.0000   1.0000   1.0000
     1.0000   1.0000   1.0000   1.0000   1.0000   1.0000   1.0000   1.0000
     1.0000   1.0000   1.0000   1.0000   1.0000   1.0000   1.0000   1.0000
     1.0000   1.0000   1.0000   1.0000   1.0000   1.0000   1.0000   1.0000

          k = 0.1667 0.4998 0.1526 (  6092 PWs)   bands (ev):

   -13.2549 -13.2477 -13.2458 -13.2429 -13.2400 -13.2397 -13.2378 -13.2361
   -13.2276 -13.2221 -13.2203 -13.2184 -13.2068 -13.2027 -13.1846 -13.1805
   -13.1774 -13.1716 -13.1614 -13.1558  -5.5700  -5.2713  -4.5650  -4.1944
     0.4649   1.3021   2.1575   2.3082   3.4007   4.3856   4.7161   5.0738
     5.3674   5.5348   5.9923   6.3606   6.5273   7.1961   7.4927   7.6465

     occupation numbers 
     1.0000   1.0000   1.0000   1.0000   1.0000   1.0000   1.0000   1.0000
     1.0000   1.0000   1.0000   1.0000   1.0000   1.0000   1.0000   1.0000
     1.0000   1.0000   1.0000   1.0000   1.0000   1.0000   1.0000   1.0000
     1.0000   1.0000   1.0000   1.0000   1.0000   1.0000   1.0000   1.0000
     1.0000   1.0000   1.0000   1.0000   1.0000   1.0000   1.0000   1.0000

          k = 0.1667 0.4998 0.4577 (  6095 PWs)   bands (ev):

   -13.2547 -13.2478 -13.2472 -13.2436 -13.2403 -13.2396 -13.2378 -13.2367
   -13.2268 -13.2224 -13.2179 -13.2160 -13.2071 -13.2028 -13.1842 -13.1804
   -13.1776 -13.1726 -13.1609 -13.1560  -5.4551  -5.1670  -4.5686  -4.2314
     0.3124   1.2565   1.7981   2.1775   3.5366   3.9842   4.3097   5.2378
     5.4235   5.9696   6.0713   6.3341   6.9211   7.0849   7.4796   7.6612

     occupation numbers 
     1.0000   1.0000   1.0000   1.0000   1.0000   1.0000   1.0000   1.0000
     1.0000   1.0000   1.0000   1.0000   1.0000   1.0000   1.0000   1.0000
     1.0000   1.0000   1.0000   1.0000   1.0000   1.0000   1.0000   1.0000
     1.0000   1.0000   1.0000   1.0000   1.0000   1.0000   1.0000   1.0000
     1.0000   1.0000   1.0000   1.0000   1.0000   1.0000   1.0000   1.0000

          k = 0.1667 0.4998 0.7628 (  6085 PWs)   bands (ev):

   -13.2545 -13.2499 -13.2475 -13.2449 -13.2413 -13.2391 -13.2386 -13.2363
   -13.2257 -13.2229 -13.2141 -13.2124 -13.2075 -13.2036 -13.1834 -13.1806
   -13.1777 -13.1742 -13.1599 -13.1566  -5.2488  -4.9818  -4.6116  -4.3254
     0.1540   0.9293   1.5217   1.9553   3.7901   3.9395   4.2610   5.1117
     5.2502   5.9386   6.0553   6.5743   6.8155   7.1142   7.3364   7.6774

     occupation numbers 
     1.0000   1.0000   1.0000   1.0000   1.0000   1.0000   1.0000   1.0000
     1.0000   1.0000   1.0000   1.0000   1.0000   1.0000   1.0000   1.0000
     1.0000   1.0000   1.0000   1.0000   1.0000   1.0000   1.0000   1.0000
     1.0000   1.0000   1.0000   1.0000   1.0000   1.0000   1.0000   1.0000
     1.0000   1.0000   1.0000   1.0000   1.0000   1.0000   1.0000   1.0000

          k = 0.1667 0.4998 1.0679 (  6070 PWs)   bands (ev):

   -13.2539 -13.2523 -13.2471 -13.2462 -13.2414 -13.2403 -13.2374 -13.2365
   -13.2246 -13.2236 -13.2106 -13.2086 -13.2085 -13.2055 -13.1823 -13.1812
   -13.1771 -13.1759 -13.1587 -13.1575  -5.0026  -4.8256  -4.6696  -4.4899
     0.1742   0.4576   1.5250   1.6954   4.1041   4.1765   4.4759   4.7782
     5.1228   5.4286   6.1133   6.3939   6.8235   7.0955   7.3865   7.5936

     occupation numbers 
     1.0000   1.0000   1.0000   1.0000   1.0000   1.0000   1.0000   1.0000
     1.0000   1.0000   1.0000   1.0000   1.0000   1.0000   1.0000   1.0000
     1.0000   1.0000   1.0000   1.0000   1.0000   1.0000   1.0000   1.0000
     1.0000   1.0000   1.0000   1.0000   1.0000   1.0000   1.0000   1.0000
     1.0000   1.0000   1.0000   1.0000   1.0000   1.0000   1.0000   1.0000

          k = 0.1667 0.8331 0.1526 (  6102 PWs)   bands (ev):

   -13.2523 -13.2500 -13.2488 -13.2478 -13.2370 -13.2353 -13.2336 -13.2320
   -13.2265 -13.2238 -13.2169 -13.2142 -13.2062 -13.2032 -13.1895 -13.1875
   -13.1736 -13.1686 -13.1615 -13.1586  -5.2660  -5.0239  -4.5078  -4.2887
     0.2918   1.0232   1.3432   1.7891   3.7435   4.4983   4.8849   5.2849
     5.5892   5.7097   6.1067   6.3017   6.6257   7.1623   7.2864   7.6956

     occupation numbers 
     1.0000   1.0000   1.0000   1.0000   1.0000   1.0000   1.0000   1.0000
     1.0000   1.0000   1.0000   1.0000   1.0000   1.0000   1.0000   1.0000
     1.0000   1.0000   1.0000   1.0000   1.0000   1.0000   1.0000   1.0000
     1.0000   1.0000   1.0000   1.0000   1.0000   1.0000   1.0000   1.0000
     1.0000   1.0000   1.0000   1.0000   1.0000   1.0000   1.0000   1.0000

          k = 0.1667 0.8331 0.4577 (  6100 PWs)   bands (ev):

   -13.2553 -13.2520 -13.2502 -13.2484 -13.2374 -13.2343 -13.2331 -13.2318
   -13.2255 -13.2238 -13.2151 -13.2125 -13.2066 -13.2027 -13.1889 -13.1872
   -13.1736 -13.1694 -13.1611 -13.1585  -5.1655  -4.9352  -4.5004  -4.2961
     0.3333   1.1162   1.3818   1.6776   3.7351   3.8530   4.2523   4.9245
     5.3581   5.8804   5.9322   6.4333   6.5038   6.9979   7.1561   7.4593

     occupation numbers 
     1.0000   1.0000   1.0000   1.0000   1.0000   1.0000   1.0000   1.0000
     1.0000   1.0000   1.0000   1.0000   1.0000   1.0000   1.0000   1.0000
     1.0000   1.0000   1.0000   1.0000   1.0000   1.0000   1.0000   1.0000
     1.0000   1.0000   1.0000   1.0000   1.0000   1.0000   1.0000   1.0000
     1.0000   1.0000   1.0000   1.0000   1.0000   1.0000   1.0000   1.0000

          k = 0.1667 0.8331 0.7628 (  6079 PWs)   bands (ev):

   -13.2584 -13.2557 -13.2516 -13.2502 -13.2370 -13.2335 -13.2329 -13.2316
   -13.2243 -13.2237 -13.2124 -13.2101 -13.2065 -13.2029 -13.1881 -13.1869
   -13.1734 -13.1705 -13.1603 -13.1585  -4.9900  -4.7828  -4.5160  -4.3335
     0.4015   1.0593   1.4534   1.6273   3.3561   3.7185   4.1449   4.4632
     4.8454   5.3420   5.6706   6.0648   6.3850   6.7271   7.0134   7.4344

     occupation numbers 
     1.0000   1.0000   1.0000   1.0000   1.0000   1.0000   1.0000   1.0000
     1.0000   1.0000   1.0000   1.0000   1.0000   1.0000   1.0000   1.0000
     1.0000   1.0000   1.0000   1.0000   1.0000   1.0000   1.0000   1.0000
     1.0000   1.0000   1.0000   1.0000   1.0000   1.0000   1.0000   1.0000
     1.0000   1.0000   1.0000   1.0000   1.0000   1.0000   1.0000   1.0000

          k = 0.1667 0.8331 1.0679 (  6092 PWs)   bands (ev):

   -13.2598 -13.2588 -13.2525 -13.2519 -13.2359 -13.2344 -13.2321 -13.2316
   -13.2237 -13.2236 -13.2099 -13.2088 -13.2055 -13.2039 -13.1873 -13.1869
   -13.1727 -13.1717 -13.1594 -13.1588  -4.7911  -4.6587  -4.5476  -4.4260
     0.5266   0.7654   1.5860   1.6408   3.3767   3.7231   3.8563   4.2140
     4.6376   4.9954   5.4448   5.8231   6.0876   6.3746   7.1077   7.2276

     occupation numbers 
     1.0000   1.0000   1.0000   1.0000   1.0000   1.0000   1.0000   1.0000
     1.0000   1.0000   1.0000   1.0000   1.0000   1.0000   1.0000   1.0000
     1.0000   1.0000   1.0000   1.0000   1.0000   1.0000   1.0000   1.0000
     1.0000   1.0000   1.0000   1.0000   1.0000   1.0000   1.0000   1.0000
     1.0000   1.0000   1.0000   1.0000   1.0000   1.0000   1.0000   1.0000

          k = 0.1667 1.1663 0.1526 (  6109 PWs)   bands (ev):

   -13.2548 -13.2536 -13.2512 -13.2501 -13.2329 -13.2315 -13.2305 -13.2286
   -13.2217 -13.2210 -13.2180 -13.2134 -13.2053 -13.1997 -13.1966 -13.1947
   -13.1679 -13.1653 -13.1626 -13.1625  -4.8849  -4.7481  -4.5533  -4.5256
     0.2975   0.6545   0.9824   1.2768   4.2511   4.6806   5.0948   5.4618
     5.6598   5.6865   6.1225   6.4525   6.7427   7.0062   7.0515   7.2337

     occupation numbers 
     1.0000   1.0000   1.0000   1.0000   1.0000   1.0000   1.0000   1.0000
     1.0000   1.0000   1.0000   1.0000   1.0000   1.0000   1.0000   1.0000
     1.0000   1.0000   1.0000   1.0000   1.0000   1.0000   1.0000   1.0000
     1.0000   1.0000   1.0000   1.0000   1.0000   1.0000   1.0000   1.0000
     1.0000   1.0000   1.0000   1.0000   1.0000   1.0000   1.0000   1.0000

          k = 0.1667 1.1663 0.4577 (  6091 PWs)   bands (ev):

   -13.2579 -13.2566 -13.2527 -13.2518 -13.2335 -13.2317 -13.2292 -13.2280
   -13.2212 -13.2201 -13.2166 -13.2128 -13.2047 -13.2007 -13.1947 -13.1937
   -13.1682 -13.1662 -13.1621 -13.1617  -4.8111  -4.6854  -4.5223  -4.4909
     0.4438   0.7918   1.0966   1.3047   4.0039   4.1877   4.4821   4.7609
     5.0306   5.4534   5.9803   6.1725   6.3005   6.5795   7.1686   7.4067

     occupation numbers 
     1.0000   1.0000   1.0000   1.0000   1.0000   1.0000   1.0000   1.0000
     1.0000   1.0000   1.0000   1.0000   1.0000   1.0000   1.0000   1.0000
     1.0000   1.0000   1.0000   1.0000   1.0000   1.0000   1.0000   1.0000
     1.0000   1.0000   1.0000   1.0000   1.0000   1.0000   1.0000   1.0000
     1.0000   1.0000   1.0000   1.0000   1.0000   1.0000   1.0000   1.0000

          k = 0.1667 1.1663 0.7628 (  6094 PWs)   bands (ev):

   -13.2617 -13.2608 -13.2548 -13.2542 -13.2337 -13.2322 -13.2280 -13.2274
   -13.2203 -13.2193 -13.2147 -13.2121 -13.2034 -13.2012 -13.1927 -13.1923
   -13.1684 -13.1671 -13.1614 -13.1610  -4.6908  -4.5865  -4.4876  -4.4482
     0.6929   1.0055   1.2692   1.3374   3.3637   3.8217   3.9388   4.2184
     4.6206   4.9226   5.3420   5.7958   5.9177   6.1649   7.0580   7.1832

     occupation numbers 
     1.0000   1.0000   1.0000   1.0000   1.0000   1.0000   1.0000   1.0000
     1.0000   1.0000   1.0000   1.0000   1.0000   1.0000   1.0000   1.0000
     1.0000   1.0000   1.0000   1.0000   1.0000   1.0000   1.0000   1.0000
     1.0000   1.0000   1.0000   1.0000   1.0000   1.0000   1.0000   1.0000
     1.0000   1.0000   1.0000   1.0000   1.0000   1.0000   1.0000   1.0000

          k = 0.1667 1.1663 1.0679 (  6104 PWs)   bands (ev):

   -13.2642 -13.2638 -13.2563 -13.2561 -13.2335 -13.2329 -13.2273 -13.2271
   -13.2195 -13.2190 -13.2130 -13.2121 -13.2021 -13.2014 -13.1915 -13.1914
   -13.1682 -13.1678 -13.1608 -13.1607  -4.5724  -4.5136  -4.4723  -4.4369
     0.9428   1.0839   1.3917   1.4312   3.1140   3.3211   3.7260   3.8390
     4.4497   4.4753   4.9957   5.3279   5.8805   6.0656   6.8942   6.9509

     occupation numbers 
     1.0000   1.0000   1.0000   1.0000   1.0000   1.0000   1.0000   1.0000
     1.0000   1.0000   1.0000   1.0000   1.0000   1.0000   1.0000   1.0000
     1.0000   1.0000   1.0000   1.0000   1.0000   1.0000   1.0000   1.0000
     1.0000   1.0000   1.0000   1.0000   1.0000   1.0000   1.0000   1.0000
     1.0000   1.0000   1.0000   1.0000   1.0000   1.0000   1.0000   1.0000

          k =-0.5000 0.1666 0.1526 (  6066 PWs)   bands (ev):

   -13.2557 -13.2557 -13.2428 -13.2428 -13.2421 -13.2421 -13.2341 -13.2341
   -13.2239 -13.2239 -13.2228 -13.2228 -13.2048 -13.2048 -13.1817 -13.1817
   -13.1740 -13.1740 -13.1575 -13.1575  -5.6035  -5.6035  -4.3716  -4.3716
     0.9285   0.9285   2.7701   2.7701   3.9986   3.9986   4.8598   4.8598
     5.4135   5.4135   6.0314   6.0314   6.3943   6.3943   7.5239   7.5239

     occupation numbers 
     1.0000   1.0000   1.0000   1.0000   1.0000   1.0000   1.0000   1.0000
     1.0000   1.0000   1.0000   1.0000   1.0000   1.0000   1.0000   1.0000
     1.0000   1.0000   1.0000   1.0000   1.0000   1.0000   1.0000   1.0000
     1.0000   1.0000   1.0000   1.0000   1.0000   1.0000   1.0000   1.0000
     1.0000   1.0000   1.0000   1.0000   1.0000   1.0000   1.0000   1.0000

          k =-0.5000 0.1666 0.4577 (  6090 PWs)   bands (ev):

   -13.2546 -13.2546 -13.2433 -13.2433 -13.2422 -13.2422 -13.2354 -13.2354
   -13.2232 -13.2232 -13.2203 -13.2203 -13.2052 -13.2052 -13.1814 -13.1814
   -13.1749 -13.1749 -13.1575 -13.1575  -5.4878  -5.4878  -4.4003  -4.4003
     0.6578   0.6578   2.2955   2.2955   4.2549   4.2549   4.9434   4.9434
     5.6360   5.6360   6.1881   6.1881   6.8246   6.8246   7.4425   7.4425

     occupation numbers 
     1.0000   1.0000   1.0000   1.0000   1.0000   1.0000   1.0000   1.0000
     1.0000   1.0000   1.0000   1.0000   1.0000   1.0000   1.0000   1.0000
     1.0000   1.0000   1.0000   1.0000   1.0000   1.0000   1.0000   1.0000
     1.0000   1.0000   1.0000   1.0000   1.0000   1.0000   1.0000   1.0000
     1.0000   1.0000   1.0000   1.0000   1.0000   1.0000   1.0000   1.0000

          k =-0.5000 0.1666 0.7628 (  6056 PWs)   bands (ev):

   -13.2527 -13.2527 -13.2450 -13.2450 -13.2417 -13.2417 -13.2372 -13.2372
   -13.2224 -13.2224 -13.2163 -13.2163 -13.2062 -13.2062 -13.1807 -13.1807
   -13.1763 -13.1763 -13.1575 -13.1575  -5.2808  -5.2808  -4.4854  -4.4854
     0.3503   0.3503   1.7453   1.7453   4.5817   4.5817   5.2319   5.2319
     5.7715   5.7715   6.3860   6.3860   7.0421   7.0421   7.5837   7.5837

     occupation numbers 
     1.0000   1.0000   1.0000   1.0000   1.0000   1.0000   1.0000   1.0000
     1.0000   1.0000   1.0000   1.0000   1.0000   1.0000   1.0000   1.0000
     1.0000   1.0000   1.0000   1.0000   1.0000   1.0000   1.0000   1.0000
     1.0000   1.0000   1.0000   1.0000   1.0000   1.0000   1.0000   1.0000
     1.0000   1.0000   1.0000   1.0000   1.0000   1.0000   1.0000   1.0000

          k =-0.5000 0.1666 1.0679 (  6072 PWs)   bands (ev):

   -13.2511 -13.2511 -13.2463 -13.2463 -13.2416 -13.2416 -13.2384 -13.2384
   -13.2219 -13.2219 -13.2125 -13.2125 -13.2078 -13.2078 -13.1798 -13.1798
   -13.1777 -13.1777 -13.1575 -13.1575  -5.0532  -5.0532  -4.6289  -4.6289
     0.1839   0.1839   1.3819   1.3819   4.9908   4.9908   5.5325   5.5325
     5.6176   5.6176   6.2446   6.2446   7.3866   7.3866   7.6785   7.6785

     occupation numbers 
     1.0000   1.0000   1.0000   1.0000   1.0000   1.0000   1.0000   1.0000
     1.0000   1.0000   1.0000   1.0000   1.0000   1.0000   1.0000   1.0000
     1.0000   1.0000   1.0000   1.0000   1.0000   1.0000   1.0000   1.0000
     1.0000   1.0000   1.0000   1.0000   1.0000   1.0000   1.0000   1.0000
     1.0000   1.0000   1.0000   1.0000   1.0000   1.0000   1.0000   1.0000

          k =-0.5000 0.4998 0.1526 (  6090 PWs)   bands (ev):

   -13.2513 -13.2513 -13.2448 -13.2448 -13.2394 -13.2394 -13.2370 -13.2370
   -13.2249 -13.2249 -13.2194 -13.2194 -13.2045 -13.2045 -13.1829 -13.1829
   -13.1740 -13.1740 -13.1585 -13.1585  -5.4471  -5.4471  -4.3522  -4.3522
     0.7780   0.7780   2.2669   2.2669   4.1227   4.1227   4.7701   4.7701
     5.6967   5.6967   5.9005   5.9005   6.5574   6.5574   7.6495   7.6495

     occupation numbers 
     1.0000   1.0000   1.0000   1.0000   1.0000   1.0000   1.0000   1.0000
     1.0000   1.0000   1.0000   1.0000   1.0000   1.0000   1.0000   1.0000
     1.0000   1.0000   1.0000   1.0000   1.0000   1.0000   1.0000   1.0000
     1.0000   1.0000   1.0000   1.0000   1.0000   1.0000   1.0000   1.0000
     1.0000   1.0000   1.0000   1.0000   1.0000   1.0000   1.0000   1.0000

          k =-0.5000 0.4998 0.4577 (  6098 PWs)   bands (ev):

   -13.2515 -13.2515 -13.2459 -13.2459 -13.2397 -13.2397 -13.2369 -13.2369
   -13.2246 -13.2246 -13.2170 -13.2170 -13.2049 -13.2049 -13.1828 -13.1828
   -13.1747 -13.1747 -13.1583 -13.1583  -5.3376  -5.3376  -4.3728  -4.3728
     0.6628   0.6628   2.0299   2.0299   4.0485   4.0485   4.7062   4.7062
     5.3848   5.3848   6.3100   6.3100   6.9170   6.9170   7.5534   7.5534

     occupation numbers 
     1.0000   1.0000   1.0000   1.0000   1.0000   1.0000   1.0000   1.0000
     1.0000   1.0000   1.0000   1.0000   1.0000   1.0000   1.0000   1.0000
     1.0000   1.0000   1.0000   1.0000   1.0000   1.0000   1.0000   1.0000
     1.0000   1.0000   1.0000   1.0000   1.0000   1.0000   1.0000   1.0000
     1.0000   1.0000   1.0000   1.0000   1.0000   1.0000   1.0000   1.0000

          k =-0.5000 0.4998 0.7628 (  6096 PWs)   bands (ev):

   -13.2517 -13.2517 -13.2478 -13.2478 -13.2395 -13.2395 -13.2368 -13.2368
   -13.2243 -13.2243 -13.2133 -13.2133 -13.2057 -13.2057 -13.1825 -13.1825
   -13.1757 -13.1757 -13.1580 -13.1580  -5.1440  -5.1440  -4.4400  -4.4400
     0.4850   0.4850   1.7141   1.7141   4.0345   4.0345   4.8688   4.8688
     5.2228   5.2228   6.4194   6.4194   6.7768   6.7768   7.5027   7.5027

     occupation numbers 
     1.0000   1.0000   1.0000   1.0000   1.0000   1.0000   1.0000   1.0000
     1.0000   1.0000   1.0000   1.0000   1.0000   1.0000   1.0000   1.0000
     1.0000   1.0000   1.0000   1.0000   1.0000   1.0000   1.0000   1.0000
     1.0000   1.0000   1.0000   1.0000   1.0000   1.0000   1.0000   1.0000
     1.0000   1.0000   1.0000   1.0000   1.0000   1.0000   1.0000   1.0000

          k =-0.5000 0.4998 1.0679 (  6076 PWs)   bands (ev):

   -13.2520 -13.2520 -13.2493 -13.2493 -13.2390 -13.2390 -13.2370 -13.2370
   -13.2241 -13.2241 -13.2097 -13.2097 -13.2071 -13.2071 -13.1823 -13.1823
   -13.1763 -13.1763 -13.1578 -13.1578  -4.9349  -4.9349  -4.5599  -4.5599
     0.3632   0.3632   1.4828   1.4828   4.2729   4.2729   4.6995   4.6995
     5.4418   5.4418   6.0711   6.0711   6.7232   6.7232   7.3402   7.3402

     occupation numbers 
     1.0000   1.0000   1.0000   1.0000   1.0000   1.0000   1.0000   1.0000
     1.0000   1.0000   1.0000   1.0000   1.0000   1.0000   1.0000   1.0000
     1.0000   1.0000   1.0000   1.0000   1.0000   1.0000   1.0000   1.0000
     1.0000   1.0000   1.0000   1.0000   1.0000   1.0000   1.0000   1.0000
     1.0000   1.0000   1.0000   1.0000   1.0000   1.0000   1.0000   1.0000

          k =-0.5000 0.8331 0.1526 (  6120 PWs)   bands (ev):

   -13.2518 -13.2518 -13.2476 -13.2476 -13.2355 -13.2355 -13.2338 -13.2338
   -13.2249 -13.2249 -13.2157 -13.2157 -13.2045 -13.2045 -13.1887 -13.1887
   -13.1709 -13.1709 -13.1600 -13.1600  -5.1648  -5.1648  -4.3775  -4.3775
     0.5885   0.5885   1.5591   1.5591   4.4022   4.4022   4.9546   4.9546
     5.8489   5.8489   6.0113   6.0113   6.5483   6.5483   7.4861   7.4861

     occupation numbers 
     1.0000   1.0000   1.0000   1.0000   1.0000   1.0000   1.0000   1.0000
     1.0000   1.0000   1.0000   1.0000   1.0000   1.0000   1.0000   1.0000
     1.0000   1.0000   1.0000   1.0000   1.0000   1.0000   1.0000   1.0000
     1.0000   1.0000   1.0000   1.0000   1.0000   1.0000   1.0000   1.0000
     1.0000   1.0000   1.0000   1.0000   1.0000   1.0000   1.0000   1.0000

          k =-0.5000 0.8331 0.4577 (  6106 PWs)   bands (ev):

   -13.2536 -13.2536 -13.2496 -13.2496 -13.2354 -13.2354 -13.2328 -13.2328
   -13.2245 -13.2245 -13.2140 -13.2140 -13.2044 -13.2044 -13.1885 -13.1885
   -13.1711 -13.1711 -13.1598 -13.1598  -5.0700  -5.0700  -4.3780  -4.3780
     0.6503   0.6503   1.5372   1.5372   3.9236   3.9236   4.7986   4.7986
     5.2763   5.2763   6.2537   6.2537   6.4958   6.4958   7.3950   7.3950

     occupation numbers 
     1.0000   1.0000   1.0000   1.0000   1.0000   1.0000   1.0000   1.0000
     1.0000   1.0000   1.0000   1.0000   1.0000   1.0000   1.0000   1.0000
     1.0000   1.0000   1.0000   1.0000   1.0000   1.0000   1.0000   1.0000
     1.0000   1.0000   1.0000   1.0000   1.0000   1.0000   1.0000   1.0000
     1.0000   1.0000   1.0000   1.0000   1.0000   1.0000   1.0000   1.0000

          k =-0.5000 0.8331 0.7628 (  6084 PWs)   bands (ev):

   -13.2561 -13.2561 -13.2523 -13.2523 -13.2347 -13.2347 -13.2321 -13.2321
   -13.2241 -13.2241 -13.2117 -13.2117 -13.2041 -13.2041 -13.1883 -13.1883
   -13.1714 -13.1714 -13.1594 -13.1594  -4.9072  -4.9072  -4.4041  -4.4041
     0.6943   0.6943   1.5217   1.5217   3.5884   3.5884   4.4498   4.4498
     5.0267   5.0267   5.7451   5.7451   6.4359   6.4359   7.2925   7.2925

     occupation numbers 
     1.0000   1.0000   1.0000   1.0000   1.0000   1.0000   1.0000   1.0000
     1.0000   1.0000   1.0000   1.0000   1.0000   1.0000   1.0000   1.0000
     1.0000   1.0000   1.0000   1.0000   1.0000   1.0000   1.0000   1.0000
     1.0000   1.0000   1.0000   1.0000   1.0000   1.0000   1.0000   1.0000
     1.0000   1.0000   1.0000   1.0000   1.0000   1.0000   1.0000   1.0000

          k =-0.5000 0.8331 1.0679 (  6090 PWs)   bands (ev):

   -13.2577 -13.2577 -13.2543 -13.2543 -13.2339 -13.2339 -13.2321 -13.2321
   -13.2238 -13.2238 -13.2102 -13.2102 -13.2036 -13.2036 -13.1881 -13.1881
   -13.1716 -13.1716 -13.1591 -13.1591  -4.7397  -4.7397  -4.4724  -4.4724
     0.6765   0.6765   1.5427   1.5427   3.6017   3.6017   3.9753   3.9753
     5.0352   5.0352   5.3553   5.3553   6.4534   6.4534   6.9814   6.9814

     occupation numbers 
     1.0000   1.0000   1.0000   1.0000   1.0000   1.0000   1.0000   1.0000
     1.0000   1.0000   1.0000   1.0000   1.0000   1.0000   1.0000   1.0000
     1.0000   1.0000   1.0000   1.0000   1.0000   1.0000   1.0000   1.0000
     1.0000   1.0000   1.0000   1.0000   1.0000   1.0000   1.0000   1.0000
     1.0000   1.0000   1.0000   1.0000   1.0000   1.0000   1.0000   1.0000

          k =-0.5000 1.1663 0.1526 (  6114 PWs)   bands (ev):

   -13.2534 -13.2534 -13.2518 -13.2518 -13.2314 -13.2314 -13.2307 -13.2307
   -13.2208 -13.2208 -13.2159 -13.2159 -13.2020 -13.2020 -13.1961 -13.1961
   -13.1665 -13.1665 -13.1626 -13.1626  -4.8246  -4.8246  -4.5321  -4.5321
     0.5944   0.5944   0.9380   0.9380   4.8603   4.8603   5.2163   5.2163
     5.7258   5.7258   5.9826   5.9826   6.6688   6.6688   7.0644   7.0644

     occupation numbers 
     1.0000   1.0000   1.0000   1.0000   1.0000   1.0000   1.0000   1.0000
     1.0000   1.0000   1.0000   1.0000   1.0000   1.0000   1.0000   1.0000
     1.0000   1.0000   1.0000   1.0000   1.0000   1.0000   1.0000   1.0000
     1.0000   1.0000   1.0000   1.0000   1.0000   1.0000   1.0000   1.0000
     1.0000   1.0000   1.0000   1.0000   1.0000   1.0000   1.0000   1.0000

          k =-0.5000 1.1663 0.4577 (  6098 PWs)   bands (ev):

   -13.2556 -13.2556 -13.2541 -13.2541 -13.2312 -13.2312 -13.2302 -13.2302
   -13.2201 -13.2201 -13.2152 -13.2152 -13.2012 -13.2012 -13.1954 -13.1954
   -13.1665 -13.1665 -13.1624 -13.1624  -4.7561  -4.7561  -4.4993  -4.4993
     0.7247   0.7247   1.0340   1.0340   4.1995   4.1995   4.7434   4.7434
     5.3145   5.3145   5.7572   5.7572   6.5666   6.5666   7.0100   7.0100

     occupation numbers 
     1.0000   1.0000   1.0000   1.0000   1.0000   1.0000   1.0000   1.0000
     1.0000   1.0000   1.0000   1.0000   1.0000   1.0000   1.0000   1.0000
     1.0000   1.0000   1.0000   1.0000   1.0000   1.0000   1.0000   1.0000
     1.0000   1.0000   1.0000   1.0000   1.0000   1.0000   1.0000   1.0000
     1.0000   1.0000   1.0000   1.0000   1.0000   1.0000   1.0000   1.0000

          k =-0.5000 1.1663 0.7628 (  6094 PWs)   bands (ev):

   -13.2588 -13.2588 -13.2573 -13.2573 -13.2310 -13.2310 -13.2299 -13.2299
   -13.2192 -13.2192 -13.2143 -13.2143 -13.1999 -13.1999 -13.1944 -13.1944
   -13.1664 -13.1664 -13.1622 -13.1622  -4.6466  -4.6466  -4.4603  -4.4603
     0.9165   0.9165   1.1966   1.1966   3.6459   3.6459   4.1638   4.1638
     4.7422   4.7422   5.2065   5.2065   6.5213   6.5213   6.8975   6.8975

     occupation numbers 
     1.0000   1.0000   1.0000   1.0000   1.0000   1.0000   1.0000   1.0000
     1.0000   1.0000   1.0000   1.0000   1.0000   1.0000   1.0000   1.0000
     1.0000   1.0000   1.0000   1.0000   1.0000   1.0000   1.0000   1.0000
     1.0000   1.0000   1.0000   1.0000   1.0000   1.0000   1.0000   1.0000
     1.0000   1.0000   1.0000   1.0000   1.0000   1.0000   1.0000   1.0000

          k =-0.5000 1.1663 1.0679 (  6098 PWs)   bands (ev):

   -13.2609 -13.2609 -13.2596 -13.2596 -13.2309 -13.2309 -13.2299 -13.2299
   -13.2186 -13.2186 -13.2137 -13.2137 -13.1988 -13.1988 -13.1936 -13.1936
   -13.1664 -13.1664 -13.1619 -13.1619  -4.5483  -4.5483  -4.4494  -4.4494
     1.0341   1.0341   1.3619   1.3619   3.4682   3.4682   3.7126   3.7126
     4.3957   4.3957   4.6732   4.6732   6.6269   6.6269   6.8173   6.8173

     occupation numbers 
     1.0000   1.0000   1.0000   1.0000   1.0000   1.0000   1.0000   1.0000
     1.0000   1.0000   1.0000   1.0000   1.0000   1.0000   1.0000   1.0000
     1.0000   1.0000   1.0000   1.0000   1.0000   1.0000   1.0000   1.0000
     1.0000   1.0000   1.0000   1.0000   1.0000   1.0000   1.0000   1.0000
     1.0000   1.0000   1.0000   1.0000   1.0000   1.0000   1.0000   1.0000

     highest occupied level (ev):     7.9197

!    total energy              =    -827.73533073 Ry
     estimated scf accuracy    <          2.5E-09 Ry

     The total energy is the sum of the following terms:
     one-electron contribution =    -258.52661053 Ry
     hartree contribution      =     179.87203005 Ry
     xc contribution           =    -309.15450997 Ry
     ewald contribution        =    -439.80328342 Ry
     DFT-D3 Dispersion         =      -0.12295685 Ry

     convergence has been achieved in  11 iterations

     Forces acting on atoms (cartesian axes, Ry/au):

     atom    1 type  2   force =     0.01410683    0.00000000    0.00150537
     atom    2 type  1   force =    -0.01434375   -0.00000000   -0.00038580
     atom    3 type  2   force =    -0.01410683    0.00000000    0.00150537
     atom    4 type  1   force =     0.01434375   -0.00000000   -0.00038580
     atom    5 type  2   force =     0.01410683    0.00000000   -0.00150537
     atom    6 type  1   force =    -0.01434375    0.00000000    0.00038580
     atom    7 type  2   force =    -0.01410683   -0.00000000   -0.00150537
     atom    8 type  1   force =     0.01434375   -0.00000000    0.00038580
     The non-local contrib.  to forces
     atom    1 type  2   force =    -0.10709840    0.00000000    0.11231020
     atom    2 type  1   force =     0.35407538    0.00000000    0.30456524
     atom    3 type  2   force =     0.10709840    0.00000000    0.11231020
     atom    4 type  1   force =    -0.35407538    0.00000000    0.30456524
     atom    5 type  2   force =    -0.10709840    0.00000000   -0.11231020
     atom    6 type  1   force =     0.35407538    0.00000000   -0.30456524
     atom    7 type  2   force =     0.10709840    0.00000000   -0.11231020
     atom    8 type  1   force =    -0.35407538    0.00000000   -0.30456524
     The ionic contribution  to forces
     atom    1 type  2   force =     1.42672305    0.00000000   -1.16608700
     atom    2 type  1   force =    -0.67721021    0.00000000   -0.57277940
     atom    3 type  2   force =    -1.42672305    0.00000000   -1.16608700
     atom    4 type  1   force =     0.67721021   -0.00000000   -0.57277940
     atom    5 type  2   force =     1.42672305    0.00000000    1.16608700
     atom    6 type  1   force =    -0.67721021    0.00000000    0.57277940
     atom    7 type  2   force =    -1.42672305   -0.00000000    1.16608700
     atom    8 type  1   force =     0.67721021   -0.00000000    0.57277940
     The local contribution  to forces
     atom    1 type  2   force =    -1.31617011    0.00000000    1.06637552
     atom    2 type  1   force =     0.31406488   -0.00000000    0.27234460
     atom    3 type  2   force =     1.31617011   -0.00000000    1.06637552
     atom    4 type  1   force =    -0.31406488   -0.00000000    0.27234460
     atom    5 type  2   force =    -1.31617011   -0.00000000   -1.06637552
     atom    6 type  1   force =     0.31406488   -0.00000000   -0.27234460
     atom    7 type  2   force =     1.31617011   -0.00000000   -1.06637552
     atom    8 type  1   force =    -0.31406488   -0.00000000   -0.27234460
     The core correction contribution to forces
     atom    1 type  2   force =     0.01154409   -0.00000000   -0.01252266
     atom    2 type  1   force =    -0.00455171   -0.00000000   -0.00552730
     atom    3 type  2   force =    -0.01154409   -0.00000000   -0.01252266
     atom    4 type  1   force =     0.00455171   -0.00000000   -0.00552730
     atom    5 type  2   force =     0.01154409   -0.00000000    0.01252266
     atom    6 type  1   force =    -0.00455171   -0.00000000    0.00552730
     atom    7 type  2   force =    -0.01154409    0.00000000    0.01252266
     atom    8 type  1   force =     0.00455171   -0.00000000    0.00552730
     The Hubbard contrib.    to forces
     atom    1 type  2   force =     0.00000000    0.00000000    0.00000000
     atom    2 type  1   force =     0.00000000    0.00000000    0.00000000
     atom    3 type  2   force =     0.00000000    0.00000000    0.00000000
     atom    4 type  1   force =     0.00000000    0.00000000    0.00000000
     atom    5 type  2   force =     0.00000000    0.00000000    0.00000000
     atom    6 type  1   force =     0.00000000    0.00000000    0.00000000
     atom    7 type  2   force =     0.00000000    0.00000000    0.00000000
     atom    8 type  1   force =     0.00000000    0.00000000    0.00000000
     The SCF correction term to forces
     atom    1 type  2   force =    -0.00000230    0.00000000    0.00000345
     atom    2 type  1   force =    -0.00002753    0.00000000   -0.00002031
     atom    3 type  2   force =     0.00000230   -0.00000000    0.00000345
     atom    4 type  1   force =     0.00002753    0.00000000   -0.00002031
     atom    5 type  2   force =    -0.00000230    0.00000000   -0.00000345
     atom    6 type  1   force =    -0.00002753    0.00000000    0.00002031
     atom    7 type  2   force =     0.00000230   -0.00000000   -0.00000345
     atom    8 type  1   force =     0.00002753   -0.00000000    0.00002031

     DFT-D3 dispersion contribution to forces:
     atom    1 type  2   force =    -0.00088951   -0.00000000    0.00142585
     atom    2 type  1   force =    -0.00069455   -0.00000000    0.00103135
     atom    3 type  2   force =     0.00088951    0.00000000    0.00142585
     atom    4 type  1   force =     0.00069455    0.00000000    0.00103135
     atom    5 type  2   force =    -0.00088951   -0.00000000   -0.00142585
     atom    6 type  1   force =    -0.00069455   -0.00000000   -0.00103135
     atom    7 type  2   force =     0.00088951    0.00000000   -0.00142585
     atom    8 type  1   force =     0.00069455    0.00000000   -0.00103135

     Total force =     0.040356     Total SCF correction =     0.000069

     DFT-D3 dispersion Force =     0.004181

     Writing all to output data dir ./tmp/SnSe_pnma.save/ :
     XML data file, charge density, pseudopotentials, collected wavefunctions
 
     init_run     :      1.77s CPU      1.94s WALL (       1 calls)
     electrons    :     40.96s CPU     43.35s WALL (       1 calls)
     forces       :      0.66s CPU      0.80s WALL (       1 calls)
     force_dftd3  :      0.04s CPU      0.05s WALL (       1 calls)

     Called by init_run:
     wfcinit      :      1.07s CPU      1.10s WALL (       1 calls)
     wfcinit:atom :      0.02s CPU      0.02s WALL (      11 calls)
     wfcinit:wfcr :      0.92s CPU      0.93s WALL (      11 calls)
     potinit      :      0.15s CPU      0.17s WALL (       1 calls)
     hinit0       :      0.23s CPU      0.24s WALL (       1 calls)

     Called by electrons:
     c_bands      :     31.55s CPU     31.78s WALL (      11 calls)
     sum_band     :      6.15s CPU      7.19s WALL (      11 calls)
     v_of_rho     :      1.19s CPU      1.29s WALL (      12 calls)
     v_h          :      0.08s CPU      0.09s WALL (      12 calls)
     v_xc         :      1.21s CPU      1.30s WALL (      13 calls)
     newd         :      2.16s CPU      3.22s WALL (      12 calls)
     mix_rho      :      0.11s CPU      0.12s WALL (      11 calls)
     energy_dftd3 :      0.05s CPU      0.05s WALL (       1 calls)

     Called by c_bands:
     init_us_2    :      0.81s CPU      0.83s WALL (     264 calls)
     cegterg      :     28.54s CPU     28.71s WALL (     121 calls)

     Called by sum_band:
     sum_band:wei :      0.00s CPU      0.00s WALL (      11 calls)
     sum_band:loo :      3.82s CPU      3.83s WALL (      11 calls)
     sum_band:buf :      0.05s CPU      0.05s WALL (     121 calls)
     sum_band:ini :      0.35s CPU      0.35s WALL (     121 calls)
     sum_band:cal :      0.49s CPU      0.49s WALL (     121 calls)
     sum_band:bec :      0.01s CPU      0.01s WALL (     121 calls)
     addusdens    :      2.01s CPU      3.01s WALL (      11 calls)
                                        0.00s GPU  (      11 calls)
     addusd:skk   :      0.01s CPU      0.01s WALL (      22 calls)
                                        0.00s GPU  (      22 calls)

     Called by *egterg:
     cdiaghg      :      1.10s CPU      1.10s WALL (     650 calls)
     cegterg:over :      1.60s CPU      1.61s WALL (     529 calls)
     cegterg:upda :      0.93s CPU      0.93s WALL (     529 calls)
     cegterg:last :      2.43s CPU      2.44s WALL (     392 calls)
     h_psi        :     20.43s CPU     20.58s WALL (     661 calls)
     s_psi        :      2.15s CPU      2.16s WALL (     661 calls)
     g_psi        :      0.09s CPU      0.09s WALL (     529 calls)

     Called by h_psi:
     h_psi:calbec :      2.01s CPU      2.02s WALL (     661 calls)
     vloc_psi     :     16.06s CPU     16.19s WALL (     661 calls)
     add_vuspsi   :      2.19s CPU      2.19s WALL (     661 calls)

     General routines
     calbec       :      2.68s CPU      2.69s WALL (     826 calls)
     fft          :      0.57s CPU      0.58s WALL (     165 calls)
     ffts         :      0.01s CPU      0.01s WALL (      23 calls)
     fftw         :     11.04s CPU     11.12s WALL (   41774 calls)
     interpolate  :      0.06s CPU      0.06s WALL (      12 calls)
 
     Parallel routines
 
     PWSCF        :     43.64s CPU     46.87s WALL

 
   This run was terminated on:  16: 7:48  20May2026            

=------------------------------------------------------------------------------=
   JOB DONE.
=------------------------------------------------------------------------------=
