
     Program PWSCF v.7.3.1 starts on 20May2026 at 14:31:58 

     This program is part of the open-source Quantum ESPRESSO suite
     for quantum simulation of materials; please cite
         "P. Giannozzi et al., J. Phys.:Condens. Matter 21 395502 (2009);
         "P. Giannozzi et al., J. Phys.:Condens. Matter 29 465901 (2017);
         "P. Giannozzi et al., J. Chem. Phys. 152 154105 (2020);
          URL http://www.quantum-espresso.org", 
     in publications or presentations arising from this work. More details at
     http://www.quantum-espresso.org/quote

     Parallel version (MPI & OpenMP), running on       6 processor cores
     Number of MPI processes:                 6
     Threads/MPI process:                     1

     MPI processes distributed on     1 nodes
     10744 MiB available memory on the printing compute node when the environment starts
 
     Waiting for input...
     Reading input from standard input

     Current dimensions of program PWSCF are:
     Max number of different atomic species (ntypx) = 10
     Max number of k-points (npk) =  40000
     Max angular momentum in pseudopotentials (lmaxx) =  4
 
     K-points division:     npool     =       3
     R & G space division:  proc/nbgrp/npool/nimage =       2
     Subspace diagonalization in iterative solution of the eigenvalue problem:
     a serial algorithm will be used

 
     Parallelization info
     --------------------
     sticks:   dense  smooth     PW     G-vecs:    dense   smooth      PW
     Min        2106     842    250                66645    16797    2712
     Max        2107     843    251                66646    16798    2713
     Sum        4213    1685    501               133291    33595    5425
 
     Using Slab Decomposition
 


     bravais-lattice index     =            8
     lattice parameter (alat)  =      22.3744  a.u.
     unit-cell volume          =    1518.3301 (a.u.)^3
     number of atoms/cell      =            8
     number of atomic types    =            2
     number of electrons       =        80.00
     number of Kohn-Sham states=           40
     kinetic-energy cutoff     =      30.0000  Ry
     charge density cutoff     =     300.0000  Ry
     scf convergence threshold =      1.0E-08
     mixing beta               =       0.7000
     number of iterations used =            8  plain     mixing
     Exchange-correlation= SLA  PW   PBE  PBE
                           (   1   4   3   4   0   0   0)

     celldm(1)=  22.374357  celldm(2)=   0.352314  celldm(3)=   0.384755
     celldm(4)=   0.000000  celldm(5)=   0.000000  celldm(6)=   0.000000

     crystal axes: (cart. coord. in units of alat)
               a(1) = (   1.000000   0.000000   0.000000 )  
               a(2) = (   0.000000   0.352314   0.000000 )  
               a(3) = (   0.000000   0.000000   0.384755 )  

     reciprocal axes: (cart. coord. in units 2 pi/alat)
               b(1) = (  1.000000  0.000000  0.000000 )  
               b(2) = (  0.000000  2.838376  0.000000 )  
               b(3) = (  0.000000  0.000000  2.599056 )  


     PseudoPot. # 1 for Sn read from file:
     ../pseudo/Sn_pbe_v1.uspp.F.UPF
     MD5 check sum: 4cf58ce39ec5d5d420df3dd08604eb00
     Pseudo is Ultrasoft + core correction, Zval = 14.0
     Generated by new atomic code, or converted to UPF format
     Using radial grid of  891 points,  6 beta functions with: 
                l(1) =   0
                l(2) =   0
                l(3) =   1
                l(4) =   1
                l(5) =   2
                l(6) =   2
     Q(r) pseudized with  6 coefficients,  rinner =    1.200   1.200   1.200
                                                       1.200   1.200

     PseudoPot. # 2 for Se read from file:
     ../pseudo/Se_pbe_v1.uspp.F.UPF
     MD5 check sum: 1b3568f3a8ae88f9a2a0ad0698632c85
     Pseudo is Ultrasoft + core correction, Zval =  6.0
     Generated by new atomic code, or converted to UPF format
     Using radial grid of  877 points,  6 beta functions with: 
                l(1) =   0
                l(2) =   0
                l(3) =   1
                l(4) =   1
                l(5) =   2
                l(6) =   2
     Q(r) pseudized with  8 coefficients,  rinner =    1.300   1.300   1.300
                                                       1.300   1.300

     atomic species   valence    mass     pseudopotential
     Sn               14.00   118.71000     Sn( 1.00)
     Se                6.00    78.97100     Se( 1.00)

      8 Sym. Ops., with inversion, found ( 6 have fractional translation)


                                    s                        frac. trans.

      isym =  1     identity                                     

 cryst.   s( 1) = (     1          0          0      )
                  (     0          1          0      )
                  (     0          0          1      )

 cart.    s( 1) = (  1.0000000  0.0000000  0.0000000 )
                  (  0.0000000  1.0000000  0.0000000 )
                  (  0.0000000  0.0000000  1.0000000 )


      isym =  2     180 deg rotation - cart. axis [0,0,1]        

 cryst.   s( 2) = (    -1          0          0      )    f =(  0.5000000 )
                  (     0         -1          0      )       ( -0.0000000 )
                  (     0          0          1      )       (  0.5000000 )

 cart.    s( 2) = ( -1.0000000  0.0000000  0.0000000 )    f =(  0.5000000 )
                  (  0.0000000 -1.0000000  0.0000000 )       ( -0.0000000 )
                  (  0.0000000  0.0000000  1.0000000 )       (  0.1923775 )


      isym =  3     180 deg rotation - cart. axis [0,1,0]        

 cryst.   s( 3) = (    -1          0          0      )    f =(  0.0000000 )
                  (     0          1          0      )       ( -0.5000000 )
                  (     0          0         -1      )       (  0.0000000 )

 cart.    s( 3) = ( -1.0000000  0.0000000  0.0000000 )    f =(  0.0000000 )
                  (  0.0000000  1.0000000  0.0000000 )       ( -0.1761571 )
                  (  0.0000000  0.0000000 -1.0000000 )       (  0.0000000 )


      isym =  4     180 deg rotation - cart. axis [1,0,0]        

 cryst.   s( 4) = (     1          0          0      )    f =(  0.5000000 )
                  (     0         -1          0      )       (  0.5000000 )
                  (     0          0         -1      )       (  0.5000000 )

 cart.    s( 4) = (  1.0000000  0.0000000  0.0000000 )    f =(  0.5000000 )
                  (  0.0000000 -1.0000000  0.0000000 )       (  0.1761571 )
                  (  0.0000000  0.0000000 -1.0000000 )       (  0.1923775 )


      isym =  5     inversion                                    

 cryst.   s( 5) = (    -1          0          0      )
                  (     0         -1          0      )
                  (     0          0         -1      )

 cart.    s( 5) = ( -1.0000000  0.0000000  0.0000000 )
                  (  0.0000000 -1.0000000  0.0000000 )
                  (  0.0000000  0.0000000 -1.0000000 )


      isym =  6     inv. 180 deg rotation - cart. axis [0,0,1]   

 cryst.   s( 6) = (     1          0          0      )    f =(  0.5000000 )
                  (     0          1          0      )       (  0.0000000 )
                  (     0          0         -1      )       (  0.5000000 )

 cart.    s( 6) = (  1.0000000  0.0000000  0.0000000 )    f =(  0.5000000 )
                  (  0.0000000  1.0000000  0.0000000 )       (  0.0000000 )
                  (  0.0000000  0.0000000 -1.0000000 )       (  0.1923775 )


      isym =  7     inv. 180 deg rotation - cart. axis [0,1,0]   

 cryst.   s( 7) = (     1          0          0      )    f =(  0.0000000 )
                  (     0         -1          0      )       (  0.5000000 )
                  (     0          0          1      )       (  0.0000000 )

 cart.    s( 7) = (  1.0000000  0.0000000  0.0000000 )    f =(  0.0000000 )
                  (  0.0000000 -1.0000000  0.0000000 )       (  0.1761571 )
                  (  0.0000000  0.0000000  1.0000000 )       (  0.0000000 )


      isym =  8     inv. 180 deg rotation - cart. axis [1,0,0]   

 cryst.   s( 8) = (    -1          0          0      )    f =(  0.5000000 )
                  (     0          1          0      )       ( -0.5000000 )
                  (     0          0          1      )       (  0.5000000 )

 cart.    s( 8) = ( -1.0000000  0.0000000  0.0000000 )    f =(  0.5000000 )
                  (  0.0000000  1.0000000  0.0000000 )       ( -0.1761571 )
                  (  0.0000000  0.0000000  1.0000000 )       (  0.1923775 )


     point group D_2h (mmm) 
     there are  8 classes
     the character table:

       E     C2    C2'   C2''  i     s_v   s_v'  s_v''
A_g    1.00  1.00  1.00  1.00  1.00  1.00  1.00  1.00
B_1g   1.00  1.00 -1.00 -1.00  1.00  1.00 -1.00 -1.00
B_2g   1.00 -1.00  1.00 -1.00  1.00 -1.00  1.00 -1.00
B_3g   1.00 -1.00 -1.00  1.00  1.00 -1.00 -1.00  1.00
A_u    1.00  1.00  1.00  1.00 -1.00 -1.00 -1.00 -1.00
B_1u   1.00  1.00 -1.00 -1.00 -1.00 -1.00  1.00  1.00
B_2u   1.00 -1.00  1.00 -1.00 -1.00  1.00 -1.00  1.00
B_3u   1.00 -1.00 -1.00  1.00 -1.00  1.00  1.00 -1.00

     the symmetry operations in each class and the name of the first element:

     E        1
          identity                                               
     C2       2
          180 deg rotation - cart. axis [0,0,1]                  
     C2'      4
          180 deg rotation - cart. axis [1,0,0]                  
     C2''     3
          180 deg rotation - cart. axis [0,1,0]                  
     i        5
          inversion                                              
     s_v      6
          inv. 180 deg rotation - cart. axis [0,0,1]             
     s_v'     8
          inv. 180 deg rotation - cart. axis [1,0,0]             
     s_v''    7
          inv. 180 deg rotation - cart. axis [0,1,0]             

   Cartesian axes

     site n.     atom                  positions (alat units)
         1        Se     tau(   1) = (   0.8549563   0.0880785   0.1859321  )
         2        Sn     tau(   2) = (   0.1165395   0.0880785   0.0432030  )
         3        Se     tau(   3) = (   0.6450437   0.2642356   0.3783097  )
         4        Sn     tau(   4) = (   0.3834605   0.2642356   0.2355805  )
         5        Se     tau(   5) = (   0.3549563   0.0880785   0.0064454  )
         6        Sn     tau(   6) = (   0.6165395   0.0880785   0.1491745  )
         7        Se     tau(   7) = (   0.1450437   0.2642356   0.1988229  )
         8        Sn     tau(   8) = (   0.8834605   0.2642356   0.3415521  )

     --------------------------------------------
     DFT-D3 Dispersion Correction (3-body terms):
     --------------------------------------------
       Reference C6 values for interpolation: 

         atom   Coordination number   C6
         Se         0.000           427.35
         Se         0.990           427.57
         Se         1.981           421.05
         Sn         0.000          1255.14
         Sn         0.951          1084.09
         Sn         1.950          1010.83
         Sn         2.926           818.29
         Sn         3.912           672.20

       Values used:

         atom   Coordination number  R0_AB[au]  C6      C8
         Se         3.301            3.332    421.05  29958.36
         Sn         3.909            3.957    675.01  84721.61
         Se         3.301            3.332    421.05  29958.36
         Sn         3.909            3.957    675.01  84721.61
         Se         3.301            3.332    421.05  29958.36
         Sn         3.909            3.957    675.01  84721.61
         Se         3.301            3.332    421.05  29958.36
         Sn         3.909            3.957    675.01  84721.61

         Molecular C6 ( Ry / a.u.^6 ) =     34575.92


   Crystallographic axes

     site n.     atom                  positions (cryst. coord.)
         1        Se     tau(   1) = (  0.8549563  0.2500000  0.4832481  )
         2        Sn     tau(   2) = (  0.1165395  0.2500000  0.1122870  )
         3        Se     tau(   3) = (  0.6450437  0.7500000  0.9832481  )
         4        Sn     tau(   4) = (  0.3834605  0.7500000  0.6122870  )
         5        Se     tau(   5) = (  0.3549563  0.2500000  0.0167519  )
         6        Sn     tau(   6) = (  0.6165395  0.2500000  0.3877130  )
         7        Se     tau(   7) = (  0.1450437  0.7500000  0.5167519  )
         8        Sn     tau(   8) = (  0.8834605  0.7500000  0.8877130  )

     number of k points=    32
                       cart. coord. in units 2pi/alat
        k(    1) = (   0.1666667   0.1773985   0.1624410), wk =   0.0833333
        k(    2) = (   0.1666667   0.1773985   0.4873230), wk =   0.0833333
        k(    3) = (   0.1666667   0.1773985   0.8122050), wk =   0.0833333
        k(    4) = (   0.1666667   0.1773985   1.1370870), wk =   0.0833333
        k(    5) = (   0.1666667   0.5321954   0.1624410), wk =   0.0833333
        k(    6) = (   0.1666667   0.5321954   0.4873230), wk =   0.0833333
        k(    7) = (   0.1666667   0.5321954   0.8122050), wk =   0.0833333
        k(    8) = (   0.1666667   0.5321954   1.1370870), wk =   0.0833333
        k(    9) = (   0.1666667   0.8869924   0.1624410), wk =   0.0833333
        k(   10) = (   0.1666667   0.8869924   0.4873230), wk =   0.0833333
        k(   11) = (   0.1666667   0.8869924   0.8122050), wk =   0.0833333
        k(   12) = (   0.1666667   0.8869924   1.1370870), wk =   0.0833333
        k(   13) = (   0.1666667   1.2417893   0.1624410), wk =   0.0833333
        k(   14) = (   0.1666667   1.2417893   0.4873230), wk =   0.0833333
        k(   15) = (   0.1666667   1.2417893   0.8122050), wk =   0.0833333
        k(   16) = (   0.1666667   1.2417893   1.1370870), wk =   0.0833333
        k(   17) = (  -0.5000000   0.1773985   0.1624410), wk =   0.0416667
        k(   18) = (  -0.5000000   0.1773985   0.4873230), wk =   0.0416667
        k(   19) = (  -0.5000000   0.1773985   0.8122050), wk =   0.0416667
        k(   20) = (  -0.5000000   0.1773985   1.1370870), wk =   0.0416667
        k(   21) = (  -0.5000000   0.5321954   0.1624410), wk =   0.0416667
        k(   22) = (  -0.5000000   0.5321954   0.4873230), wk =   0.0416667
        k(   23) = (  -0.5000000   0.5321954   0.8122050), wk =   0.0416667
        k(   24) = (  -0.5000000   0.5321954   1.1370870), wk =   0.0416667
        k(   25) = (  -0.5000000   0.8869924   0.1624410), wk =   0.0416667
        k(   26) = (  -0.5000000   0.8869924   0.4873230), wk =   0.0416667
        k(   27) = (  -0.5000000   0.8869924   0.8122050), wk =   0.0416667
        k(   28) = (  -0.5000000   0.8869924   1.1370870), wk =   0.0416667
        k(   29) = (  -0.5000000   1.2417893   0.1624410), wk =   0.0416667
        k(   30) = (  -0.5000000   1.2417893   0.4873230), wk =   0.0416667
        k(   31) = (  -0.5000000   1.2417893   0.8122050), wk =   0.0416667
        k(   32) = (  -0.5000000   1.2417893   1.1370870), wk =   0.0416667

                       cryst. coord.
        k(    1) = (   0.1666667   0.0625000   0.0625000), wk =   0.0833333
        k(    2) = (   0.1666667   0.0625000   0.1875000), wk =   0.0833333
        k(    3) = (   0.1666667   0.0625000   0.3125000), wk =   0.0833333
        k(    4) = (   0.1666667   0.0625000   0.4375000), wk =   0.0833333
        k(    5) = (   0.1666667   0.1875000   0.0625000), wk =   0.0833333
        k(    6) = (   0.1666667   0.1875000   0.1875000), wk =   0.0833333
        k(    7) = (   0.1666667   0.1875000   0.3125000), wk =   0.0833333
        k(    8) = (   0.1666667   0.1875000   0.4375000), wk =   0.0833333
        k(    9) = (   0.1666667   0.3125000   0.0625000), wk =   0.0833333
        k(   10) = (   0.1666667   0.3125000   0.1875000), wk =   0.0833333
        k(   11) = (   0.1666667   0.3125000   0.3125000), wk =   0.0833333
        k(   12) = (   0.1666667   0.3125000   0.4375000), wk =   0.0833333
        k(   13) = (   0.1666667   0.4375000   0.0625000), wk =   0.0833333
        k(   14) = (   0.1666667   0.4375000   0.1875000), wk =   0.0833333
        k(   15) = (   0.1666667   0.4375000   0.3125000), wk =   0.0833333
        k(   16) = (   0.1666667   0.4375000   0.4375000), wk =   0.0833333
        k(   17) = (  -0.5000000   0.0625000   0.0625000), wk =   0.0416667
        k(   18) = (  -0.5000000   0.0625000   0.1875000), wk =   0.0416667
        k(   19) = (  -0.5000000   0.0625000   0.3125000), wk =   0.0416667
        k(   20) = (  -0.5000000   0.0625000   0.4375000), wk =   0.0416667
        k(   21) = (  -0.5000000   0.1875000   0.0625000), wk =   0.0416667
        k(   22) = (  -0.5000000   0.1875000   0.1875000), wk =   0.0416667
        k(   23) = (  -0.5000000   0.1875000   0.3125000), wk =   0.0416667
        k(   24) = (  -0.5000000   0.1875000   0.4375000), wk =   0.0416667
        k(   25) = (  -0.5000000   0.3125000   0.0625000), wk =   0.0416667
        k(   26) = (  -0.5000000   0.3125000   0.1875000), wk =   0.0416667
        k(   27) = (  -0.5000000   0.3125000   0.3125000), wk =   0.0416667
        k(   28) = (  -0.5000000   0.3125000   0.4375000), wk =   0.0416667
        k(   29) = (  -0.5000000   0.4375000   0.0625000), wk =   0.0416667
        k(   30) = (  -0.5000000   0.4375000   0.1875000), wk =   0.0416667
        k(   31) = (  -0.5000000   0.4375000   0.3125000), wk =   0.0416667
        k(   32) = (  -0.5000000   0.4375000   0.4375000), wk =   0.0416667

     Dense  grid:   133291 G-vectors     FFT dimensions: ( 128,  48,  48)

     Smooth grid:    33595 G-vectors     FFT dimensions: (  80,  30,  32)

     Dynamical RAM for                 wfc:       1.29 MB

     Dynamical RAM for     wfc (w. buffer):      15.42 MB

     Dynamical RAM for           str. fact:       2.03 MB

     Dynamical RAM for           local pot:       0.00 MB

     Dynamical RAM for          nlocal pot:       4.63 MB

     Dynamical RAM for                qrad:       2.78 MB

     Dynamical RAM for          rho,v,vnew:       6.43 MB

     Dynamical RAM for               rhoin:       2.14 MB

     Dynamical RAM for            rho*nmix:      16.27 MB

     Dynamical RAM for           G-vectors:       3.94 MB

     Dynamical RAM for          h,s,v(r/c):       0.29 MB

     Dynamical RAM for          <psi|beta>:       0.09 MB

     Dynamical RAM for                 psi:       2.57 MB

     Dynamical RAM for                hpsi:       2.57 MB

     Dynamical RAM for                spsi:       2.57 MB

     Dynamical RAM for      wfcinit/wfcrot:       3.40 MB

     Dynamical RAM for           addusdens:      65.08 MB

     Dynamical RAM for          addusforce:      66.96 MB

     Estimated static dynamical RAM per process >      46.05 MB

     Estimated max dynamical RAM per process >     129.29 MB

     Estimated total dynamical RAM >     710.64 MB

     Initial potential from superposition of free atoms

     starting charge      75.9995, renormalised to      80.0000
     Starting wfcs are   52 randomized atomic wfcs

     total cpu time spent up to now is        1.5 secs

     Self-consistent Calculation

     iteration #  1     ecut=    30.00 Ry     beta= 0.70
     Davidson diagonalization with overlap

---- Real-time Memory Report at c_bands before calling an iterative solver
           210 MiB given to the printing process from OS
             0 MiB allocation reported by mallinfo(arena+hblkhd)
         10281 MiB available memory on the node where the printing process lives
------------------
     ethr =  1.00E-02,  avg # of iterations =  2.0

     total cpu time spent up to now is        3.8 secs

     total energy              =    -826.59612271 Ry
     estimated scf accuracy    <       2.72819859 Ry

     iteration #  2     ecut=    30.00 Ry     beta= 0.70
     Davidson diagonalization with overlap

---- Real-time Memory Report at c_bands before calling an iterative solver
           263 MiB given to the printing process from OS
             0 MiB allocation reported by mallinfo(arena+hblkhd)
          9787 MiB available memory on the node where the printing process lives
------------------
     ethr =  3.41E-03,  avg # of iterations =  3.0

     total cpu time spent up to now is        6.3 secs

     total energy              =    -827.50651247 Ry
     estimated scf accuracy    <       1.07524504 Ry

     iteration #  3     ecut=    30.00 Ry     beta= 0.70
     Davidson diagonalization with overlap

---- Real-time Memory Report at c_bands before calling an iterative solver
           283 MiB given to the printing process from OS
             0 MiB allocation reported by mallinfo(arena+hblkhd)
          9691 MiB available memory on the node where the printing process lives
------------------
     ethr =  1.34E-03,  avg # of iterations =  2.7

     total cpu time spent up to now is        8.3 secs

     total energy              =    -827.72925011 Ry
     estimated scf accuracy    <       0.01151835 Ry

     iteration #  4     ecut=    30.00 Ry     beta= 0.70
     Davidson diagonalization with overlap

---- Real-time Memory Report at c_bands before calling an iterative solver
           286 MiB given to the printing process from OS
             0 MiB allocation reported by mallinfo(arena+hblkhd)
          9690 MiB available memory on the node where the printing process lives
------------------
     ethr =  1.44E-05,  avg # of iterations =  4.9

     total cpu time spent up to now is       10.9 secs

     total energy              =    -827.73646687 Ry
     estimated scf accuracy    <       0.00615224 Ry

     iteration #  5     ecut=    30.00 Ry     beta= 0.70
     Davidson diagonalization with overlap

---- Real-time Memory Report at c_bands before calling an iterative solver
           289 MiB given to the printing process from OS
             0 MiB allocation reported by mallinfo(arena+hblkhd)
          9679 MiB available memory on the node where the printing process lives
------------------
     ethr =  7.69E-06,  avg # of iterations =  2.7

     total cpu time spent up to now is       12.8 secs

     total energy              =    -827.73785702 Ry
     estimated scf accuracy    <       0.00047937 Ry

     iteration #  6     ecut=    30.00 Ry     beta= 0.70
     Davidson diagonalization with overlap

---- Real-time Memory Report at c_bands before calling an iterative solver
           290 MiB given to the printing process from OS
             0 MiB allocation reported by mallinfo(arena+hblkhd)
          9678 MiB available memory on the node where the printing process lives
------------------
     ethr =  5.99E-07,  avg # of iterations =  4.5

     total cpu time spent up to now is       15.1 secs

     total energy              =    -827.73781894 Ry
     estimated scf accuracy    <       0.00105951 Ry

     iteration #  7     ecut=    30.00 Ry     beta= 0.70
     Davidson diagonalization with overlap

---- Real-time Memory Report at c_bands before calling an iterative solver
           291 MiB given to the printing process from OS
             0 MiB allocation reported by mallinfo(arena+hblkhd)
          9676 MiB available memory on the node where the printing process lives
------------------
     ethr =  5.99E-07,  avg # of iterations =  3.1

     total cpu time spent up to now is       17.2 secs

     total energy              =    -827.73796971 Ry
     estimated scf accuracy    <       0.00002108 Ry

     iteration #  8     ecut=    30.00 Ry     beta= 0.70
     Davidson diagonalization with overlap

---- Real-time Memory Report at c_bands before calling an iterative solver
           295 MiB given to the printing process from OS
             0 MiB allocation reported by mallinfo(arena+hblkhd)
          9673 MiB available memory on the node where the printing process lives
------------------
     ethr =  2.64E-08,  avg # of iterations =  4.6

     total cpu time spent up to now is       19.7 secs

     total energy              =    -827.73798439 Ry
     estimated scf accuracy    <       0.00001233 Ry

     iteration #  9     ecut=    30.00 Ry     beta= 0.70
     Davidson diagonalization with overlap

---- Real-time Memory Report at c_bands before calling an iterative solver
           296 MiB given to the printing process from OS
             0 MiB allocation reported by mallinfo(arena+hblkhd)
          9672 MiB available memory on the node where the printing process lives
------------------
     ethr =  1.54E-08,  avg # of iterations =  2.0

     total cpu time spent up to now is       21.5 secs

     total energy              =    -827.73798604 Ry
     estimated scf accuracy    <       0.00000039 Ry

     iteration # 10     ecut=    30.00 Ry     beta= 0.70
     Davidson diagonalization with overlap

---- Real-time Memory Report at c_bands before calling an iterative solver
           296 MiB given to the printing process from OS
             0 MiB allocation reported by mallinfo(arena+hblkhd)
          9671 MiB available memory on the node where the printing process lives
------------------
     ethr =  4.92E-10,  avg # of iterations =  4.5

     total cpu time spent up to now is       23.9 secs

     total energy              =    -827.73798629 Ry
     estimated scf accuracy    <       0.00000005 Ry

     iteration # 11     ecut=    30.00 Ry     beta= 0.70
     Davidson diagonalization with overlap

---- Real-time Memory Report at c_bands before calling an iterative solver
           297 MiB given to the printing process from OS
             0 MiB allocation reported by mallinfo(arena+hblkhd)
          9669 MiB available memory on the node where the printing process lives
------------------
     ethr =  6.72E-11,  avg # of iterations =  4.6

     total cpu time spent up to now is       26.0 secs

     total energy              =    -827.73798630 Ry
     estimated scf accuracy    <       0.00000002 Ry

     iteration # 12     ecut=    30.00 Ry     beta= 0.70
     Davidson diagonalization with overlap

---- Real-time Memory Report at c_bands before calling an iterative solver
           297 MiB given to the printing process from OS
             0 MiB allocation reported by mallinfo(arena+hblkhd)
          9669 MiB available memory on the node where the printing process lives
------------------
     ethr =  2.01E-11,  avg # of iterations =  3.0

     total cpu time spent up to now is       28.0 secs

     End of self-consistent calculation

          k = 0.1667 0.1774 0.1624 (  4214 PWs)   bands (ev):

   -14.0799 -14.0718 -14.0680 -14.0645 -14.0619 -14.0604 -14.0593 -14.0584
   -14.0484 -14.0460 -14.0444 -14.0425 -14.0372 -14.0351 -14.0194 -14.0153
   -14.0130 -14.0097 -14.0043 -14.0000  -6.1475  -5.8964  -5.2749  -4.9408
     0.2163   0.9861   1.7122   2.1241   2.8358   4.0194   4.1780   4.4247
     4.6550   4.6907   5.2162   5.4952   5.7134   6.0212   6.5630   6.8485

     occupation numbers 
     1.0000   1.0000   1.0000   1.0000   1.0000   1.0000   1.0000   1.0000
     1.0000   1.0000   1.0000   1.0000   1.0000   1.0000   1.0000   1.0000
     1.0000   1.0000   1.0000   1.0000   1.0000   1.0000   1.0000   1.0000
     1.0000   1.0000   1.0000   1.0000   1.0000   1.0000   1.0000   1.0000
     1.0000   1.0000   1.0000   1.0000   1.0000   1.0000   1.0000   1.0000

          k = 0.1667 0.1774 0.4873 (  4200 PWs)   bands (ev):

   -14.0788 -14.0715 -14.0680 -14.0647 -14.0627 -14.0614 -14.0593 -14.0585
   -14.0473 -14.0453 -14.0449 -14.0404 -14.0369 -14.0338 -14.0196 -14.0155
   -14.0130 -14.0100 -14.0040 -14.0004  -6.0368  -5.7953  -5.2645  -4.9620
    -0.1070   0.6979   1.2290   1.7701   2.9197   4.0789   4.2879   4.7444
     4.9791   5.2175   5.2319   5.6010   6.0357   6.3399   6.5366   6.8225

     occupation numbers 
     1.0000   1.0000   1.0000   1.0000   1.0000   1.0000   1.0000   1.0000
     1.0000   1.0000   1.0000   1.0000   1.0000   1.0000   1.0000   1.0000
     1.0000   1.0000   1.0000   1.0000   1.0000   1.0000   1.0000   1.0000
     1.0000   1.0000   1.0000   1.0000   1.0000   1.0000   1.0000   1.0000
     1.0000   1.0000   1.0000   1.0000   1.0000   1.0000   1.0000   1.0000

          k = 0.1667 0.1774 0.8122 (  4206 PWs)   bands (ev):

   -14.0768 -14.0714 -14.0681 -14.0657 -14.0634 -14.0629 -14.0594 -14.0589
   -14.0470 -14.0456 -14.0429 -14.0384 -14.0354 -14.0322 -14.0196 -14.0165
   -14.0126 -14.0105 -14.0035 -14.0011  -5.8397  -5.6166  -5.2820  -5.0293
    -0.4372   0.1869   0.7986   1.2759   3.2169   4.3108   4.5175   5.0574
     5.1738   5.3740   5.5872   5.7656   6.1953   6.6500   6.6858   7.0698

     occupation numbers 
     1.0000   1.0000   1.0000   1.0000   1.0000   1.0000   1.0000   1.0000
     1.0000   1.0000   1.0000   1.0000   1.0000   1.0000   1.0000   1.0000
     1.0000   1.0000   1.0000   1.0000   1.0000   1.0000   1.0000   1.0000
     1.0000   1.0000   1.0000   1.0000   1.0000   1.0000   1.0000   1.0000
     1.0000   1.0000   1.0000   1.0000   1.0000   1.0000   1.0000   1.0000

          k = 0.1667 0.1774 1.1371 (  4198 PWs)   bands (ev):

   -14.0745 -14.0725 -14.0677 -14.0668 -14.0640 -14.0639 -14.0594 -14.0593
   -14.0469 -14.0463 -14.0402 -14.0385 -14.0329 -14.0317 -14.0190 -14.0179
   -14.0118 -14.0111 -14.0028 -14.0020  -5.6095  -5.4562  -5.3263  -5.1662
    -0.5290  -0.2979   0.6776   0.8602   3.6894   4.2052   4.8741   5.1026
     5.3004   5.4011   5.5968   5.9146   6.4812   6.8221   6.9672   7.0546

     occupation numbers 
     1.0000   1.0000   1.0000   1.0000   1.0000   1.0000   1.0000   1.0000
     1.0000   1.0000   1.0000   1.0000   1.0000   1.0000   1.0000   1.0000
     1.0000   1.0000   1.0000   1.0000   1.0000   1.0000   1.0000   1.0000
     1.0000   1.0000   1.0000   1.0000   1.0000   1.0000   1.0000   1.0000
     1.0000   1.0000   1.0000   1.0000   1.0000   1.0000   1.0000   1.0000

          k = 0.1667 0.5322 0.1624 (  4215 PWs)   bands (ev):

   -14.0745 -14.0694 -14.0648 -14.0642 -14.0616 -14.0612 -14.0608 -14.0604
   -14.0498 -14.0484 -14.0476 -14.0405 -14.0367 -14.0324 -14.0168 -14.0159
   -14.0129 -14.0120 -14.0038 -14.0007  -5.9918  -5.7609  -5.2028  -4.9205
     0.0529   0.7146   1.3995   1.5245   2.9497   3.9133   4.1920   4.4635
     4.7833   5.0011   5.2223   5.5264   5.8181   6.3900   6.6276   6.7405

     occupation numbers 
     1.0000   1.0000   1.0000   1.0000   1.0000   1.0000   1.0000   1.0000
     1.0000   1.0000   1.0000   1.0000   1.0000   1.0000   1.0000   1.0000
     1.0000   1.0000   1.0000   1.0000   1.0000   1.0000   1.0000   1.0000
     1.0000   1.0000   1.0000   1.0000   1.0000   1.0000   1.0000   1.0000
     1.0000   1.0000   1.0000   1.0000   1.0000   1.0000   1.0000   1.0000

          k = 0.1667 0.5322 0.4873 (  4216 PWs)   bands (ev):

   -14.0742 -14.0693 -14.0664 -14.0647 -14.0620 -14.0618 -14.0606 -14.0603
   -14.0505 -14.0485 -14.0453 -14.0395 -14.0356 -14.0313 -14.0171 -14.0153
   -14.0131 -14.0126 -14.0036 -14.0010  -5.8869  -5.6659  -5.1908  -4.9340
    -0.1109   0.6273   1.0767   1.4278   3.0804   3.5154   3.7728   4.4805
     4.6871   5.2244   5.5504   5.6427   6.2820   6.3959   6.6455   6.8177

     occupation numbers 
     1.0000   1.0000   1.0000   1.0000   1.0000   1.0000   1.0000   1.0000
     1.0000   1.0000   1.0000   1.0000   1.0000   1.0000   1.0000   1.0000
     1.0000   1.0000   1.0000   1.0000   1.0000   1.0000   1.0000   1.0000
     1.0000   1.0000   1.0000   1.0000   1.0000   1.0000   1.0000   1.0000
     1.0000   1.0000   1.0000   1.0000   1.0000   1.0000   1.0000   1.0000

          k = 0.1667 0.5322 0.8122 (  4207 PWs)   bands (ev):

   -14.0736 -14.0692 -14.0685 -14.0656 -14.0627 -14.0624 -14.0607 -14.0603
   -14.0504 -14.0489 -14.0426 -14.0388 -14.0331 -14.0300 -14.0170 -14.0146
   -14.0141 -14.0130 -14.0032 -14.0015  -5.7020  -5.4999  -5.2021  -4.9851
    -0.3032   0.2895   0.8281   1.1919   3.3382   3.4662   3.7212   4.4268
     4.5170   5.2933   5.3710   5.9352   6.1394   6.3662   6.5566   6.7945

     occupation numbers 
     1.0000   1.0000   1.0000   1.0000   1.0000   1.0000   1.0000   1.0000
     1.0000   1.0000   1.0000   1.0000   1.0000   1.0000   1.0000   1.0000
     1.0000   1.0000   1.0000   1.0000   1.0000   1.0000   1.0000   1.0000
     1.0000   1.0000   1.0000   1.0000   1.0000   1.0000   1.0000   1.0000
     1.0000   1.0000   1.0000   1.0000   1.0000   1.0000   1.0000   1.0000

          k = 0.1667 0.5322 1.1371 (  4206 PWs)   bands (ev):

   -14.0727 -14.0711 -14.0681 -14.0669 -14.0631 -14.0630 -14.0608 -14.0606
   -14.0499 -14.0494 -14.0403 -14.0389 -14.0306 -14.0295 -14.0165 -14.0155
   -14.0138 -14.0132 -14.0027 -14.0021  -5.4902  -5.3529  -5.2383  -5.0986
    -0.3396  -0.1223   0.7889   0.9307   3.6524   3.7067   3.9519   4.2070
     4.4657   4.8122   5.4315   5.7179   6.0376   6.2697   6.5046   6.6802

     occupation numbers 
     1.0000   1.0000   1.0000   1.0000   1.0000   1.0000   1.0000   1.0000
     1.0000   1.0000   1.0000   1.0000   1.0000   1.0000   1.0000   1.0000
     1.0000   1.0000   1.0000   1.0000   1.0000   1.0000   1.0000   1.0000
     1.0000   1.0000   1.0000   1.0000   1.0000   1.0000   1.0000   1.0000
     1.0000   1.0000   1.0000   1.0000   1.0000   1.0000   1.0000   1.0000

          k = 0.1667 0.8870 0.1624 (  4231 PWs)   bands (ev):

   -14.0707 -14.0685 -14.0663 -14.0658 -14.0631 -14.0581 -14.0578 -14.0576
   -14.0520 -14.0513 -14.0485 -14.0412 -14.0338 -14.0292 -14.0193 -14.0189
   -14.0121 -14.0087 -14.0029 -14.0015  -5.7113  -5.5277  -5.1183  -4.9422
    -0.1759   0.3519   0.6957   0.9243   3.2836   4.0349   4.3864   4.6707
     5.0767   5.1308   5.3842   5.5638   5.9687   6.4065   6.4960   6.8156

     occupation numbers 
     1.0000   1.0000   1.0000   1.0000   1.0000   1.0000   1.0000   1.0000
     1.0000   1.0000   1.0000   1.0000   1.0000   1.0000   1.0000   1.0000
     1.0000   1.0000   1.0000   1.0000   1.0000   1.0000   1.0000   1.0000
     1.0000   1.0000   1.0000   1.0000   1.0000   1.0000   1.0000   1.0000
     1.0000   1.0000   1.0000   1.0000   1.0000   1.0000   1.0000   1.0000

          k = 0.1667 0.8870 0.4873 (  4232 PWs)   bands (ev):

   -14.0729 -14.0699 -14.0675 -14.0663 -14.0637 -14.0586 -14.0574 -14.0569
   -14.0519 -14.0512 -14.0465 -14.0409 -14.0323 -14.0284 -14.0188 -14.0184
   -14.0122 -14.0093 -14.0028 -14.0016  -5.6199  -5.4464  -5.1000  -4.9373
    -0.1399   0.4433   0.7140   0.8901   3.2858   3.4042   3.7157   4.2380
     4.6566   5.2398   5.3789   5.7680   5.8874   6.1262   6.4013   6.6061

     occupation numbers 
     1.0000   1.0000   1.0000   1.0000   1.0000   1.0000   1.0000   1.0000
     1.0000   1.0000   1.0000   1.0000   1.0000   1.0000   1.0000   1.0000
     1.0000   1.0000   1.0000   1.0000   1.0000   1.0000   1.0000   1.0000
     1.0000   1.0000   1.0000   1.0000   1.0000   1.0000   1.0000   1.0000
     1.0000   1.0000   1.0000   1.0000   1.0000   1.0000   1.0000   1.0000

          k = 0.1667 0.8870 0.8122 (  4224 PWs)   bands (ev):

   -14.0751 -14.0728 -14.0690 -14.0680 -14.0631 -14.0595 -14.0571 -14.0566
   -14.0513 -14.0510 -14.0442 -14.0406 -14.0298 -14.0273 -14.0178 -14.0175
   -14.0122 -14.0103 -14.0026 -14.0018  -5.4634  -5.3089  -5.0938  -4.9514
    -0.0893   0.4072   0.7586   0.9205   2.8926   3.2065   3.6509   3.8619
     4.1075   4.7811   5.0806   5.3961   5.6868   5.8649   6.0518   6.5361

     occupation numbers 
     1.0000   1.0000   1.0000   1.0000   1.0000   1.0000   1.0000   1.0000
     1.0000   1.0000   1.0000   1.0000   1.0000   1.0000   1.0000   1.0000
     1.0000   1.0000   1.0000   1.0000   1.0000   1.0000   1.0000   1.0000
     1.0000   1.0000   1.0000   1.0000   1.0000   1.0000   1.0000   1.0000
     1.0000   1.0000   1.0000   1.0000   1.0000   1.0000   1.0000   1.0000

          k = 0.1667 0.8870 1.1371 (  4206 PWs)   bands (ev):

   -14.0761 -14.0752 -14.0700 -14.0696 -14.0620 -14.0607 -14.0569 -14.0567
   -14.0507 -14.0506 -14.0422 -14.0410 -14.0276 -14.0268 -14.0170 -14.0169
   -14.0118 -14.0112 -14.0023 -14.0020  -5.2931  -5.1915  -5.1097  -5.0138
    -0.0026   0.1775   0.8833   0.9399   2.9029   3.2335   3.2787   3.6510
     4.0540   4.4704   4.7352   5.1382   5.3087   5.5445   6.1099   6.2635

     occupation numbers 
     1.0000   1.0000   1.0000   1.0000   1.0000   1.0000   1.0000   1.0000
     1.0000   1.0000   1.0000   1.0000   1.0000   1.0000   1.0000   1.0000
     1.0000   1.0000   1.0000   1.0000   1.0000   1.0000   1.0000   1.0000
     1.0000   1.0000   1.0000   1.0000   1.0000   1.0000   1.0000   1.0000
     1.0000   1.0000   1.0000   1.0000   1.0000   1.0000   1.0000   1.0000

          k = 0.1667 1.2418 0.1624 (  4241 PWs)   bands (ev):

   -14.0718 -14.0702 -14.0693 -14.0680 -14.0591 -14.0569 -14.0549 -14.0540
   -14.0524 -14.0503 -14.0488 -14.0446 -14.0297 -14.0264 -14.0246 -14.0229
   -14.0072 -14.0052 -14.0033 -14.0029  -5.3753  -5.2784  -5.1233  -5.0897
    -0.2384   0.0561   0.2152   0.4395   3.8057   4.2613   4.6066   4.8858
     5.0599   5.1322   5.5027   5.7345   6.0997   6.2536   6.3344   6.4824

     occupation numbers 
     1.0000   1.0000   1.0000   1.0000   1.0000   1.0000   1.0000   1.0000
     1.0000   1.0000   1.0000   1.0000   1.0000   1.0000   1.0000   1.0000
     1.0000   1.0000   1.0000   1.0000   1.0000   1.0000   1.0000   1.0000
     1.0000   1.0000   1.0000   1.0000   1.0000   1.0000   1.0000   1.0000
     1.0000   1.0000   1.0000   1.0000   1.0000   1.0000   1.0000   1.0000

          k = 0.1667 1.2418 0.4873 (  4234 PWs)   bands (ev):

   -14.0740 -14.0724 -14.0710 -14.0699 -14.0592 -14.0571 -14.0542 -14.0538
   -14.0517 -14.0503 -14.0472 -14.0441 -14.0286 -14.0264 -14.0228 -14.0219
   -14.0074 -14.0058 -14.0031 -14.0029  -5.3080  -5.2193  -5.0888  -5.0547
    -0.0938   0.1941   0.3489   0.5070   3.5588   3.7609   4.0037   4.2947
     4.4012   4.8816   5.2642   5.4424   5.5604   5.8485   6.2109   6.5037

     occupation numbers 
     1.0000   1.0000   1.0000   1.0000   1.0000   1.0000   1.0000   1.0000
     1.0000   1.0000   1.0000   1.0000   1.0000   1.0000   1.0000   1.0000
     1.0000   1.0000   1.0000   1.0000   1.0000   1.0000   1.0000   1.0000
     1.0000   1.0000   1.0000   1.0000   1.0000   1.0000   1.0000   1.0000
     1.0000   1.0000   1.0000   1.0000   1.0000   1.0000   1.0000   1.0000

          k = 0.1667 1.2418 0.8122 (  4211 PWs)   bands (ev):

   -14.0768 -14.0756 -14.0732 -14.0725 -14.0591 -14.0575 -14.0538 -14.0537
   -14.0506 -14.0498 -14.0457 -14.0436 -14.0269 -14.0257 -14.0207 -14.0203
   -14.0075 -14.0065 -14.0029 -14.0028  -5.2002  -5.1266  -5.0465  -5.0104
     0.1498   0.4052   0.5640   0.6192   2.9107   3.3410   3.4339   3.8251
     3.9302   4.3421   4.5824   5.0493   5.1335   5.4163   6.0637   6.2177

     occupation numbers 
     1.0000   1.0000   1.0000   1.0000   1.0000   1.0000   1.0000   1.0000
     1.0000   1.0000   1.0000   1.0000   1.0000   1.0000   1.0000   1.0000
     1.0000   1.0000   1.0000   1.0000   1.0000   1.0000   1.0000   1.0000
     1.0000   1.0000   1.0000   1.0000   1.0000   1.0000   1.0000   1.0000
     1.0000   1.0000   1.0000   1.0000   1.0000   1.0000   1.0000   1.0000

          k = 0.1667 1.2418 1.1371 (  4205 PWs)   bands (ev):

   -14.0785 -14.0781 -14.0747 -14.0744 -14.0588 -14.0582 -14.0537 -14.0536
   -14.0498 -14.0495 -14.0444 -14.0437 -14.0254 -14.0251 -14.0193 -14.0192
   -14.0074 -14.0071 -14.0028 -14.0028  -5.0984  -5.0550  -5.0247  -4.9948
     0.3835   0.4896   0.7482   0.7737   2.6491   2.8485   3.2000   3.3935
     3.6962   3.8087   4.2615   4.5681   5.1180   5.3143   5.9697   6.0094

     occupation numbers 
     1.0000   1.0000   1.0000   1.0000   1.0000   1.0000   1.0000   1.0000
     1.0000   1.0000   1.0000   1.0000   1.0000   1.0000   1.0000   1.0000
     1.0000   1.0000   1.0000   1.0000   1.0000   1.0000   1.0000   1.0000
     1.0000   1.0000   1.0000   1.0000   1.0000   1.0000   1.0000   1.0000
     1.0000   1.0000   1.0000   1.0000   1.0000   1.0000   1.0000   1.0000

          k =-0.5000 0.1774 0.1624 (  4226 PWs)   bands (ev):

   -14.0765 -14.0765 -14.0658 -14.0658 -14.0613 -14.0613 -14.0587 -14.0587
   -14.0457 -14.0457 -14.0450 -14.0450 -14.0361 -14.0361 -14.0176 -14.0176
   -14.0110 -14.0110 -14.0021 -14.0021  -6.0439  -6.0439  -5.0860  -5.0860
     0.4872   0.4872   2.0237   2.0237   3.4249   3.4249   4.3334   4.3334
     4.7307   4.7307   5.2923   5.2923   5.6296   5.6296   6.7487   6.7487

     occupation numbers 
     1.0000   1.0000   1.0000   1.0000   1.0000   1.0000   1.0000   1.0000
     1.0000   1.0000   1.0000   1.0000   1.0000   1.0000   1.0000   1.0000
     1.0000   1.0000   1.0000   1.0000   1.0000   1.0000   1.0000   1.0000
     1.0000   1.0000   1.0000   1.0000   1.0000   1.0000   1.0000   1.0000
     1.0000   1.0000   1.0000   1.0000   1.0000   1.0000   1.0000   1.0000

          k =-0.5000 0.1774 0.4873 (  4206 PWs)   bands (ev):

   -14.0758 -14.0758 -14.0659 -14.0659 -14.0621 -14.0621 -14.0589 -14.0589
   -14.0457 -14.0457 -14.0435 -14.0435 -14.0351 -14.0351 -14.0178 -14.0178
   -14.0112 -14.0112 -14.0021 -14.0021  -5.9380  -5.9380  -5.0913  -5.0913
     0.1823   0.1823   1.5755   1.5755   3.6131   3.6131   4.3847   4.3847
     5.0629   5.0629   5.4466   5.4466   6.1078   6.1078   6.6323   6.6323

     occupation numbers 
     1.0000   1.0000   1.0000   1.0000   1.0000   1.0000   1.0000   1.0000
     1.0000   1.0000   1.0000   1.0000   1.0000   1.0000   1.0000   1.0000
     1.0000   1.0000   1.0000   1.0000   1.0000   1.0000   1.0000   1.0000
     1.0000   1.0000   1.0000   1.0000   1.0000   1.0000   1.0000   1.0000
     1.0000   1.0000   1.0000   1.0000   1.0000   1.0000   1.0000   1.0000

          k =-0.5000 0.1774 0.8122 (  4202 PWs)   bands (ev):

   -14.0746 -14.0746 -14.0665 -14.0665 -14.0631 -14.0631 -14.0593 -14.0593
   -14.0461 -14.0461 -14.0411 -14.0411 -14.0335 -14.0335 -14.0181 -14.0181
   -14.0115 -14.0115 -14.0023 -14.0023  -5.7518  -5.7518  -5.1322  -5.1322
    -0.1775  -0.1775   1.0423   1.0423   3.9236   3.9236   4.6606   4.6606
     5.2020   5.2020   5.6907   5.6907   6.3222   6.3222   6.8434   6.8434

     occupation numbers 
     1.0000   1.0000   1.0000   1.0000   1.0000   1.0000   1.0000   1.0000
     1.0000   1.0000   1.0000   1.0000   1.0000   1.0000   1.0000   1.0000
     1.0000   1.0000   1.0000   1.0000   1.0000   1.0000   1.0000   1.0000
     1.0000   1.0000   1.0000   1.0000   1.0000   1.0000   1.0000   1.0000
     1.0000   1.0000   1.0000   1.0000   1.0000   1.0000   1.0000   1.0000

          k =-0.5000 0.1774 1.1371 (  4182 PWs)   bands (ev):

   -14.0734 -14.0734 -14.0673 -14.0673 -14.0636 -14.0636 -14.0597 -14.0597
   -14.0463 -14.0463 -14.0394 -14.0394 -14.0323 -14.0323 -14.0183 -14.0183
   -14.0116 -14.0116 -14.0023 -14.0023  -5.5520  -5.5520  -5.2275  -5.2275
    -0.3886  -0.3886   0.6955   0.6955   4.3339   4.3339   4.9602   4.9602
     5.0348   5.0348   5.5336   5.5336   6.7260   6.7260   6.9965   6.9965

     occupation numbers 
     1.0000   1.0000   1.0000   1.0000   1.0000   1.0000   1.0000   1.0000
     1.0000   1.0000   1.0000   1.0000   1.0000   1.0000   1.0000   1.0000
     1.0000   1.0000   1.0000   1.0000   1.0000   1.0000   1.0000   1.0000
     1.0000   1.0000   1.0000   1.0000   1.0000   1.0000   1.0000   1.0000
     1.0000   1.0000   1.0000   1.0000   1.0000   1.0000   1.0000   1.0000

          k =-0.5000 0.5322 0.1624 (  4210 PWs)   bands (ev):

   -14.0721 -14.0721 -14.0644 -14.0644 -14.0618 -14.0618 -14.0605 -14.0605
   -14.0488 -14.0488 -14.0447 -14.0447 -14.0340 -14.0340 -14.0160 -14.0160
   -14.0128 -14.0128 -14.0022 -14.0022  -5.8960  -5.8960  -5.0417  -5.0417
     0.3026   0.3026   1.5176   1.5176   3.5537   3.5537   4.2002   4.2002
     5.0437   5.0437   5.2128   5.2128   5.8888   5.8888   6.7801   6.7801

     occupation numbers 
     1.0000   1.0000   1.0000   1.0000   1.0000   1.0000   1.0000   1.0000
     1.0000   1.0000   1.0000   1.0000   1.0000   1.0000   1.0000   1.0000
     1.0000   1.0000   1.0000   1.0000   1.0000   1.0000   1.0000   1.0000
     1.0000   1.0000   1.0000   1.0000   1.0000   1.0000   1.0000   1.0000
     1.0000   1.0000   1.0000   1.0000   1.0000   1.0000   1.0000   1.0000

          k =-0.5000 0.5322 0.4873 (  4216 PWs)   bands (ev):

   -14.0719 -14.0719 -14.0656 -14.0656 -14.0619 -14.0619 -14.0604 -14.0604
   -14.0489 -14.0489 -14.0433 -14.0433 -14.0329 -14.0329 -14.0159 -14.0159
   -14.0132 -14.0132 -14.0022 -14.0022  -5.7960  -5.7960  -5.0426  -5.0426
     0.1630   0.1630   1.3141   1.3141   3.5176   3.5176   4.0243   4.0243
     4.6868   4.6868   5.7081   5.7081   6.2870   6.2870   6.7308   6.7308

     occupation numbers 
     1.0000   1.0000   1.0000   1.0000   1.0000   1.0000   1.0000   1.0000
     1.0000   1.0000   1.0000   1.0000   1.0000   1.0000   1.0000   1.0000
     1.0000   1.0000   1.0000   1.0000   1.0000   1.0000   1.0000   1.0000
     1.0000   1.0000   1.0000   1.0000   1.0000   1.0000   1.0000   1.0000
     1.0000   1.0000   1.0000   1.0000   1.0000   1.0000   1.0000   1.0000

          k =-0.5000 0.5322 0.8122 (  4202 PWs)   bands (ev):

   -14.0716 -14.0716 -14.0675 -14.0675 -14.0623 -14.0623 -14.0603 -14.0603
   -14.0491 -14.0491 -14.0415 -14.0415 -14.0311 -14.0311 -14.0158 -14.0158
   -14.0138 -14.0138 -14.0021 -14.0021  -5.6219  -5.6219  -5.0727  -5.0727
    -0.0545  -0.0545   1.0207   1.0207   3.5150   3.5150   4.1951   4.1951
     4.5541   4.5541   5.7424   5.7424   6.1502   6.1502   6.6945   6.6945

     occupation numbers 
     1.0000   1.0000   1.0000   1.0000   1.0000   1.0000   1.0000   1.0000
     1.0000   1.0000   1.0000   1.0000   1.0000   1.0000   1.0000   1.0000
     1.0000   1.0000   1.0000   1.0000   1.0000   1.0000   1.0000   1.0000
     1.0000   1.0000   1.0000   1.0000   1.0000   1.0000   1.0000   1.0000
     1.0000   1.0000   1.0000   1.0000   1.0000   1.0000   1.0000   1.0000

          k =-0.5000 0.5322 1.1371 (  4182 PWs)   bands (ev):

   -14.0712 -14.0712 -14.0690 -14.0690 -14.0627 -14.0627 -14.0602 -14.0602
   -14.0491 -14.0491 -14.0403 -14.0403 -14.0297 -14.0297 -14.0157 -14.0157
   -14.0141 -14.0141 -14.0021 -14.0021  -5.4386  -5.4386  -5.1517  -5.1517
    -0.2095  -0.2095   0.8009   0.8009   3.7517   3.7517   4.1306   4.1306
     4.8098   4.8098   5.3213   5.3213   6.0006   6.0006   6.5103   6.5103

     occupation numbers 
     1.0000   1.0000   1.0000   1.0000   1.0000   1.0000   1.0000   1.0000
     1.0000   1.0000   1.0000   1.0000   1.0000   1.0000   1.0000   1.0000
     1.0000   1.0000   1.0000   1.0000   1.0000   1.0000   1.0000   1.0000
     1.0000   1.0000   1.0000   1.0000   1.0000   1.0000   1.0000   1.0000
     1.0000   1.0000   1.0000   1.0000   1.0000   1.0000   1.0000   1.0000

          k =-0.5000 0.8870 0.1624 (  4220 PWs)   bands (ev):

   -14.0700 -14.0700 -14.0654 -14.0654 -14.0611 -14.0611 -14.0580 -14.0580
   -14.0513 -14.0513 -14.0451 -14.0451 -14.0310 -14.0310 -14.0192 -14.0192
   -14.0103 -14.0103 -14.0021 -14.0021  -5.6340  -5.6340  -5.0154  -5.0154
     0.0438   0.0438   0.8214   0.8214   3.8436   3.8436   4.3757   4.3757
     5.2118   5.2118   5.3965   5.3965   5.9339   5.9339   6.6727   6.6727

     occupation numbers 
     1.0000   1.0000   1.0000   1.0000   1.0000   1.0000   1.0000   1.0000
     1.0000   1.0000   1.0000   1.0000   1.0000   1.0000   1.0000   1.0000
     1.0000   1.0000   1.0000   1.0000   1.0000   1.0000   1.0000   1.0000
     1.0000   1.0000   1.0000   1.0000   1.0000   1.0000   1.0000   1.0000
     1.0000   1.0000   1.0000   1.0000   1.0000   1.0000   1.0000   1.0000

          k =-0.5000 0.8870 0.4873 (  4210 PWs)   bands (ev):

   -14.0716 -14.0716 -14.0669 -14.0669 -14.0612 -14.0612 -14.0573 -14.0573
   -14.0508 -14.0508 -14.0444 -14.0444 -14.0299 -14.0299 -14.0188 -14.0188
   -14.0106 -14.0106 -14.0021 -14.0021  -5.5475  -5.5475  -5.0042  -5.0042
     0.0963   0.0963   0.8282   0.8282   3.4179   3.4179   4.1487   4.1487
     4.6198   4.6198   5.6502   5.6502   5.8465   5.8465   6.5678   6.5678

     occupation numbers 
     1.0000   1.0000   1.0000   1.0000   1.0000   1.0000   1.0000   1.0000
     1.0000   1.0000   1.0000   1.0000   1.0000   1.0000   1.0000   1.0000
     1.0000   1.0000   1.0000   1.0000   1.0000   1.0000   1.0000   1.0000
     1.0000   1.0000   1.0000   1.0000   1.0000   1.0000   1.0000   1.0000
     1.0000   1.0000   1.0000   1.0000   1.0000   1.0000   1.0000   1.0000

          k =-0.5000 0.8870 0.8122 (  4210 PWs)   bands (ev):

   -14.0738 -14.0738 -14.0690 -14.0690 -14.0615 -14.0615 -14.0567 -14.0567
   -14.0503 -14.0503 -14.0433 -14.0433 -14.0280 -14.0280 -14.0181 -14.0181
   -14.0110 -14.0110 -14.0021 -14.0021  -5.4012  -5.4012  -5.0075  -5.0075
     0.1261   0.1261   0.8483   0.8483   3.0614   3.0614   3.8220   3.8220
     4.4698   4.4698   5.1204   5.1204   5.6328   5.6328   6.3711   6.3711

     occupation numbers 
     1.0000   1.0000   1.0000   1.0000   1.0000   1.0000   1.0000   1.0000
     1.0000   1.0000   1.0000   1.0000   1.0000   1.0000   1.0000   1.0000
     1.0000   1.0000   1.0000   1.0000   1.0000   1.0000   1.0000   1.0000
     1.0000   1.0000   1.0000   1.0000   1.0000   1.0000   1.0000   1.0000
     1.0000   1.0000   1.0000   1.0000   1.0000   1.0000   1.0000   1.0000

          k =-0.5000 0.8870 1.1371 (  4208 PWs)   bands (ev):

   -14.0752 -14.0752 -14.0705 -14.0705 -14.0616 -14.0616 -14.0565 -14.0565
   -14.0500 -14.0500 -14.0426 -14.0426 -14.0265 -14.0265 -14.0176 -14.0176
   -14.0113 -14.0113 -14.0021 -14.0021  -5.2545  -5.2545  -5.0497  -5.0497
     0.1014   0.1014   0.8797   0.8797   3.0712   3.0712   3.4128   3.4128
     4.4591   4.4591   4.7797   4.7797   5.5374   5.5374   6.0175   6.0175

     occupation numbers 
     1.0000   1.0000   1.0000   1.0000   1.0000   1.0000   1.0000   1.0000
     1.0000   1.0000   1.0000   1.0000   1.0000   1.0000   1.0000   1.0000
     1.0000   1.0000   1.0000   1.0000   1.0000   1.0000   1.0000   1.0000
     1.0000   1.0000   1.0000   1.0000   1.0000   1.0000   1.0000   1.0000
     1.0000   1.0000   1.0000   1.0000   1.0000   1.0000   1.0000   1.0000

          k =-0.5000 1.2418 0.1624 (  4232 PWs)   bands (ev):

   -14.0707 -14.0707 -14.0691 -14.0691 -14.0570 -14.0570 -14.0562 -14.0562
   -14.0502 -14.0502 -14.0471 -14.0471 -14.0277 -14.0277 -14.0239 -14.0239
   -14.0061 -14.0061 -14.0031 -14.0031  -5.3326  -5.3326  -5.1010  -5.1010
    -0.0351  -0.0351   0.2390   0.2390   4.3129   4.3129   4.6561   4.6561
     5.1393   5.1393   5.3598   5.3598   6.0500   6.0500   6.3717   6.3717

     occupation numbers 
     1.0000   1.0000   1.0000   1.0000   1.0000   1.0000   1.0000   1.0000
     1.0000   1.0000   1.0000   1.0000   1.0000   1.0000   1.0000   1.0000
     1.0000   1.0000   1.0000   1.0000   1.0000   1.0000   1.0000   1.0000
     1.0000   1.0000   1.0000   1.0000   1.0000   1.0000   1.0000   1.0000
     1.0000   1.0000   1.0000   1.0000   1.0000   1.0000   1.0000   1.0000

          k =-0.5000 1.2418 0.4873 (  4230 PWs)   bands (ev):

   -14.0727 -14.0727 -14.0710 -14.0710 -14.0572 -14.0572 -14.0558 -14.0558
   -14.0493 -14.0493 -14.0465 -14.0465 -14.0266 -14.0266 -14.0230 -14.0230
   -14.0063 -14.0063 -14.0032 -14.0032  -5.2692  -5.2692  -5.0664  -5.0664
     0.0999   0.0999   0.3519   0.3519   3.7082   3.7082   4.2107   4.2107
     4.7269   4.7269   5.1670   5.1670   5.7236   5.7236   6.1525   6.1525

     occupation numbers 
     1.0000   1.0000   1.0000   1.0000   1.0000   1.0000   1.0000   1.0000
     1.0000   1.0000   1.0000   1.0000   1.0000   1.0000   1.0000   1.0000
     1.0000   1.0000   1.0000   1.0000   1.0000   1.0000   1.0000   1.0000
     1.0000   1.0000   1.0000   1.0000   1.0000   1.0000   1.0000   1.0000
     1.0000   1.0000   1.0000   1.0000   1.0000   1.0000   1.0000   1.0000

          k =-0.5000 1.2418 0.8122 (  4224 PWs)   bands (ev):

   -14.0754 -14.0754 -14.0736 -14.0736 -14.0577 -14.0577 -14.0556 -14.0556
   -14.0483 -14.0483 -14.0457 -14.0457 -14.0249 -14.0249 -14.0218 -14.0218
   -14.0065 -14.0065 -14.0032 -14.0032  -5.1691  -5.1691  -5.0229  -5.0229
     0.3049   0.3049   0.5474   0.5474   3.1280   3.1280   3.6301   3.6301
     4.1754   4.1754   4.6260   4.6260   5.5806   5.5806   5.9472   5.9472

     occupation numbers 
     1.0000   1.0000   1.0000   1.0000   1.0000   1.0000   1.0000   1.0000
     1.0000   1.0000   1.0000   1.0000   1.0000   1.0000   1.0000   1.0000
     1.0000   1.0000   1.0000   1.0000   1.0000   1.0000   1.0000   1.0000
     1.0000   1.0000   1.0000   1.0000   1.0000   1.0000   1.0000   1.0000
     1.0000   1.0000   1.0000   1.0000   1.0000   1.0000   1.0000   1.0000

          k =-0.5000 1.2418 1.1371 (  4200 PWs)   bands (ev):

   -14.0773 -14.0773 -14.0755 -14.0755 -14.0580 -14.0580 -14.0557 -14.0557
   -14.0476 -14.0476 -14.0451 -14.0451 -14.0236 -14.0236 -14.0208 -14.0208
   -14.0066 -14.0066 -14.0033 -14.0033  -5.0811  -5.0811  -5.0053  -5.0053
     0.4461   0.4461   0.7402   0.7402   2.9102   2.9102   3.1595   3.1595
     3.7946   3.7946   4.1114   4.1114   5.6751   5.6751   5.8563   5.8563

     occupation numbers 
     1.0000   1.0000   1.0000   1.0000   1.0000   1.0000   1.0000   1.0000
     1.0000   1.0000   1.0000   1.0000   1.0000   1.0000   1.0000   1.0000
     1.0000   1.0000   1.0000   1.0000   1.0000   1.0000   1.0000   1.0000
     1.0000   1.0000   1.0000   1.0000   1.0000   1.0000   1.0000   1.0000
     1.0000   1.0000   1.0000   1.0000   1.0000   1.0000   1.0000   1.0000

     highest occupied level (ev):     7.0698

!    total energy              =    -827.73798630 Ry
     estimated scf accuracy    <          5.1E-10 Ry

     The total energy is the sum of the following terms:
     one-electron contribution =    -271.86268541 Ry
     hartree contribution      =     184.21573603 Ry
     xc contribution           =    -308.89380921 Ry
     ewald contribution        =    -431.07935239 Ry
     DFT-D3 Dispersion         =      -0.11787532 Ry

     convergence has been achieved in  12 iterations

     Forces acting on atoms (cartesian axes, Ry/au):

     atom    1 type  2   force =    -0.00630726    0.00000000   -0.00068124
     atom    2 type  1   force =     0.00671238    0.00000000    0.00083343
     atom    3 type  2   force =     0.00630726    0.00000000   -0.00068124
     atom    4 type  1   force =    -0.00671238    0.00000000    0.00083343
     atom    5 type  2   force =    -0.00630726    0.00000000    0.00068124
     atom    6 type  1   force =     0.00671238    0.00000000   -0.00083343
     atom    7 type  2   force =     0.00630726   -0.00000000    0.00068124
     atom    8 type  1   force =    -0.00671238    0.00000000   -0.00083343
     The non-local contrib.  to forces
     atom    1 type  2   force =    -0.09814445    0.00000000    0.11631753
     atom    2 type  1   force =     0.33910830    0.00000000    0.30275164
     atom    3 type  2   force =     0.09814445    0.00000000    0.11631753
     atom    4 type  1   force =    -0.33910830    0.00000000    0.30275164
     atom    5 type  2   force =    -0.09814445    0.00000000   -0.11631753
     atom    6 type  1   force =     0.33910830    0.00000000   -0.30275164
     atom    7 type  2   force =     0.09814445    0.00000000   -0.11631753
     atom    8 type  1   force =    -0.33910830    0.00000000   -0.30275164
     The ionic contribution  to forces
     atom    1 type  2   force =     0.97472237   -0.00000000   -1.39651181
     atom    2 type  1   force =    -0.58044872    0.00000000   -0.85329894
     atom    3 type  2   force =    -0.97472237   -0.00000000   -1.39651181
     atom    4 type  1   force =     0.58044872   -0.00000000   -0.85329894
     atom    5 type  2   force =     0.97472237    0.00000000    1.39651181
     atom    6 type  1   force =    -0.58044872   -0.00000000    0.85329894
     atom    7 type  2   force =    -0.97472237   -0.00000000    1.39651181
     atom    8 type  1   force =     0.58044872   -0.00000000    0.85329894
     The local contribution  to forces
     atom    1 type  2   force =    -0.89371708    0.00000000    1.29068437
     atom    2 type  1   force =     0.25553985    0.00000000    0.55503780
     atom    3 type  2   force =     0.89371708    0.00000000    1.29068437
     atom    4 type  1   force =    -0.25553985   -0.00000000    0.55503780
     atom    5 type  2   force =    -0.89371708    0.00000000   -1.29068437
     atom    6 type  1   force =     0.25553985    0.00000000   -0.55503780
     atom    7 type  2   force =     0.89371708    0.00000000   -1.29068437
     atom    8 type  1   force =    -0.25553985   -0.00000000   -0.55503780
     The core correction contribution to forces
     atom    1 type  2   force =     0.01134881    0.00000000   -0.01304368
     atom    2 type  1   force =    -0.00714382   -0.00000000   -0.00476331
     atom    3 type  2   force =    -0.01134881   -0.00000000   -0.01304368
     atom    4 type  1   force =     0.00714382   -0.00000000   -0.00476331
     atom    5 type  2   force =     0.01134881   -0.00000000    0.01304368
     atom    6 type  1   force =    -0.00714382    0.00000000    0.00476331
     atom    7 type  2   force =    -0.01134881   -0.00000000    0.01304368
     atom    8 type  1   force =     0.00714382   -0.00000000    0.00476331
     The Hubbard contrib.    to forces
     atom    1 type  2   force =     0.00000000    0.00000000    0.00000000
     atom    2 type  1   force =     0.00000000    0.00000000    0.00000000
     atom    3 type  2   force =     0.00000000    0.00000000    0.00000000
     atom    4 type  1   force =     0.00000000    0.00000000    0.00000000
     atom    5 type  2   force =     0.00000000    0.00000000    0.00000000
     atom    6 type  1   force =     0.00000000    0.00000000    0.00000000
     atom    7 type  2   force =     0.00000000    0.00000000    0.00000000
     atom    8 type  1   force =     0.00000000    0.00000000    0.00000000
     The SCF correction term to forces
     atom    1 type  2   force =    -0.00000167    0.00000000    0.00000001
     atom    2 type  1   force =     0.00002329   -0.00000000    0.00001534
     atom    3 type  2   force =     0.00000167   -0.00000000    0.00000001
     atom    4 type  1   force =    -0.00002329    0.00000000    0.00001534
     atom    5 type  2   force =    -0.00000167    0.00000000   -0.00000001
     atom    6 type  1   force =     0.00002329   -0.00000000   -0.00001534
     atom    7 type  2   force =     0.00000167   -0.00000000   -0.00000001
     atom    8 type  1   force =    -0.00002329    0.00000000   -0.00001534

     DFT-D3 dispersion contribution to forces:
     atom    1 type  2   force =    -0.00051525    0.00000000    0.00187234
     atom    2 type  1   force =    -0.00036651   -0.00000000    0.00109089
     atom    3 type  2   force =     0.00051525    0.00000000    0.00187234
     atom    4 type  1   force =     0.00036651    0.00000000    0.00109089
     atom    5 type  2   force =    -0.00051525   -0.00000000   -0.00187234
     atom    6 type  1   force =    -0.00036651   -0.00000000   -0.00109089
     atom    7 type  2   force =     0.00051525    0.00000000   -0.00187234
     atom    8 type  1   force =     0.00036651    0.00000000   -0.00109089

     Total force =     0.018547     Total SCF correction =     0.000056

     DFT-D3 dispersion Force =     0.004515

     Writing all to output data dir ./tmp/SnSe_pnma.save/ :
     XML data file, charge density, pseudopotentials, collected wavefunctions
 
     init_run     :      1.04s CPU      1.17s WALL (       1 calls)
     electrons    :     24.60s CPU     26.54s WALL (       1 calls)
     forces       :      0.52s CPU      0.59s WALL (       1 calls)
     force_dftd3  :      0.05s CPU      0.06s WALL (       1 calls)

     Called by init_run:
     wfcinit      :      0.55s CPU      0.58s WALL (       1 calls)
     wfcinit:atom :      0.01s CPU      0.01s WALL (      11 calls)
     wfcinit:wfcr :      0.47s CPU      0.48s WALL (      11 calls)
     potinit      :      0.12s CPU      0.13s WALL (       1 calls)
     hinit0       :      0.14s CPU      0.15s WALL (       1 calls)

     Called by electrons:
     c_bands      :     18.10s CPU     18.36s WALL (      12 calls)
     sum_band     :      4.14s CPU      4.98s WALL (      12 calls)
     v_of_rho     :      0.79s CPU      0.82s WALL (      13 calls)
     v_h          :      0.05s CPU      0.06s WALL (      13 calls)
     v_xc         :      0.80s CPU      0.82s WALL (      14 calls)
     newd         :      1.59s CPU      2.44s WALL (      13 calls)
     mix_rho      :      0.09s CPU      0.09s WALL (      12 calls)
     energy_dftd3 :      0.05s CPU      0.05s WALL (       1 calls)

     Called by c_bands:
     init_us_2    :      0.58s CPU      0.59s WALL (     286 calls)
     cegterg      :     15.76s CPU     15.94s WALL (     132 calls)

     Called by sum_band:
     sum_band:wei :      0.00s CPU      0.00s WALL (      12 calls)
     sum_band:loo :      2.45s CPU      2.49s WALL (      12 calls)
     sum_band:buf :      0.04s CPU      0.04s WALL (     132 calls)
     sum_band:ini :      0.26s CPU      0.26s WALL (     132 calls)
     sum_band:cal :      0.38s CPU      0.38s WALL (     132 calls)
     sum_band:bec :      0.01s CPU      0.01s WALL (     132 calls)
     addusdens    :      1.48s CPU      2.19s WALL (      12 calls)
                                        0.00s GPU  (      12 calls)
     addusd:skk   :      0.01s CPU      0.01s WALL (      24 calls)
                                        0.00s GPU  (      24 calls)

     Called by *egterg:
     cdiaghg      :      0.96s CPU      0.97s WALL (     602 calls)
     cegterg:over :      0.89s CPU      0.89s WALL (     470 calls)
     cegterg:upda :      0.51s CPU      0.51s WALL (     470 calls)
     cegterg:last :      1.19s CPU      1.19s WALL (     320 calls)
     h_psi        :     10.90s CPU     11.03s WALL (     613 calls)
     s_psi        :      1.24s CPU      1.24s WALL (     613 calls)
     g_psi        :      0.05s CPU      0.05s WALL (     470 calls)

     Called by h_psi:
     h_psi:calbec :      1.21s CPU      1.21s WALL (     613 calls)
     vloc_psi     :      8.29s CPU      8.41s WALL (     613 calls)
     add_vuspsi   :      1.29s CPU      1.29s WALL (     613 calls)

     General routines
     calbec       :      1.71s CPU      1.72s WALL (     789 calls)
     fft          :      0.35s CPU      0.36s WALL (     178 calls)
     ffts         :      0.01s CPU      0.01s WALL (      25 calls)
     fftw         :      6.69s CPU      6.78s WALL (   36758 calls)
     interpolate  :      0.03s CPU      0.04s WALL (      13 calls)
 
     Parallel routines
 
     PWSCF        :     26.45s CPU     29.03s WALL

 
   This run was terminated on:  14:32:27  20May2026            

=------------------------------------------------------------------------------=
   JOB DONE.
=------------------------------------------------------------------------------=
