
     Program PWSCF v.7.3.1 starts on 19May2026 at 22:21:15 

     This program is part of the open-source Quantum ESPRESSO suite
     for quantum simulation of materials; please cite
         "P. Giannozzi et al., J. Phys.:Condens. Matter 21 395502 (2009);
         "P. Giannozzi et al., J. Phys.:Condens. Matter 29 465901 (2017);
         "P. Giannozzi et al., J. Chem. Phys. 152 154105 (2020);
          URL http://www.quantum-espresso.org", 
     in publications or presentations arising from this work. More details at
     http://www.quantum-espresso.org/quote

     Parallel version (MPI & OpenMP), running on       6 processor cores
     Number of MPI processes:                 6
     Threads/MPI process:                     1

     MPI processes distributed on     1 nodes
     11620 MiB available memory on the printing compute node when the environment starts
 
     Waiting for input...
     Reading input from standard input

     Current dimensions of program PWSCF are:
     Max number of different atomic species (ntypx) = 10
     Max number of k-points (npk) =  40000
     Max angular momentum in pseudopotentials (lmaxx) =  4
 
     K-points division:     npool     =       3
     R & G space division:  proc/nbgrp/npool/nimage =       2
     Subspace diagonalization in iterative solution of the eigenvalue problem:
     a serial algorithm will be used

 
     Parallelization info
     --------------------
     sticks:   dense  smooth     PW     G-vecs:    dense   smooth      PW
     Min        4319    1729    490               193420    48944    7347
     Max        4320    1730    491               193421    48945    7348
     Sum        8639    3459    981               386841    97889   14695
 
     Using Slab Decomposition
 


     bravais-lattice index     =            8
     lattice parameter (alat)  =      22.9602  a.u.
     unit-cell volume          =    1558.0836 (a.u.)^3
     number of atoms/cell      =            8
     number of atomic types    =            2
     number of electrons       =        80.00
     number of Kohn-Sham states=           40
     kinetic-energy cutoff     =      60.0000  Ry
     charge density cutoff     =     600.0000  Ry
     scf convergence threshold =      1.0E-08
     mixing beta               =       0.7000
     number of iterations used =            8  plain     mixing
     Exchange-correlation= SLA  PW   PBE  PBE
                           (   1   4   3   4   0   0   0)

     celldm(1)=  22.960172  celldm(2)=   0.343325  celldm(3)=   0.374938
     celldm(4)=   0.000000  celldm(5)=   0.000000  celldm(6)=   0.000000

     crystal axes: (cart. coord. in units of alat)
               a(1) = (   1.000000   0.000000   0.000000 )  
               a(2) = (   0.000000   0.343325   0.000000 )  
               a(3) = (   0.000000   0.000000   0.374938 )  

     reciprocal axes: (cart. coord. in units 2 pi/alat)
               b(1) = (  1.000000  0.000000  0.000000 )  
               b(2) = (  0.000000  2.912691  0.000000 )  
               b(3) = (  0.000000  0.000000  2.667106 )  


     PseudoPot. # 1 for Sn read from file:
     ../pseudo/Sn_pbe_v1.uspp.F.UPF
     MD5 check sum: 4cf58ce39ec5d5d420df3dd08604eb00
     Pseudo is Ultrasoft + core correction, Zval = 14.0
     Generated by new atomic code, or converted to UPF format
     Using radial grid of  891 points,  6 beta functions with: 
                l(1) =   0
                l(2) =   0
                l(3) =   1
                l(4) =   1
                l(5) =   2
                l(6) =   2
     Q(r) pseudized with  6 coefficients,  rinner =    1.200   1.200   1.200
                                                       1.200   1.200

     PseudoPot. # 2 for Se read from file:
     ../pseudo/Se_pbe_v1.uspp.F.UPF
     MD5 check sum: 1b3568f3a8ae88f9a2a0ad0698632c85
     Pseudo is Ultrasoft + core correction, Zval =  6.0
     Generated by new atomic code, or converted to UPF format
     Using radial grid of  877 points,  6 beta functions with: 
                l(1) =   0
                l(2) =   0
                l(3) =   1
                l(4) =   1
                l(5) =   2
                l(6) =   2
     Q(r) pseudized with  8 coefficients,  rinner =    1.300   1.300   1.300
                                                       1.300   1.300

     atomic species   valence    mass     pseudopotential
     Sn               14.00   118.71000     Sn( 1.00)
     Se                6.00    78.97100     Se( 1.00)

      8 Sym. Ops., with inversion, found ( 6 have fractional translation)


                                    s                        frac. trans.

      isym =  1     identity                                     

 cryst.   s( 1) = (     1          0          0      )
                  (     0          1          0      )
                  (     0          0          1      )

 cart.    s( 1) = (  1.0000000  0.0000000  0.0000000 )
                  (  0.0000000  1.0000000  0.0000000 )
                  (  0.0000000  0.0000000  1.0000000 )


      isym =  2     180 deg rotation - cart. axis [0,0,1]        

 cryst.   s( 2) = (    -1          0          0      )    f =(  0.5000000 )
                  (     0         -1          0      )       ( -0.0000000 )
                  (     0          0          1      )       ( -0.5000000 )

 cart.    s( 2) = ( -1.0000000  0.0000000  0.0000000 )    f =(  0.5000000 )
                  (  0.0000000 -1.0000000  0.0000000 )       ( -0.0000000 )
                  (  0.0000000  0.0000000  1.0000000 )       ( -0.1874691 )


      isym =  3     180 deg rotation - cart. axis [0,1,0]        

 cryst.   s( 3) = (    -1          0          0      )    f =(  0.0000000 )
                  (     0          1          0      )       ( -0.5000000 )
                  (     0          0         -1      )       ( -0.0000000 )

 cart.    s( 3) = ( -1.0000000  0.0000000  0.0000000 )    f =(  0.0000000 )
                  (  0.0000000  1.0000000  0.0000000 )       ( -0.1716626 )
                  (  0.0000000  0.0000000 -1.0000000 )       ( -0.0000000 )


      isym =  4     180 deg rotation - cart. axis [1,0,0]        

 cryst.   s( 4) = (     1          0          0      )    f =(  0.5000000 )
                  (     0         -1          0      )       (  0.5000000 )
                  (     0          0         -1      )       (  0.5000000 )

 cart.    s( 4) = (  1.0000000  0.0000000  0.0000000 )    f =(  0.5000000 )
                  (  0.0000000 -1.0000000  0.0000000 )       (  0.1716626 )
                  (  0.0000000  0.0000000 -1.0000000 )       (  0.1874691 )


      isym =  5     inversion                                    

 cryst.   s( 5) = (    -1          0          0      )
                  (     0         -1          0      )
                  (     0          0         -1      )

 cart.    s( 5) = ( -1.0000000  0.0000000  0.0000000 )
                  (  0.0000000 -1.0000000  0.0000000 )
                  (  0.0000000  0.0000000 -1.0000000 )


      isym =  6     inv. 180 deg rotation - cart. axis [0,0,1]   

 cryst.   s( 6) = (     1          0          0      )    f =(  0.5000000 )
                  (     0          1          0      )       (  0.0000000 )
                  (     0          0         -1      )       (  0.5000000 )

 cart.    s( 6) = (  1.0000000  0.0000000  0.0000000 )    f =(  0.5000000 )
                  (  0.0000000  1.0000000  0.0000000 )       (  0.0000000 )
                  (  0.0000000  0.0000000 -1.0000000 )       (  0.1874691 )


      isym =  7     inv. 180 deg rotation - cart. axis [0,1,0]   

 cryst.   s( 7) = (     1          0          0      )    f =(  0.0000000 )
                  (     0         -1          0      )       (  0.5000000 )
                  (     0          0          1      )       (  0.0000000 )

 cart.    s( 7) = (  1.0000000  0.0000000  0.0000000 )    f =(  0.0000000 )
                  (  0.0000000 -1.0000000  0.0000000 )       (  0.1716626 )
                  (  0.0000000  0.0000000  1.0000000 )       (  0.0000000 )


      isym =  8     inv. 180 deg rotation - cart. axis [1,0,0]   

 cryst.   s( 8) = (    -1          0          0      )    f =(  0.5000000 )
                  (     0          1          0      )       ( -0.5000000 )
                  (     0          0          1      )       ( -0.5000000 )

 cart.    s( 8) = ( -1.0000000  0.0000000  0.0000000 )    f =(  0.5000000 )
                  (  0.0000000  1.0000000  0.0000000 )       ( -0.1716626 )
                  (  0.0000000  0.0000000  1.0000000 )       ( -0.1874691 )


     point group D_2h (mmm) 
     there are  8 classes
     the character table:

       E     C2    C2'   C2''  i     s_v   s_v'  s_v''
A_g    1.00  1.00  1.00  1.00  1.00  1.00  1.00  1.00
B_1g   1.00  1.00 -1.00 -1.00  1.00  1.00 -1.00 -1.00
B_2g   1.00 -1.00  1.00 -1.00  1.00 -1.00  1.00 -1.00
B_3g   1.00 -1.00 -1.00  1.00  1.00 -1.00 -1.00  1.00
A_u    1.00  1.00  1.00  1.00 -1.00 -1.00 -1.00 -1.00
B_1u   1.00  1.00 -1.00 -1.00 -1.00 -1.00  1.00  1.00
B_2u   1.00 -1.00  1.00 -1.00 -1.00  1.00 -1.00  1.00
B_3u   1.00 -1.00 -1.00  1.00 -1.00  1.00  1.00 -1.00

     the symmetry operations in each class and the name of the first element:

     E        1
          identity                                               
     C2       2
          180 deg rotation - cart. axis [0,0,1]                  
     C2'      4
          180 deg rotation - cart. axis [1,0,0]                  
     C2''     3
          180 deg rotation - cart. axis [0,1,0]                  
     i        5
          inversion                                              
     s_v      6
          inv. 180 deg rotation - cart. axis [0,0,1]             
     s_v'     8
          inv. 180 deg rotation - cart. axis [1,0,0]             
     s_v''    7
          inv. 180 deg rotation - cart. axis [0,1,0]             

   Cartesian axes

     site n.     atom                  positions (alat units)
         1        Se     tau(   1) = (   0.8549563   0.0858313   0.1811882  )
         2        Sn     tau(   2) = (   0.1165395   0.0858313   0.0421007  )
         3        Se     tau(   3) = (   0.6450437   0.2574938   0.3686573  )
         4        Sn     tau(   4) = (   0.3834605   0.2574938   0.2295698  )
         5        Se     tau(   5) = (   0.3549563   0.0858313   0.0062809  )
         6        Sn     tau(   6) = (   0.6165395   0.0858313   0.1453684  )
         7        Se     tau(   7) = (   0.1450437   0.2574938   0.1937501  )
         8        Sn     tau(   8) = (   0.8834605   0.2574938   0.3328376  )

     --------------------------------------------
     DFT-D3 Dispersion Correction (3-body terms):
     --------------------------------------------
       Reference C6 values for interpolation: 

         atom   Coordination number   C6
         Se         0.000           427.35
         Se         0.990           427.57
         Se         1.981           421.05
         Sn         0.000          1255.14
         Sn         0.951          1084.09
         Sn         1.950          1010.83
         Sn         2.926           818.29
         Sn         3.912           672.20

       Values used:

         atom   Coordination number  R0_AB[au]  C6      C8
         Se         3.180            3.332    421.05  29958.36
         Sn         3.706            3.957    685.17  85995.83
         Se         3.180            3.332    421.05  29958.36
         Sn         3.706            3.957    685.17  85995.83
         Se         3.180            3.332    421.05  29958.36
         Sn         3.706            3.957    685.17  85995.83
         Se         3.180            3.332    421.05  29958.36
         Sn         3.706            3.957    685.17  85995.83

         Molecular C6 ( Ry / a.u.^6 ) =     34863.12


   Crystallographic axes

     site n.     atom                  positions (cryst. coord.)
         1        Se     tau(   1) = (  0.8549563  0.2500000  0.4832481  )
         2        Sn     tau(   2) = (  0.1165395  0.2500000  0.1122870  )
         3        Se     tau(   3) = (  0.6450437  0.7500000  0.9832481  )
         4        Sn     tau(   4) = (  0.3834605  0.7500000  0.6122870  )
         5        Se     tau(   5) = (  0.3549563  0.2500000  0.0167519  )
         6        Sn     tau(   6) = (  0.6165395  0.2500000  0.3877130  )
         7        Se     tau(   7) = (  0.1450437  0.7500000  0.5167519  )
         8        Sn     tau(   8) = (  0.8834605  0.7500000  0.8877130  )

     number of k points=    32
                       cart. coord. in units 2pi/alat
        k(    1) = (   0.1666667   0.1820432   0.1666941), wk =   0.0833333
        k(    2) = (   0.1666667   0.1820432   0.5000823), wk =   0.0833333
        k(    3) = (   0.1666667   0.1820432   0.8334705), wk =   0.0833333
        k(    4) = (   0.1666667   0.1820432   1.1668587), wk =   0.0833333
        k(    5) = (   0.1666667   0.5461296   0.1666941), wk =   0.0833333
        k(    6) = (   0.1666667   0.5461296   0.5000823), wk =   0.0833333
        k(    7) = (   0.1666667   0.5461296   0.8334705), wk =   0.0833333
        k(    8) = (   0.1666667   0.5461296   1.1668587), wk =   0.0833333
        k(    9) = (   0.1666667   0.9102160   0.1666941), wk =   0.0833333
        k(   10) = (   0.1666667   0.9102160   0.5000823), wk =   0.0833333
        k(   11) = (   0.1666667   0.9102160   0.8334705), wk =   0.0833333
        k(   12) = (   0.1666667   0.9102160   1.1668587), wk =   0.0833333
        k(   13) = (   0.1666667   1.2743024   0.1666941), wk =   0.0833333
        k(   14) = (   0.1666667   1.2743024   0.5000823), wk =   0.0833333
        k(   15) = (   0.1666667   1.2743024   0.8334705), wk =   0.0833333
        k(   16) = (   0.1666667   1.2743024   1.1668587), wk =   0.0833333
        k(   17) = (  -0.5000000   0.1820432   0.1666941), wk =   0.0416667
        k(   18) = (  -0.5000000   0.1820432   0.5000823), wk =   0.0416667
        k(   19) = (  -0.5000000   0.1820432   0.8334705), wk =   0.0416667
        k(   20) = (  -0.5000000   0.1820432   1.1668587), wk =   0.0416667
        k(   21) = (  -0.5000000   0.5461296   0.1666941), wk =   0.0416667
        k(   22) = (  -0.5000000   0.5461296   0.5000823), wk =   0.0416667
        k(   23) = (  -0.5000000   0.5461296   0.8334705), wk =   0.0416667
        k(   24) = (  -0.5000000   0.5461296   1.1668587), wk =   0.0416667
        k(   25) = (  -0.5000000   0.9102160   0.1666941), wk =   0.0416667
        k(   26) = (  -0.5000000   0.9102160   0.5000823), wk =   0.0416667
        k(   27) = (  -0.5000000   0.9102160   0.8334705), wk =   0.0416667
        k(   28) = (  -0.5000000   0.9102160   1.1668587), wk =   0.0416667
        k(   29) = (  -0.5000000   1.2743024   0.1666941), wk =   0.0416667
        k(   30) = (  -0.5000000   1.2743024   0.5000823), wk =   0.0416667
        k(   31) = (  -0.5000000   1.2743024   0.8334705), wk =   0.0416667
        k(   32) = (  -0.5000000   1.2743024   1.1668587), wk =   0.0416667

                       cryst. coord.
        k(    1) = (   0.1666667   0.0625000   0.0625000), wk =   0.0833333
        k(    2) = (   0.1666667   0.0625000   0.1875000), wk =   0.0833333
        k(    3) = (   0.1666667   0.0625000   0.3125000), wk =   0.0833333
        k(    4) = (   0.1666667   0.0625000   0.4375000), wk =   0.0833333
        k(    5) = (   0.1666667   0.1875000   0.0625000), wk =   0.0833333
        k(    6) = (   0.1666667   0.1875000   0.1875000), wk =   0.0833333
        k(    7) = (   0.1666667   0.1875000   0.3125000), wk =   0.0833333
        k(    8) = (   0.1666667   0.1875000   0.4375000), wk =   0.0833333
        k(    9) = (   0.1666667   0.3125000   0.0625000), wk =   0.0833333
        k(   10) = (   0.1666667   0.3125000   0.1875000), wk =   0.0833333
        k(   11) = (   0.1666667   0.3125000   0.3125000), wk =   0.0833333
        k(   12) = (   0.1666667   0.3125000   0.4375000), wk =   0.0833333
        k(   13) = (   0.1666667   0.4375000   0.0625000), wk =   0.0833333
        k(   14) = (   0.1666667   0.4375000   0.1875000), wk =   0.0833333
        k(   15) = (   0.1666667   0.4375000   0.3125000), wk =   0.0833333
        k(   16) = (   0.1666667   0.4375000   0.4375000), wk =   0.0833333
        k(   17) = (  -0.5000000   0.0625000   0.0625000), wk =   0.0416667
        k(   18) = (  -0.5000000   0.0625000   0.1875000), wk =   0.0416667
        k(   19) = (  -0.5000000   0.0625000   0.3125000), wk =   0.0416667
        k(   20) = (  -0.5000000   0.0625000   0.4375000), wk =   0.0416667
        k(   21) = (  -0.5000000   0.1875000   0.0625000), wk =   0.0416667
        k(   22) = (  -0.5000000   0.1875000   0.1875000), wk =   0.0416667
        k(   23) = (  -0.5000000   0.1875000   0.3125000), wk =   0.0416667
        k(   24) = (  -0.5000000   0.1875000   0.4375000), wk =   0.0416667
        k(   25) = (  -0.5000000   0.3125000   0.0625000), wk =   0.0416667
        k(   26) = (  -0.5000000   0.3125000   0.1875000), wk =   0.0416667
        k(   27) = (  -0.5000000   0.3125000   0.3125000), wk =   0.0416667
        k(   28) = (  -0.5000000   0.3125000   0.4375000), wk =   0.0416667
        k(   29) = (  -0.5000000   0.4375000   0.0625000), wk =   0.0416667
        k(   30) = (  -0.5000000   0.4375000   0.1875000), wk =   0.0416667
        k(   31) = (  -0.5000000   0.4375000   0.3125000), wk =   0.0416667
        k(   32) = (  -0.5000000   0.4375000   0.4375000), wk =   0.0416667

     Dense  grid:   386841 G-vectors     FFT dimensions: ( 180,  64,  72)

     Smooth grid:    97889 G-vectors     FFT dimensions: ( 120,  40,  48)

     Dynamical RAM for                 wfc:       3.73 MB

     Dynamical RAM for     wfc (w. buffer):      44.78 MB

     Dynamical RAM for           str. fact:       5.90 MB

     Dynamical RAM for           local pot:       0.00 MB

     Dynamical RAM for          nlocal pot:      13.43 MB

     Dynamical RAM for                qrad:       3.93 MB

     Dynamical RAM for          rho,v,vnew:      18.35 MB

     Dynamical RAM for               rhoin:       6.12 MB

     Dynamical RAM for            rho*nmix:      47.22 MB

     Dynamical RAM for           G-vectors:      11.44 MB

     Dynamical RAM for          h,s,v(r/c):       0.29 MB

     Dynamical RAM for          <psi|beta>:       0.09 MB

     Dynamical RAM for                 psi:       7.46 MB

     Dynamical RAM for                hpsi:       7.46 MB

     Dynamical RAM for                spsi:       7.46 MB

     Dynamical RAM for      wfcinit/wfcrot:       9.76 MB

     Dynamical RAM for           addusdens:     188.89 MB

     Dynamical RAM for          addusforce:     194.31 MB

     Estimated static dynamical RAM per process >     128.62 MB

     Estimated max dynamical RAM per process >     370.16 MB

     Estimated total dynamical RAM >       1.98 GB

     Initial potential from superposition of free atoms

     starting charge      75.9995, renormalised to      80.0000
     Starting wfcs are   52 randomized atomic wfcs

     total cpu time spent up to now is        4.2 secs

     Self-consistent Calculation

     iteration #  1     ecut=    60.00 Ry     beta= 0.70
     Davidson diagonalization with overlap

---- Real-time Memory Report at c_bands before calling an iterative solver
           406 MiB given to the printing process from OS
             0 MiB allocation reported by mallinfo(arena+hblkhd)
         10572 MiB available memory on the node where the printing process lives
------------------
     ethr =  1.00E-02,  avg # of iterations =  2.0

     total cpu time spent up to now is       11.4 secs

     total energy              =    -826.60008642 Ry
     estimated scf accuracy    <       2.73658874 Ry

     iteration #  2     ecut=    60.00 Ry     beta= 0.70
     Davidson diagonalization with overlap

---- Real-time Memory Report at c_bands before calling an iterative solver
           512 MiB given to the printing process from OS
             0 MiB allocation reported by mallinfo(arena+hblkhd)
         10286 MiB available memory on the node where the printing process lives
------------------
     ethr =  3.42E-03,  avg # of iterations =  3.0

     total cpu time spent up to now is       19.6 secs

     total energy              =    -827.50038282 Ry
     estimated scf accuracy    <       1.10887651 Ry

     iteration #  3     ecut=    60.00 Ry     beta= 0.70
     Davidson diagonalization with overlap

---- Real-time Memory Report at c_bands before calling an iterative solver
           553 MiB given to the printing process from OS
             0 MiB allocation reported by mallinfo(arena+hblkhd)
         10116 MiB available memory on the node where the printing process lives
------------------
     ethr =  1.39E-03,  avg # of iterations =  2.8

     total cpu time spent up to now is       26.7 secs

     total energy              =    -827.73010526 Ry
     estimated scf accuracy    <       0.01445605 Ry

     iteration #  4     ecut=    60.00 Ry     beta= 0.70
     Davidson diagonalization with overlap

---- Real-time Memory Report at c_bands before calling an iterative solver
           556 MiB given to the printing process from OS
             0 MiB allocation reported by mallinfo(arena+hblkhd)
         10110 MiB available memory on the node where the printing process lives
------------------
     ethr =  1.81E-05,  avg # of iterations =  4.9

     total cpu time spent up to now is       35.8 secs

     total energy              =    -827.73836634 Ry
     estimated scf accuracy    <       0.00625917 Ry

     iteration #  5     ecut=    60.00 Ry     beta= 0.70
     Davidson diagonalization with overlap

---- Real-time Memory Report at c_bands before calling an iterative solver
           559 MiB given to the printing process from OS
             0 MiB allocation reported by mallinfo(arena+hblkhd)
         10080 MiB available memory on the node where the printing process lives
------------------
     ethr =  7.82E-06,  avg # of iterations =  2.2

     total cpu time spent up to now is       42.6 secs

     total energy              =    -827.73939320 Ry
     estimated scf accuracy    <       0.00073383 Ry

     iteration #  6     ecut=    60.00 Ry     beta= 0.70
     Davidson diagonalization with overlap

---- Real-time Memory Report at c_bands before calling an iterative solver
           562 MiB given to the printing process from OS
             0 MiB allocation reported by mallinfo(arena+hblkhd)
          9980 MiB available memory on the node where the printing process lives
------------------
     ethr =  9.17E-07,  avg # of iterations =  4.4

     total cpu time spent up to now is       50.8 secs

     total energy              =    -827.73951791 Ry
     estimated scf accuracy    <       0.00113397 Ry

     iteration #  7     ecut=    60.00 Ry     beta= 0.70
     Davidson diagonalization with overlap

---- Real-time Memory Report at c_bands before calling an iterative solver
           566 MiB given to the printing process from OS
             0 MiB allocation reported by mallinfo(arena+hblkhd)
          9966 MiB available memory on the node where the printing process lives
------------------
     ethr =  9.17E-07,  avg # of iterations =  2.8

     total cpu time spent up to now is       58.1 secs

     total energy              =    -827.73967390 Ry
     estimated scf accuracy    <       0.00002744 Ry

     iteration #  8     ecut=    60.00 Ry     beta= 0.70
     Davidson diagonalization with overlap

---- Real-time Memory Report at c_bands before calling an iterative solver
           568 MiB given to the printing process from OS
             0 MiB allocation reported by mallinfo(arena+hblkhd)
          9974 MiB available memory on the node where the printing process lives
------------------
     ethr =  3.43E-08,  avg # of iterations =  5.0

     total cpu time spent up to now is       67.2 secs

     total energy              =    -827.73969569 Ry
     estimated scf accuracy    <       0.00002631 Ry

     iteration #  9     ecut=    60.00 Ry     beta= 0.70
     Davidson diagonalization with overlap

---- Real-time Memory Report at c_bands before calling an iterative solver
           570 MiB given to the printing process from OS
             0 MiB allocation reported by mallinfo(arena+hblkhd)
          9973 MiB available memory on the node where the printing process lives
------------------
     ethr =  3.29E-08,  avg # of iterations =  2.0

     total cpu time spent up to now is       74.1 secs

     total energy              =    -827.73969790 Ry
     estimated scf accuracy    <       0.00000208 Ry

     iteration # 10     ecut=    60.00 Ry     beta= 0.70
     Davidson diagonalization with overlap

---- Real-time Memory Report at c_bands before calling an iterative solver
           575 MiB given to the printing process from OS
             0 MiB allocation reported by mallinfo(arena+hblkhd)
          9985 MiB available memory on the node where the printing process lives
------------------
     ethr =  2.60E-09,  avg # of iterations =  5.0

     total cpu time spent up to now is       83.9 secs

     total energy              =    -827.73969929 Ry
     estimated scf accuracy    <       0.00000024 Ry

     iteration # 11     ecut=    60.00 Ry     beta= 0.70
     Davidson diagonalization with overlap

---- Real-time Memory Report at c_bands before calling an iterative solver
           576 MiB given to the printing process from OS
             0 MiB allocation reported by mallinfo(arena+hblkhd)
          9974 MiB available memory on the node where the printing process lives
------------------
     ethr =  2.99E-10,  avg # of iterations =  3.6

     total cpu time spent up to now is       92.8 secs

     total energy              =    -827.73969931 Ry
     estimated scf accuracy    <       0.00000011 Ry

     iteration # 12     ecut=    60.00 Ry     beta= 0.70
     Davidson diagonalization with overlap

---- Real-time Memory Report at c_bands before calling an iterative solver
           577 MiB given to the printing process from OS
             0 MiB allocation reported by mallinfo(arena+hblkhd)
          9942 MiB available memory on the node where the printing process lives
------------------
     ethr =  1.40E-10,  avg # of iterations =  3.0

     total cpu time spent up to now is       99.7 secs

     End of self-consistent calculation

          k = 0.1667 0.1820 0.1667 ( 12247 PWs)   bands (ev):

   -14.4171 -14.4096 -14.4054 -14.4012 -14.3985 -14.3968 -14.3958 -14.3951
   -14.3881 -14.3814 -14.3776 -14.3766 -14.3746 -14.3713 -14.3596 -14.3558
   -14.3514 -14.3484 -14.3454 -14.3423  -6.3222  -6.0982  -5.5392  -5.2467
     0.0512   0.7597   1.3897   1.8249   2.6666   3.8023   3.9814   4.1921
     4.4004   4.4693   4.9223   5.1760   5.3765   5.6302   6.2694   6.5540

     occupation numbers 
     1.0000   1.0000   1.0000   1.0000   1.0000   1.0000   1.0000   1.0000
     1.0000   1.0000   1.0000   1.0000   1.0000   1.0000   1.0000   1.0000
     1.0000   1.0000   1.0000   1.0000   1.0000   1.0000   1.0000   1.0000
     1.0000   1.0000   1.0000   1.0000   1.0000   1.0000   1.0000   1.0000
     1.0000   1.0000   1.0000   1.0000   1.0000   1.0000   1.0000   1.0000

          k = 0.1667 0.1820 0.5001 ( 12236 PWs)   bands (ev):

   -14.4161 -14.4095 -14.4055 -14.4015 -14.3984 -14.3975 -14.3960 -14.3959
   -14.3864 -14.3807 -14.3774 -14.3769 -14.3733 -14.3699 -14.3598 -14.3565
   -14.3510 -14.3485 -14.3453 -14.3427  -6.2157  -6.0010  -5.5227  -5.2576
    -0.2766   0.4495   0.9410   1.4531   2.7415   3.8749   4.0837   4.4639
     4.7268   4.9469   4.9944   5.2768   5.7543   6.0618   6.1806   6.5021

     occupation numbers 
     1.0000   1.0000   1.0000   1.0000   1.0000   1.0000   1.0000   1.0000
     1.0000   1.0000   1.0000   1.0000   1.0000   1.0000   1.0000   1.0000
     1.0000   1.0000   1.0000   1.0000   1.0000   1.0000   1.0000   1.0000
     1.0000   1.0000   1.0000   1.0000   1.0000   1.0000   1.0000   1.0000
     1.0000   1.0000   1.0000   1.0000   1.0000   1.0000   1.0000   1.0000

          k = 0.1667 0.1820 0.8335 ( 12222 PWs)   bands (ev):

   -14.4144 -14.4097 -14.4055 -14.4025 -14.3984 -14.3983 -14.3971 -14.3965
   -14.3837 -14.3800 -14.3778 -14.3775 -14.3704 -14.3680 -14.3599 -14.3577
   -14.3503 -14.3487 -14.3451 -14.3434  -6.0276  -5.8306  -5.5274  -5.3059
    -0.6209  -0.0652   0.5173   0.9507   3.0334   4.1075   4.3201   4.8218
     4.8610   5.1072   5.2898   5.5324   5.9039   6.3410   6.4061   6.7417

     occupation numbers 
     1.0000   1.0000   1.0000   1.0000   1.0000   1.0000   1.0000   1.0000
     1.0000   1.0000   1.0000   1.0000   1.0000   1.0000   1.0000   1.0000
     1.0000   1.0000   1.0000   1.0000   1.0000   1.0000   1.0000   1.0000
     1.0000   1.0000   1.0000   1.0000   1.0000   1.0000   1.0000   1.0000
     1.0000   1.0000   1.0000   1.0000   1.0000   1.0000   1.0000   1.0000

          k = 0.1667 0.1820 1.1669 ( 12213 PWs)   bands (ev):

   -14.4124 -14.4107 -14.4049 -14.4038 -14.3989 -14.3987 -14.3974 -14.3970
   -14.3813 -14.3801 -14.3780 -14.3778 -14.3678 -14.3669 -14.3597 -14.3589
   -14.3495 -14.3490 -14.3447 -14.3441  -5.8119  -5.6751  -5.5623  -5.4199
    -0.7354  -0.5297   0.3766   0.5416   3.5056   4.0225   4.6649   4.8633
     5.0473   5.1246   5.2818   5.6164   6.1910   6.5533   6.6840   6.7681

     occupation numbers 
     1.0000   1.0000   1.0000   1.0000   1.0000   1.0000   1.0000   1.0000
     1.0000   1.0000   1.0000   1.0000   1.0000   1.0000   1.0000   1.0000
     1.0000   1.0000   1.0000   1.0000   1.0000   1.0000   1.0000   1.0000
     1.0000   1.0000   1.0000   1.0000   1.0000   1.0000   1.0000   1.0000
     1.0000   1.0000   1.0000   1.0000   1.0000   1.0000   1.0000   1.0000

          k = 0.1667 0.5461 0.1667 ( 12255 PWs)   bands (ev):

   -14.4119 -14.4063 -14.4025 -14.4001 -14.3996 -14.3987 -14.3963 -14.3956
   -14.3885 -14.3821 -14.3817 -14.3813 -14.3718 -14.3681 -14.3567 -14.3538
   -14.3527 -14.3513 -14.3449 -14.3425  -6.1705  -5.9651  -5.4627  -5.2140
    -0.1233   0.4774   1.0732   1.2313   2.7780   3.7181   3.9770   4.2017
     4.5404   4.8037   4.9206   5.1928   5.5374   6.0485   6.3007   6.4257

     occupation numbers 
     1.0000   1.0000   1.0000   1.0000   1.0000   1.0000   1.0000   1.0000
     1.0000   1.0000   1.0000   1.0000   1.0000   1.0000   1.0000   1.0000
     1.0000   1.0000   1.0000   1.0000   1.0000   1.0000   1.0000   1.0000
     1.0000   1.0000   1.0000   1.0000   1.0000   1.0000   1.0000   1.0000
     1.0000   1.0000   1.0000   1.0000   1.0000   1.0000   1.0000   1.0000

          k = 0.1667 0.5461 0.5001 ( 12227 PWs)   bands (ev):

   -14.4114 -14.4063 -14.4031 -14.4014 -14.3999 -14.3991 -14.3964 -14.3960
   -14.3872 -14.3824 -14.3813 -14.3805 -14.3704 -14.3671 -14.3569 -14.3542
   -14.3526 -14.3512 -14.3448 -14.3428  -6.0695  -5.8737  -5.4453  -5.2191
    -0.2895   0.3737   0.7828   1.1247   2.9078   3.3236   3.5572   4.1805
     4.3904   4.9032   5.3166   5.4036   6.0248   6.1281   6.3345   6.4980

     occupation numbers 
     1.0000   1.0000   1.0000   1.0000   1.0000   1.0000   1.0000   1.0000
     1.0000   1.0000   1.0000   1.0000   1.0000   1.0000   1.0000   1.0000
     1.0000   1.0000   1.0000   1.0000   1.0000   1.0000   1.0000   1.0000
     1.0000   1.0000   1.0000   1.0000   1.0000   1.0000   1.0000   1.0000
     1.0000   1.0000   1.0000   1.0000   1.0000   1.0000   1.0000   1.0000

          k = 0.1667 0.5461 0.8335 ( 12221 PWs)   bands (ev):

   -14.4104 -14.4061 -14.4044 -14.4032 -14.4002 -14.3997 -14.3967 -14.3965
   -14.3855 -14.3829 -14.3806 -14.3796 -14.3679 -14.3655 -14.3570 -14.3551
   -14.3520 -14.3511 -14.3446 -14.3432  -5.8933  -5.7153  -5.4453  -5.2544
    -0.4925   0.0333   0.5457   0.8815   3.1625   3.2743   3.5046   4.1489
     4.2233   4.9952   5.1320   5.6813   5.8792   6.0846   6.2545   6.4584

     occupation numbers 
     1.0000   1.0000   1.0000   1.0000   1.0000   1.0000   1.0000   1.0000
     1.0000   1.0000   1.0000   1.0000   1.0000   1.0000   1.0000   1.0000
     1.0000   1.0000   1.0000   1.0000   1.0000   1.0000   1.0000   1.0000
     1.0000   1.0000   1.0000   1.0000   1.0000   1.0000   1.0000   1.0000
     1.0000   1.0000   1.0000   1.0000   1.0000   1.0000   1.0000   1.0000

          k = 0.1667 0.5461 1.1669 ( 12197 PWs)   bands (ev):

   -14.4088 -14.4069 -14.4053 -14.4045 -14.4004 -14.4002 -14.3970 -14.3969
   -14.3842 -14.3835 -14.3798 -14.3793 -14.3655 -14.3647 -14.3568 -14.3561
   -14.3514 -14.3511 -14.3442 -14.3437  -5.6951  -5.5728  -5.4731  -5.3487
    -0.5487  -0.3560   0.4912   0.6212   3.4655   3.5179   3.7375   3.9742
     4.2059   4.5741   5.1638   5.4522   5.7365   5.9573   6.1629   6.3280

     occupation numbers 
     1.0000   1.0000   1.0000   1.0000   1.0000   1.0000   1.0000   1.0000
     1.0000   1.0000   1.0000   1.0000   1.0000   1.0000   1.0000   1.0000
     1.0000   1.0000   1.0000   1.0000   1.0000   1.0000   1.0000   1.0000
     1.0000   1.0000   1.0000   1.0000   1.0000   1.0000   1.0000   1.0000
     1.0000   1.0000   1.0000   1.0000   1.0000   1.0000   1.0000   1.0000

          k = 0.1667 0.9102 0.1667 ( 12221 PWs)   bands (ev):

   -14.4058 -14.4043 -14.4019 -14.4016 -14.4012 -14.3977 -14.3943 -14.3939
   -14.3895 -14.3861 -14.3856 -14.3831 -14.3686 -14.3653 -14.3566 -14.3565
   -14.3518 -14.3494 -14.3435 -14.3423  -5.8994  -5.7374  -5.3685  -5.2104
    -0.3729   0.0881   0.4286   0.5871   3.1068   3.8425   4.1796   4.4097
     4.8432   4.9332   5.0930   5.2721   5.7088   6.1157   6.1874   6.4652

     occupation numbers 
     1.0000   1.0000   1.0000   1.0000   1.0000   1.0000   1.0000   1.0000
     1.0000   1.0000   1.0000   1.0000   1.0000   1.0000   1.0000   1.0000
     1.0000   1.0000   1.0000   1.0000   1.0000   1.0000   1.0000   1.0000
     1.0000   1.0000   1.0000   1.0000   1.0000   1.0000   1.0000   1.0000
     1.0000   1.0000   1.0000   1.0000   1.0000   1.0000   1.0000   1.0000

          k = 0.1667 0.9102 0.5001 ( 12236 PWs)   bands (ev):

   -14.4076 -14.4043 -14.4029 -14.4023 -14.4019 -14.3980 -14.3943 -14.3939
   -14.3887 -14.3864 -14.3846 -14.3823 -14.3674 -14.3644 -14.3562 -14.3561
   -14.3518 -14.3498 -14.3434 -14.3425  -5.8117  -5.6591  -5.3463  -5.2008
    -0.3382   0.1760   0.4354   0.5827   3.1013   3.2274   3.5016   3.9629
     4.3655   4.9715   5.1720   5.4978   5.6425   5.7991   6.1047   6.2904

     occupation numbers 
     1.0000   1.0000   1.0000   1.0000   1.0000   1.0000   1.0000   1.0000
     1.0000   1.0000   1.0000   1.0000   1.0000   1.0000   1.0000   1.0000
     1.0000   1.0000   1.0000   1.0000   1.0000   1.0000   1.0000   1.0000
     1.0000   1.0000   1.0000   1.0000   1.0000   1.0000   1.0000   1.0000
     1.0000   1.0000   1.0000   1.0000   1.0000   1.0000   1.0000   1.0000

          k = 0.1667 0.9102 0.8335 ( 12232 PWs)   bands (ev):

   -14.4092 -14.4066 -14.4041 -14.4037 -14.4015 -14.3986 -14.3946 -14.3941
   -14.3876 -14.3866 -14.3833 -14.3816 -14.3652 -14.3632 -14.3555 -14.3554
   -14.3517 -14.3504 -14.3433 -14.3426  -5.6627  -5.5273  -5.3322  -5.2057
    -0.2928   0.1441   0.4770   0.6332   2.7028   2.9933   3.4413   3.6281
     3.8181   4.5662   4.8581   5.1364   5.4185   5.5158   5.7064   6.1827

     occupation numbers 
     1.0000   1.0000   1.0000   1.0000   1.0000   1.0000   1.0000   1.0000
     1.0000   1.0000   1.0000   1.0000   1.0000   1.0000   1.0000   1.0000
     1.0000   1.0000   1.0000   1.0000   1.0000   1.0000   1.0000   1.0000
     1.0000   1.0000   1.0000   1.0000   1.0000   1.0000   1.0000   1.0000
     1.0000   1.0000   1.0000   1.0000   1.0000   1.0000   1.0000   1.0000

          k = 0.1667 0.9102 1.1669 ( 12224 PWs)   bands (ev):

   -14.4098 -14.4089 -14.4049 -14.4048 -14.4007 -14.3996 -14.3946 -14.3945
   -14.3869 -14.3866 -14.3821 -14.3815 -14.3633 -14.3626 -14.3550 -14.3550
   -14.3514 -14.3510 -14.3431 -14.3428  -5.5035  -5.4133  -5.3422  -5.2564
    -0.2191  -0.0608   0.5962   0.6520   2.7077   3.0187   3.0516   3.3958
     3.8576   4.2660   4.4705   4.8779   5.0100   5.2261   5.7314   5.8965

     occupation numbers 
     1.0000   1.0000   1.0000   1.0000   1.0000   1.0000   1.0000   1.0000
     1.0000   1.0000   1.0000   1.0000   1.0000   1.0000   1.0000   1.0000
     1.0000   1.0000   1.0000   1.0000   1.0000   1.0000   1.0000   1.0000
     1.0000   1.0000   1.0000   1.0000   1.0000   1.0000   1.0000   1.0000
     1.0000   1.0000   1.0000   1.0000   1.0000   1.0000   1.0000   1.0000

          k = 0.1667 1.2743 0.1667 ( 12223 PWs)   bands (ev):

   -14.4059 -14.4047 -14.4037 -14.4032 -14.3970 -14.3941 -14.3939 -14.3928
   -14.3895 -14.3883 -14.3869 -14.3853 -14.3654 -14.3629 -14.3615 -14.3599
   -14.3467 -14.3453 -14.3433 -14.3431  -5.5816  -5.4985  -5.3585  -5.3248
    -0.4610  -0.1908  -0.0826   0.1144   3.6314   4.0894   4.4048   4.6483
     4.8207   4.9042   5.2436   5.4535   5.8438   5.9623   6.0546   6.1866

     occupation numbers 
     1.0000   1.0000   1.0000   1.0000   1.0000   1.0000   1.0000   1.0000
     1.0000   1.0000   1.0000   1.0000   1.0000   1.0000   1.0000   1.0000
     1.0000   1.0000   1.0000   1.0000   1.0000   1.0000   1.0000   1.0000
     1.0000   1.0000   1.0000   1.0000   1.0000   1.0000   1.0000   1.0000
     1.0000   1.0000   1.0000   1.0000   1.0000   1.0000   1.0000   1.0000

          k = 0.1667 1.2743 0.5001 ( 12233 PWs)   bands (ev):

   -14.4078 -14.4062 -14.4054 -14.4047 -14.3969 -14.3943 -14.3939 -14.3929
   -14.3888 -14.3880 -14.3860 -14.3846 -14.3646 -14.3627 -14.3602 -14.3591
   -14.3468 -14.3456 -14.3432 -14.3431  -5.5167  -5.4408  -5.3228  -5.2895
    -0.3172  -0.0532   0.0566   0.1944   3.3749   3.5845   3.8048   4.1005
     4.1536   4.6660   4.9896   5.1577   5.2747   5.5624   5.8317   6.1495

     occupation numbers 
     1.0000   1.0000   1.0000   1.0000   1.0000   1.0000   1.0000   1.0000
     1.0000   1.0000   1.0000   1.0000   1.0000   1.0000   1.0000   1.0000
     1.0000   1.0000   1.0000   1.0000   1.0000   1.0000   1.0000   1.0000
     1.0000   1.0000   1.0000   1.0000   1.0000   1.0000   1.0000   1.0000
     1.0000   1.0000   1.0000   1.0000   1.0000   1.0000   1.0000   1.0000

          k = 0.1667 1.2743 0.8335 ( 12236 PWs)   bands (ev):

   -14.4101 -14.4088 -14.4076 -14.4070 -14.3968 -14.3950 -14.3937 -14.3931
   -14.3879 -14.3876 -14.3849 -14.3839 -14.3631 -14.3620 -14.3584 -14.3579
   -14.3468 -14.3461 -14.3431 -14.3430  -5.4136  -5.3506  -5.2778  -5.2441
    -0.0757   0.1548   0.2846   0.3324   2.7248   3.1340   3.2266   3.6327
     3.6895   4.1227   4.2896   4.7585   4.8327   5.1350   5.6904   5.8522

     occupation numbers 
     1.0000   1.0000   1.0000   1.0000   1.0000   1.0000   1.0000   1.0000
     1.0000   1.0000   1.0000   1.0000   1.0000   1.0000   1.0000   1.0000
     1.0000   1.0000   1.0000   1.0000   1.0000   1.0000   1.0000   1.0000
     1.0000   1.0000   1.0000   1.0000   1.0000   1.0000   1.0000   1.0000
     1.0000   1.0000   1.0000   1.0000   1.0000   1.0000   1.0000   1.0000

          k = 0.1667 1.2743 1.1669 ( 12232 PWs)   bands (ev):

   -14.4114 -14.4109 -14.4089 -14.4087 -14.3965 -14.3958 -14.3935 -14.3933
   -14.3873 -14.3873 -14.3841 -14.3837 -14.3618 -14.3614 -14.3572 -14.3571
   -14.3466 -14.3464 -14.3430 -14.3430  -5.3179  -5.2800  -5.2536  -5.2263
     0.1522   0.2443   0.4855   0.5051   2.4585   2.6535   2.9721   3.2021
     3.4004   3.5629   3.9768   4.2677   4.8375   5.0403   5.6255   5.6597

     occupation numbers 
     1.0000   1.0000   1.0000   1.0000   1.0000   1.0000   1.0000   1.0000
     1.0000   1.0000   1.0000   1.0000   1.0000   1.0000   1.0000   1.0000
     1.0000   1.0000   1.0000   1.0000   1.0000   1.0000   1.0000   1.0000
     1.0000   1.0000   1.0000   1.0000   1.0000   1.0000   1.0000   1.0000
     1.0000   1.0000   1.0000   1.0000   1.0000   1.0000   1.0000   1.0000

          k =-0.5000 0.1820 0.1667 ( 12270 PWs)   bands (ev):

   -14.4141 -14.4141 -14.4027 -14.4027 -14.3976 -14.3976 -14.3955 -14.3955
   -14.3851 -14.3851 -14.3770 -14.3770 -14.3727 -14.3727 -14.3579 -14.3579
   -14.3496 -14.3496 -14.3438 -14.3438  -6.2294  -6.2294  -5.3738  -5.3738
     0.3001   0.3001   1.7128   1.7128   3.2026   3.2026   4.1161   4.1161
     4.4809   4.4809   4.9944   4.9944   5.3265   5.3265   6.4492   6.4492

     occupation numbers 
     1.0000   1.0000   1.0000   1.0000   1.0000   1.0000   1.0000   1.0000
     1.0000   1.0000   1.0000   1.0000   1.0000   1.0000   1.0000   1.0000
     1.0000   1.0000   1.0000   1.0000   1.0000   1.0000   1.0000   1.0000
     1.0000   1.0000   1.0000   1.0000   1.0000   1.0000   1.0000   1.0000
     1.0000   1.0000   1.0000   1.0000   1.0000   1.0000   1.0000   1.0000

          k =-0.5000 0.1820 0.5001 ( 12248 PWs)   bands (ev):

   -14.4135 -14.4135 -14.4030 -14.4030 -14.3977 -14.3977 -14.3962 -14.3962
   -14.3837 -14.3837 -14.3772 -14.3772 -14.3713 -14.3713 -14.3583 -14.3583
   -14.3496 -14.3496 -14.3440 -14.3440  -6.1275  -6.1275  -5.3711  -5.3711
    -0.0151  -0.0151   1.2748   1.2748   3.3670   3.3670   4.1635   4.1635
     4.8287   4.8287   5.1597   5.1597   5.8259   5.8259   6.3199   6.3199

     occupation numbers 
     1.0000   1.0000   1.0000   1.0000   1.0000   1.0000   1.0000   1.0000
     1.0000   1.0000   1.0000   1.0000   1.0000   1.0000   1.0000   1.0000
     1.0000   1.0000   1.0000   1.0000   1.0000   1.0000   1.0000   1.0000
     1.0000   1.0000   1.0000   1.0000   1.0000   1.0000   1.0000   1.0000
     1.0000   1.0000   1.0000   1.0000   1.0000   1.0000   1.0000   1.0000

          k =-0.5000 0.1820 0.8335 ( 12226 PWs)   bands (ev):

   -14.4124 -14.4124 -14.4037 -14.4037 -14.3979 -14.3979 -14.3972 -14.3972
   -14.3817 -14.3817 -14.3778 -14.3778 -14.3691 -14.3691 -14.3588 -14.3588
   -14.3495 -14.3495 -14.3442 -14.3442  -5.9495  -5.9495  -5.3963  -5.3963
    -0.3907  -0.3907   0.7490   0.7490   3.6710   3.6710   4.4359   4.4359
     4.9668   4.9668   5.4184   5.4184   6.0462   6.0462   6.5484   6.5484

     occupation numbers 
     1.0000   1.0000   1.0000   1.0000   1.0000   1.0000   1.0000   1.0000
     1.0000   1.0000   1.0000   1.0000   1.0000   1.0000   1.0000   1.0000
     1.0000   1.0000   1.0000   1.0000   1.0000   1.0000   1.0000   1.0000
     1.0000   1.0000   1.0000   1.0000   1.0000   1.0000   1.0000   1.0000
     1.0000   1.0000   1.0000   1.0000   1.0000   1.0000   1.0000   1.0000

          k =-0.5000 0.1820 1.1669 ( 12198 PWs)   bands (ev):

   -14.4115 -14.4115 -14.4044 -14.4044 -14.3982 -14.3982 -14.3978 -14.3978
   -14.3803 -14.3803 -14.3782 -14.3782 -14.3674 -14.3674 -14.3592 -14.3592
   -14.3494 -14.3494 -14.3443 -14.3443  -5.7609  -5.7609  -5.4739  -5.4739
    -0.6155  -0.6155   0.4081   0.4081   4.0812   4.0812   4.7359   4.7359
     4.8020   4.8020   5.2527   5.2527   6.4586   6.4586   6.7260   6.7260

     occupation numbers 
     1.0000   1.0000   1.0000   1.0000   1.0000   1.0000   1.0000   1.0000
     1.0000   1.0000   1.0000   1.0000   1.0000   1.0000   1.0000   1.0000
     1.0000   1.0000   1.0000   1.0000   1.0000   1.0000   1.0000   1.0000
     1.0000   1.0000   1.0000   1.0000   1.0000   1.0000   1.0000   1.0000
     1.0000   1.0000   1.0000   1.0000   1.0000   1.0000   1.0000   1.0000

          k =-0.5000 0.5461 0.1667 ( 12256 PWs)   bands (ev):

   -14.4096 -14.4096 -14.4009 -14.4009 -14.3991 -14.3991 -14.3961 -14.3961
   -14.3853 -14.3853 -14.3816 -14.3816 -14.3697 -14.3697 -14.3554 -14.3554
   -14.3519 -14.3519 -14.3436 -14.3436  -6.0849  -6.0849  -5.3211  -5.3211
     0.1035   0.1035   1.2107   1.2107   3.3303   3.3303   3.9750   3.9750
     4.7787   4.7787   4.9484   4.9484   5.6220   5.6220   6.4483   6.4483

     occupation numbers 
     1.0000   1.0000   1.0000   1.0000   1.0000   1.0000   1.0000   1.0000
     1.0000   1.0000   1.0000   1.0000   1.0000   1.0000   1.0000   1.0000
     1.0000   1.0000   1.0000   1.0000   1.0000   1.0000   1.0000   1.0000
     1.0000   1.0000   1.0000   1.0000   1.0000   1.0000   1.0000   1.0000
     1.0000   1.0000   1.0000   1.0000   1.0000   1.0000   1.0000   1.0000

          k =-0.5000 0.5461 0.5001 ( 12232 PWs)   bands (ev):

   -14.4093 -14.4093 -14.4019 -14.4019 -14.3994 -14.3994 -14.3963 -14.3963
   -14.3841 -14.3841 -14.3816 -14.3816 -14.3685 -14.3685 -14.3556 -14.3556
   -14.3519 -14.3519 -14.3437 -14.3437  -5.9886  -5.9886  -5.3151  -5.3151
    -0.0436  -0.0436   1.0176   1.0176   3.3090   3.3090   3.7636   3.7636
     4.4034   4.4034   5.4712   5.4712   6.0342   6.0342   6.4164   6.4164

     occupation numbers 
     1.0000   1.0000   1.0000   1.0000   1.0000   1.0000   1.0000   1.0000
     1.0000   1.0000   1.0000   1.0000   1.0000   1.0000   1.0000   1.0000
     1.0000   1.0000   1.0000   1.0000   1.0000   1.0000   1.0000   1.0000
     1.0000   1.0000   1.0000   1.0000   1.0000   1.0000   1.0000   1.0000
     1.0000   1.0000   1.0000   1.0000   1.0000   1.0000   1.0000   1.0000

          k =-0.5000 0.5461 0.8335 ( 12238 PWs)   bands (ev):

   -14.4086 -14.4086 -14.4037 -14.4037 -14.3998 -14.3998 -14.3966 -14.3966
   -14.3826 -14.3826 -14.3818 -14.3818 -14.3665 -14.3665 -14.3560 -14.3560
   -14.3518 -14.3518 -14.3437 -14.3437  -5.8224  -5.8224  -5.3318  -5.3318
    -0.2729  -0.2729   0.7314   0.7314   3.3091   3.3091   3.9301   3.9301
     4.2878   4.2878   5.4811   5.4811   5.9048   5.9048   6.3821   6.3821

     occupation numbers 
     1.0000   1.0000   1.0000   1.0000   1.0000   1.0000   1.0000   1.0000
     1.0000   1.0000   1.0000   1.0000   1.0000   1.0000   1.0000   1.0000
     1.0000   1.0000   1.0000   1.0000   1.0000   1.0000   1.0000   1.0000
     1.0000   1.0000   1.0000   1.0000   1.0000   1.0000   1.0000   1.0000
     1.0000   1.0000   1.0000   1.0000   1.0000   1.0000   1.0000   1.0000

          k =-0.5000 0.5461 1.1669 ( 12214 PWs)   bands (ev):

   -14.4076 -14.4076 -14.4055 -14.4055 -14.4002 -14.4002 -14.3967 -14.3967
   -14.3824 -14.3824 -14.3812 -14.3812 -14.3650 -14.3650 -14.3563 -14.3563
   -14.3517 -14.3517 -14.3438 -14.3438  -5.6494  -5.6494  -5.3957  -5.3957
    -0.4377  -0.4377   0.5153   0.5153   3.5427   3.5427   3.8980   3.8980
     4.5545   4.5545   5.0484   5.0484   5.7241   5.7241   6.1857   6.1857

     occupation numbers 
     1.0000   1.0000   1.0000   1.0000   1.0000   1.0000   1.0000   1.0000
     1.0000   1.0000   1.0000   1.0000   1.0000   1.0000   1.0000   1.0000
     1.0000   1.0000   1.0000   1.0000   1.0000   1.0000   1.0000   1.0000
     1.0000   1.0000   1.0000   1.0000   1.0000   1.0000   1.0000   1.0000
     1.0000   1.0000   1.0000   1.0000   1.0000   1.0000   1.0000   1.0000

          k =-0.5000 0.9102 0.1667 ( 12220 PWs)   bands (ev):

   -14.4052 -14.4052 -14.4016 -14.4016 -14.3995 -14.3995 -14.3944 -14.3944
   -14.3866 -14.3866 -14.3853 -14.3853 -14.3667 -14.3667 -14.3566 -14.3566
   -14.3506 -14.3506 -14.3429 -14.3429  -5.8310  -5.8310  -5.2766  -5.2766
    -0.1797  -0.1797   0.5229   0.5229   3.6215   3.6215   4.1494   4.1494
     4.9457   4.9457   5.1637   5.1637   5.6922   5.6922   6.3486   6.3486

     occupation numbers 
     1.0000   1.0000   1.0000   1.0000   1.0000   1.0000   1.0000   1.0000
     1.0000   1.0000   1.0000   1.0000   1.0000   1.0000   1.0000   1.0000
     1.0000   1.0000   1.0000   1.0000   1.0000   1.0000   1.0000   1.0000
     1.0000   1.0000   1.0000   1.0000   1.0000   1.0000   1.0000   1.0000
     1.0000   1.0000   1.0000   1.0000   1.0000   1.0000   1.0000   1.0000

          k =-0.5000 0.9102 0.5001 ( 12232 PWs)   bands (ev):

   -14.4063 -14.4063 -14.4026 -14.4026 -14.3999 -14.3999 -14.3942 -14.3942
   -14.3860 -14.3860 -14.3849 -14.3849 -14.3656 -14.3656 -14.3563 -14.3563
   -14.3508 -14.3508 -14.3429 -14.3429  -5.7477  -5.7477  -5.2610  -5.2610
    -0.1305  -0.1305   0.5386   0.5386   3.2163   3.2163   3.8939   3.8939
     4.3536   4.3536   5.4124   5.4124   5.5953   5.5953   6.2494   6.2494

     occupation numbers 
     1.0000   1.0000   1.0000   1.0000   1.0000   1.0000   1.0000   1.0000
     1.0000   1.0000   1.0000   1.0000   1.0000   1.0000   1.0000   1.0000
     1.0000   1.0000   1.0000   1.0000   1.0000   1.0000   1.0000   1.0000
     1.0000   1.0000   1.0000   1.0000   1.0000   1.0000   1.0000   1.0000
     1.0000   1.0000   1.0000   1.0000   1.0000   1.0000   1.0000   1.0000

          k =-0.5000 0.9102 0.8335 ( 12210 PWs)   bands (ev):

   -14.4079 -14.4079 -14.4040 -14.4040 -14.4004 -14.4004 -14.3941 -14.3941
   -14.3857 -14.3857 -14.3839 -14.3839 -14.3639 -14.3639 -14.3557 -14.3557
   -14.3511 -14.3511 -14.3429 -14.3429  -5.6080  -5.6080  -5.2560  -5.2560
    -0.1047  -0.1047   0.5690   0.5690   2.8511   2.8511   3.5655   3.5655
     4.2467   4.2467   4.8792   4.8792   5.3374   5.3374   6.0177   6.0177

     occupation numbers 
     1.0000   1.0000   1.0000   1.0000   1.0000   1.0000   1.0000   1.0000
     1.0000   1.0000   1.0000   1.0000   1.0000   1.0000   1.0000   1.0000
     1.0000   1.0000   1.0000   1.0000   1.0000   1.0000   1.0000   1.0000
     1.0000   1.0000   1.0000   1.0000   1.0000   1.0000   1.0000   1.0000
     1.0000   1.0000   1.0000   1.0000   1.0000   1.0000   1.0000   1.0000

          k =-0.5000 0.9102 1.1669 ( 12210 PWs)   bands (ev):

   -14.4090 -14.4090 -14.4052 -14.4052 -14.4007 -14.4007 -14.3941 -14.3941
   -14.3857 -14.3857 -14.3831 -14.3831 -14.3625 -14.3625 -14.3552 -14.3552
   -14.3513 -14.3513 -14.3428 -14.3428  -5.4694  -5.4694  -5.2883  -5.2883
    -0.1304  -0.1304   0.6022   0.6022   2.8564   2.8564   3.1825   3.1825
     4.2273   4.2273   4.5666   4.5666   5.1975   5.1975   5.6506   5.6506

     occupation numbers 
     1.0000   1.0000   1.0000   1.0000   1.0000   1.0000   1.0000   1.0000
     1.0000   1.0000   1.0000   1.0000   1.0000   1.0000   1.0000   1.0000
     1.0000   1.0000   1.0000   1.0000   1.0000   1.0000   1.0000   1.0000
     1.0000   1.0000   1.0000   1.0000   1.0000   1.0000   1.0000   1.0000
     1.0000   1.0000   1.0000   1.0000   1.0000   1.0000   1.0000   1.0000

          k =-0.5000 1.2743 0.1667 ( 12216 PWs)   bands (ev):

   -14.4050 -14.4050 -14.4039 -14.4039 -14.3954 -14.3954 -14.3936 -14.3936
   -14.3879 -14.3879 -14.3869 -14.3869 -14.3640 -14.3640 -14.3608 -14.3608
   -14.3460 -14.3460 -14.3432 -14.3432  -5.5449  -5.5449  -5.3369  -5.3369
    -0.2896  -0.2896  -0.0426  -0.0426   4.0944   4.0944   4.4337   4.4337
     4.9094   4.9094   5.1119   5.1119   5.8017   5.8017   6.0936   6.0936

     occupation numbers 
     1.0000   1.0000   1.0000   1.0000   1.0000   1.0000   1.0000   1.0000
     1.0000   1.0000   1.0000   1.0000   1.0000   1.0000   1.0000   1.0000
     1.0000   1.0000   1.0000   1.0000   1.0000   1.0000   1.0000   1.0000
     1.0000   1.0000   1.0000   1.0000   1.0000   1.0000   1.0000   1.0000
     1.0000   1.0000   1.0000   1.0000   1.0000   1.0000   1.0000   1.0000

          k =-0.5000 1.2743 0.5001 ( 12238 PWs)   bands (ev):

   -14.4067 -14.4067 -14.4054 -14.4054 -14.3957 -14.3957 -14.3936 -14.3936
   -14.3871 -14.3871 -14.3863 -14.3863 -14.3631 -14.3631 -14.3601 -14.3601
   -14.3461 -14.3461 -14.3432 -14.3432  -5.4835  -5.4835  -5.3015  -5.3015
    -0.1534  -0.1534   0.0756   0.0756   3.5093   3.5093   3.9898   3.9898
     4.5031   4.5031   4.9399   4.9399   5.3945   5.3945   5.8190   5.8190

     occupation numbers 
     1.0000   1.0000   1.0000   1.0000   1.0000   1.0000   1.0000   1.0000
     1.0000   1.0000   1.0000   1.0000   1.0000   1.0000   1.0000   1.0000
     1.0000   1.0000   1.0000   1.0000   1.0000   1.0000   1.0000   1.0000
     1.0000   1.0000   1.0000   1.0000   1.0000   1.0000   1.0000   1.0000
     1.0000   1.0000   1.0000   1.0000   1.0000   1.0000   1.0000   1.0000

          k =-0.5000 1.2743 0.8335 ( 12224 PWs)   bands (ev):

   -14.4090 -14.4090 -14.4075 -14.4075 -14.3962 -14.3962 -14.3937 -14.3937
   -14.3863 -14.3863 -14.3854 -14.3854 -14.3616 -14.3616 -14.3591 -14.3591
   -14.3462 -14.3462 -14.3432 -14.3432  -5.3870  -5.3870  -5.2561  -5.2561
     0.0556   0.0556   0.2810   0.2810   2.9194   2.9194   3.4080   3.4080
     3.9540   3.9540   4.3988   4.3988   5.2273   5.2273   5.5924   5.5924

     occupation numbers 
     1.0000   1.0000   1.0000   1.0000   1.0000   1.0000   1.0000   1.0000
     1.0000   1.0000   1.0000   1.0000   1.0000   1.0000   1.0000   1.0000
     1.0000   1.0000   1.0000   1.0000   1.0000   1.0000   1.0000   1.0000
     1.0000   1.0000   1.0000   1.0000   1.0000   1.0000   1.0000   1.0000
     1.0000   1.0000   1.0000   1.0000   1.0000   1.0000   1.0000   1.0000

          k =-0.5000 1.2743 1.1669 ( 12236 PWs)   bands (ev):

   -14.4106 -14.4106 -14.4091 -14.4091 -14.3966 -14.3966 -14.3939 -14.3939
   -14.3859 -14.3859 -14.3847 -14.3847 -14.3605 -14.3605 -14.3582 -14.3582
   -14.3462 -14.3462 -14.3432 -14.3432  -5.3030  -5.3030  -5.2359  -5.2359
     0.2049   0.2049   0.4814   0.4814   2.6866   2.6866   2.9364   2.9364
     3.5534   3.5534   3.8841   3.8841   5.3271   5.3271   5.5045   5.5045

     occupation numbers 
     1.0000   1.0000   1.0000   1.0000   1.0000   1.0000   1.0000   1.0000
     1.0000   1.0000   1.0000   1.0000   1.0000   1.0000   1.0000   1.0000
     1.0000   1.0000   1.0000   1.0000   1.0000   1.0000   1.0000   1.0000
     1.0000   1.0000   1.0000   1.0000   1.0000   1.0000   1.0000   1.0000
     1.0000   1.0000   1.0000   1.0000   1.0000   1.0000   1.0000   1.0000

     highest occupied level (ev):     6.7681

!    total energy              =    -827.73969933 Ry
     estimated scf accuracy    <          1.2E-09 Ry

     The total energy is the sum of the following terms:
     one-electron contribution =    -277.63803304 Ry
     hartree contribution      =     186.16820294 Ry
     xc contribution           =    -308.79191400 Ry
     ewald contribution        =    -427.36142095 Ry
     DFT-D3 Dispersion         =      -0.11653429 Ry

     convergence has been achieved in  12 iterations

     Forces acting on atoms (cartesian axes, Ry/au):

     atom    1 type  2   force =    -0.01053073    0.00000000    0.00016878
     atom    2 type  1   force =     0.01229723    0.00000000    0.00277387
     atom    3 type  2   force =     0.01053073    0.00000000    0.00016878
     atom    4 type  1   force =    -0.01229723   -0.00000000    0.00277387
     atom    5 type  2   force =    -0.01053073    0.00000000   -0.00016878
     atom    6 type  1   force =     0.01229723    0.00000000   -0.00277387
     atom    7 type  2   force =     0.01053073    0.00000000   -0.00016878
     atom    8 type  1   force =    -0.01229723   -0.00000000   -0.00277387
     The non-local contrib.  to forces
     atom    1 type  2   force =    -0.08936916    0.00000000    0.11767272
     atom    2 type  1   force =     0.33107535    0.00000000    0.30211840
     atom    3 type  2   force =     0.08936916    0.00000000    0.11767272
     atom    4 type  1   force =    -0.33107535    0.00000000    0.30211840
     atom    5 type  2   force =    -0.08936916    0.00000000   -0.11767272
     atom    6 type  1   force =     0.33107535    0.00000000   -0.30211840
     atom    7 type  2   force =     0.08936916    0.00000000   -0.11767272
     atom    8 type  1   force =    -0.33107535    0.00000000   -0.30211840
     The ionic contribution  to forces
     atom    1 type  2   force =     0.80493812   -0.00000000   -1.47673874
     atom    2 type  1   force =    -0.56353301   -0.00000000   -0.95867984
     atom    3 type  2   force =    -0.80493812   -0.00000000   -1.47673874
     atom    4 type  1   force =     0.56353301   -0.00000000   -0.95867984
     atom    5 type  2   force =     0.80493812    0.00000000    1.47673874
     atom    6 type  1   force =    -0.56353301   -0.00000000    0.95867984
     atom    7 type  2   force =    -0.80493812   -0.00000000    1.47673874
     atom    8 type  1   force =     0.56353301   -0.00000000    0.95867984
     The local contribution  to forces
     atom    1 type  2   force =    -0.73642865    0.00000000    1.36987503
     atom    2 type  1   force =     0.25232035   -0.00000000    0.66212942
     atom    3 type  2   force =     0.73642865   -0.00000000    1.36987503
     atom    4 type  1   force =    -0.25232035   -0.00000000    0.66212942
     atom    5 type  2   force =    -0.73642865   -0.00000000   -1.36987503
     atom    6 type  1   force =     0.25232035    0.00000000   -0.66212942
     atom    7 type  2   force =     0.73642865   -0.00000000   -1.36987503
     atom    8 type  1   force =    -0.25232035   -0.00000000   -0.66212942
     The core correction contribution to forces
     atom    1 type  2   force =     0.01040543    0.00000000   -0.01297585
     atom    2 type  1   force =    -0.00777621    0.00000000   -0.00451668
     atom    3 type  2   force =    -0.01040543    0.00000000   -0.01297585
     atom    4 type  1   force =     0.00777621   -0.00000000   -0.00451668
     atom    5 type  2   force =     0.01040543    0.00000000    0.01297585
     atom    6 type  1   force =    -0.00777621    0.00000000    0.00451668
     atom    7 type  2   force =    -0.01040543    0.00000000    0.01297585
     atom    8 type  1   force =     0.00777621    0.00000000    0.00451668
     The Hubbard contrib.    to forces
     atom    1 type  2   force =     0.00000000    0.00000000    0.00000000
     atom    2 type  1   force =     0.00000000    0.00000000    0.00000000
     atom    3 type  2   force =     0.00000000    0.00000000    0.00000000
     atom    4 type  1   force =     0.00000000    0.00000000    0.00000000
     atom    5 type  2   force =     0.00000000    0.00000000    0.00000000
     atom    6 type  1   force =     0.00000000    0.00000000    0.00000000
     atom    7 type  2   force =     0.00000000    0.00000000    0.00000000
     atom    8 type  1   force =     0.00000000    0.00000000    0.00000000
     The SCF correction term to forces
     atom    1 type  2   force =    -0.00000027    0.00000000   -0.00000215
     atom    2 type  1   force =     0.00002306    0.00000000    0.00001164
     atom    3 type  2   force =     0.00000027   -0.00000000   -0.00000215
     atom    4 type  1   force =    -0.00002306    0.00000000    0.00001164
     atom    5 type  2   force =    -0.00000027    0.00000000    0.00000215
     atom    6 type  1   force =     0.00002306   -0.00000000   -0.00001164
     atom    7 type  2   force =     0.00000027   -0.00000000    0.00000215
     atom    8 type  1   force =    -0.00002306   -0.00000000   -0.00001164

     DFT-D3 dispersion contribution to forces:
     atom    1 type  2   force =    -0.00007618   -0.00000000    0.00233777
     atom    2 type  1   force =     0.00018769    0.00000000    0.00171091
     atom    3 type  2   force =     0.00007618   -0.00000000    0.00233777
     atom    4 type  1   force =    -0.00018769   -0.00000000    0.00171091
     atom    5 type  2   force =    -0.00007618   -0.00000000   -0.00233777
     atom    6 type  1   force =     0.00018769    0.00000000   -0.00171091
     atom    7 type  2   force =     0.00007618    0.00000000   -0.00233777
     atom    8 type  1   force =    -0.00018769    0.00000000   -0.00171091

     Total force =     0.032854     Total SCF correction =     0.000052

     DFT-D3 dispersion Force =     0.005808

     Writing all to output data dir ./tmp/SnSe_pnma.save/ :
     XML data file, charge density, pseudopotentials, collected wavefunctions
 
     init_run     :      3.64s CPU      3.99s WALL (       1 calls)
     electrons    :     90.30s CPU     95.58s WALL (       1 calls)
     forces       :      1.50s CPU      1.71s WALL (       1 calls)
     force_dftd3  :      0.05s CPU      0.05s WALL (       1 calls)

     Called by init_run:
     wfcinit      :      2.44s CPU      2.50s WALL (       1 calls)
     wfcinit:atom :      0.03s CPU      0.04s WALL (      11 calls)
     wfcinit:wfcr :      2.15s CPU      2.18s WALL (      11 calls)
     potinit      :      0.27s CPU      0.33s WALL (       1 calls)
     hinit0       :      0.29s CPU      0.31s WALL (       1 calls)

     Called by electrons:
     c_bands      :     66.22s CPU     66.64s WALL (      12 calls)
     sum_band     :     16.92s CPU     19.23s WALL (      12 calls)
     v_of_rho     :      2.70s CPU      2.85s WALL (      13 calls)
     v_h          :      0.22s CPU      0.22s WALL (      13 calls)
     v_xc         :      2.69s CPU      2.86s WALL (      14 calls)
     newd         :      4.51s CPU      7.06s WALL (      13 calls)
     mix_rho      :      0.31s CPU      0.33s WALL (      12 calls)
     energy_dftd3 :      0.03s CPU      0.04s WALL (       1 calls)

     Called by c_bands:
     init_us_2    :      1.88s CPU      1.90s WALL (     286 calls)
     cegterg      :     59.98s CPU     60.27s WALL (     132 calls)

     Called by sum_band:
     sum_band:wei :      0.00s CPU      0.00s WALL (      12 calls)
     sum_band:loo :     11.84s CPU     11.88s WALL (      12 calls)
     sum_band:buf :      0.13s CPU      0.13s WALL (     132 calls)
     sum_band:ini :      0.85s CPU      0.85s WALL (     132 calls)
     sum_band:cal :      1.07s CPU      1.07s WALL (     132 calls)
     sum_band:bec :      0.01s CPU      0.01s WALL (     132 calls)
     addusdens    :      4.54s CPU      6.74s WALL (      12 calls)
                                        0.00s GPU  (      12 calls)
     addusd:skk   :      0.02s CPU      0.04s WALL (      24 calls)
                                        0.00s GPU  (      24 calls)

     Called by *egterg:
     cdiaghg      :      0.92s CPU      0.92s WALL (     598 calls)
     cegterg:over :      2.52s CPU      2.52s WALL (     466 calls)
     cegterg:upda :      1.52s CPU      1.53s WALL (     466 calls)
     cegterg:last :      3.96s CPU      3.96s WALL (     333 calls)
     h_psi        :     47.64s CPU     47.91s WALL (     609 calls)
     s_psi        :      3.92s CPU      3.93s WALL (     609 calls)
     g_psi        :      0.16s CPU      0.16s WALL (     466 calls)

     Called by h_psi:
     h_psi:calbec :      3.50s CPU      3.51s WALL (     609 calls)
     vloc_psi     :     39.89s CPU     40.14s WALL (     609 calls)
     add_vuspsi   :      3.91s CPU      3.92s WALL (     609 calls)

     General routines
     calbec       :      5.00s CPU      5.01s WALL (     785 calls)
     fft          :      1.51s CPU      1.54s WALL (     178 calls)
     ffts         :      0.04s CPU      0.05s WALL (      25 calls)
     fftw         :     25.96s CPU     26.10s WALL (   37332 calls)
     interpolate  :      0.16s CPU      0.16s WALL (      13 calls)
 
     Parallel routines
 
     PWSCF        :   1m35.73s CPU   1m42.46s WALL

 
   This run was terminated on:  22:22:57  19May2026            

=------------------------------------------------------------------------------=
   JOB DONE.
=------------------------------------------------------------------------------=
