
     Program PWSCF v.7.3.1 starts on 20May2026 at 15: 2:33 

     This program is part of the open-source Quantum ESPRESSO suite
     for quantum simulation of materials; please cite
         "P. Giannozzi et al., J. Phys.:Condens. Matter 21 395502 (2009);
         "P. Giannozzi et al., J. Phys.:Condens. Matter 29 465901 (2017);
         "P. Giannozzi et al., J. Chem. Phys. 152 154105 (2020);
          URL http://www.quantum-espresso.org", 
     in publications or presentations arising from this work. More details at
     http://www.quantum-espresso.org/quote

     Parallel version (MPI & OpenMP), running on       6 processor cores
     Number of MPI processes:                 6
     Threads/MPI process:                     1

     MPI processes distributed on     1 nodes
     10810 MiB available memory on the printing compute node when the environment starts
 
     Waiting for input...
     Reading input from standard input

     Current dimensions of program PWSCF are:
     Max number of different atomic species (ntypx) = 10
     Max number of k-points (npk) =  40000
     Max angular momentum in pseudopotentials (lmaxx) =  4
 
     K-points division:     npool     =       3
     R & G space division:  proc/nbgrp/npool/nimage =       2
     Subspace diagonalization in iterative solution of the eigenvalue problem:
     a serial algorithm will be used

 
     Parallelization info
     --------------------
     sticks:   dense  smooth     PW     G-vecs:    dense   smooth      PW
     Min        1954     779    234                61964    15633    2532
     Max        1955     780    235                61967    15636    2533
     Sum        3909    1559    469               123931    31269    5065
 
     Using Slab Decomposition
 


     bravais-lattice index     =            8
     lattice parameter (alat)  =      20.8059  a.u.
     unit-cell volume          =    1411.8931 (a.u.)^3
     number of atoms/cell      =            8
     number of atomic types    =            2
     number of electrons       =        80.00
     number of Kohn-Sham states=           40
     kinetic-energy cutoff     =      30.0000  Ry
     charge density cutoff     =     300.0000  Ry
     scf convergence threshold =      1.0E-08
     mixing beta               =       0.7000
     number of iterations used =            8  plain     mixing
     Exchange-correlation= SLA  PW   PBE  PBE
                           (   1   4   3   4   0   0   0)

     celldm(1)=  20.805885  celldm(2)=   0.378874  celldm(3)=   0.413760
     celldm(4)=   0.000000  celldm(5)=   0.000000  celldm(6)=   0.000000

     crystal axes: (cart. coord. in units of alat)
               a(1) = (   1.000000   0.000000   0.000000 )  
               a(2) = (   0.000000   0.378874   0.000000 )  
               a(3) = (   0.000000   0.000000   0.413760 )  

     reciprocal axes: (cart. coord. in units 2 pi/alat)
               b(1) = (  1.000000  0.000000  0.000000 )  
               b(2) = (  0.000000  2.639402  0.000000 )  
               b(3) = (  0.000000  0.000000  2.416859 )  


     PseudoPot. # 1 for Sn read from file:
     ../pseudo/Sn_pbe_v1.uspp.F.UPF
     MD5 check sum: 4cf58ce39ec5d5d420df3dd08604eb00
     Pseudo is Ultrasoft + core correction, Zval = 14.0
     Generated by new atomic code, or converted to UPF format
     Using radial grid of  891 points,  6 beta functions with: 
                l(1) =   0
                l(2) =   0
                l(3) =   1
                l(4) =   1
                l(5) =   2
                l(6) =   2
     Q(r) pseudized with  6 coefficients,  rinner =    1.200   1.200   1.200
                                                       1.200   1.200

     PseudoPot. # 2 for Se read from file:
     ../pseudo/Se_pbe_v1.uspp.F.UPF
     MD5 check sum: 1b3568f3a8ae88f9a2a0ad0698632c85
     Pseudo is Ultrasoft + core correction, Zval =  6.0
     Generated by new atomic code, or converted to UPF format
     Using radial grid of  877 points,  6 beta functions with: 
                l(1) =   0
                l(2) =   0
                l(3) =   1
                l(4) =   1
                l(5) =   2
                l(6) =   2
     Q(r) pseudized with  8 coefficients,  rinner =    1.300   1.300   1.300
                                                       1.300   1.300

     atomic species   valence    mass     pseudopotential
     Sn               14.00   118.71000     Sn( 1.00)
     Se                6.00    78.97100     Se( 1.00)

      8 Sym. Ops., with inversion, found ( 6 have fractional translation)


                                    s                        frac. trans.

      isym =  1     identity                                     

 cryst.   s( 1) = (     1          0          0      )
                  (     0          1          0      )
                  (     0          0          1      )

 cart.    s( 1) = (  1.0000000  0.0000000  0.0000000 )
                  (  0.0000000  1.0000000  0.0000000 )
                  (  0.0000000  0.0000000  1.0000000 )


      isym =  2     180 deg rotation - cart. axis [0,0,1]        

 cryst.   s( 2) = (    -1          0          0      )    f =(  0.5000000 )
                  (     0         -1          0      )       (  0.0000000 )
                  (     0          0          1      )       (  0.5000000 )

 cart.    s( 2) = ( -1.0000000  0.0000000  0.0000000 )    f =(  0.5000000 )
                  (  0.0000000 -1.0000000  0.0000000 )       (  0.0000000 )
                  (  0.0000000  0.0000000  1.0000000 )       (  0.2068801 )


      isym =  3     180 deg rotation - cart. axis [0,1,0]        

 cryst.   s( 3) = (    -1          0          0      )    f =(  0.0000000 )
                  (     0          1          0      )       ( -0.5000000 )
                  (     0          0         -1      )       (  0.0000000 )

 cart.    s( 3) = ( -1.0000000  0.0000000  0.0000000 )    f =(  0.0000000 )
                  (  0.0000000  1.0000000  0.0000000 )       ( -0.1894369 )
                  (  0.0000000  0.0000000 -1.0000000 )       (  0.0000000 )


      isym =  4     180 deg rotation - cart. axis [1,0,0]        

 cryst.   s( 4) = (     1          0          0      )    f =(  0.5000000 )
                  (     0         -1          0      )       (  0.5000000 )
                  (     0          0         -1      )       (  0.5000000 )

 cart.    s( 4) = (  1.0000000  0.0000000  0.0000000 )    f =(  0.5000000 )
                  (  0.0000000 -1.0000000  0.0000000 )       (  0.1894369 )
                  (  0.0000000  0.0000000 -1.0000000 )       (  0.2068801 )


      isym =  5     inversion                                    

 cryst.   s( 5) = (    -1          0          0      )
                  (     0         -1          0      )
                  (     0          0         -1      )

 cart.    s( 5) = ( -1.0000000  0.0000000  0.0000000 )
                  (  0.0000000 -1.0000000  0.0000000 )
                  (  0.0000000  0.0000000 -1.0000000 )


      isym =  6     inv. 180 deg rotation - cart. axis [0,0,1]   

 cryst.   s( 6) = (     1          0          0      )    f =(  0.5000000 )
                  (     0          1          0      )       (  0.0000000 )
                  (     0          0         -1      )       (  0.5000000 )

 cart.    s( 6) = (  1.0000000  0.0000000  0.0000000 )    f =(  0.5000000 )
                  (  0.0000000  1.0000000  0.0000000 )       (  0.0000000 )
                  (  0.0000000  0.0000000 -1.0000000 )       (  0.2068801 )


      isym =  7     inv. 180 deg rotation - cart. axis [0,1,0]   

 cryst.   s( 7) = (     1          0          0      )    f =(  0.0000000 )
                  (     0         -1          0      )       (  0.5000000 )
                  (     0          0          1      )       (  0.0000000 )

 cart.    s( 7) = (  1.0000000  0.0000000  0.0000000 )    f =(  0.0000000 )
                  (  0.0000000 -1.0000000  0.0000000 )       (  0.1894369 )
                  (  0.0000000  0.0000000  1.0000000 )       (  0.0000000 )


      isym =  8     inv. 180 deg rotation - cart. axis [1,0,0]   

 cryst.   s( 8) = (    -1          0          0      )    f =(  0.5000000 )
                  (     0          1          0      )       ( -0.5000000 )
                  (     0          0          1      )       (  0.5000000 )

 cart.    s( 8) = ( -1.0000000  0.0000000  0.0000000 )    f =(  0.5000000 )
                  (  0.0000000  1.0000000  0.0000000 )       ( -0.1894369 )
                  (  0.0000000  0.0000000  1.0000000 )       (  0.2068801 )


     point group D_2h (mmm) 
     there are  8 classes
     the character table:

       E     C2    C2'   C2''  i     s_v   s_v'  s_v''
A_g    1.00  1.00  1.00  1.00  1.00  1.00  1.00  1.00
B_1g   1.00  1.00 -1.00 -1.00  1.00  1.00 -1.00 -1.00
B_2g   1.00 -1.00  1.00 -1.00  1.00 -1.00  1.00 -1.00
B_3g   1.00 -1.00 -1.00  1.00  1.00 -1.00 -1.00  1.00
A_u    1.00  1.00  1.00  1.00 -1.00 -1.00 -1.00 -1.00
B_1u   1.00  1.00 -1.00 -1.00 -1.00 -1.00  1.00  1.00
B_2u   1.00 -1.00  1.00 -1.00 -1.00  1.00 -1.00  1.00
B_3u   1.00 -1.00 -1.00  1.00 -1.00  1.00  1.00 -1.00

     the symmetry operations in each class and the name of the first element:

     E        1
          identity                                               
     C2       2
          180 deg rotation - cart. axis [0,0,1]                  
     C2'      4
          180 deg rotation - cart. axis [1,0,0]                  
     C2''     3
          180 deg rotation - cart. axis [0,1,0]                  
     i        5
          inversion                                              
     s_v      6
          inv. 180 deg rotation - cart. axis [0,0,1]             
     s_v'     8
          inv. 180 deg rotation - cart. axis [1,0,0]             
     s_v''    7
          inv. 180 deg rotation - cart. axis [0,1,0]             

   Cartesian axes

     site n.     atom                  positions (alat units)
         1        Se     tau(   1) = (   0.8549563   0.0947184   0.1999488  )
         2        Sn     tau(   2) = (   0.1165395   0.0947184   0.0464599  )
         3        Se     tau(   3) = (   0.6450437   0.2841553   0.4068289  )
         4        Sn     tau(   4) = (   0.3834605   0.2841553   0.2533400  )
         5        Se     tau(   5) = (   0.3549563   0.0947184   0.0069313  )
         6        Sn     tau(   6) = (   0.6165395   0.0947184   0.1604202  )
         7        Se     tau(   7) = (   0.1450437   0.2841553   0.2138114  )
         8        Sn     tau(   8) = (   0.8834605   0.2841553   0.3673003  )

     --------------------------------------------
     DFT-D3 Dispersion Correction (3-body terms):
     --------------------------------------------
       Reference C6 values for interpolation: 

         atom   Coordination number   C6
         Se         0.000           427.35
         Se         0.990           427.57
         Se         1.981           421.05
         Sn         0.000          1255.14
         Sn         0.951          1084.09
         Sn         1.950          1010.83
         Sn         2.926           818.29
         Sn         3.912           672.20

       Values used:

         atom   Coordination number  R0_AB[au]  C6      C8
         Se         3.616            3.332    421.05  29958.36
         Sn         4.497            3.957    672.23  84372.51
         Se         3.616            3.332    421.05  29958.36
         Sn         4.497            3.957    672.23  84372.51
         Se         3.616            3.332    421.05  29958.36
         Sn         4.497            3.957    672.23  84372.51
         Se         3.616            3.332    421.05  29958.36
         Sn         4.497            3.957    672.23  84372.51

         Molecular C6 ( Ry / a.u.^6 ) =     34497.00


   Crystallographic axes

     site n.     atom                  positions (cryst. coord.)
         1        Se     tau(   1) = (  0.8549563  0.2500000  0.4832481  )
         2        Sn     tau(   2) = (  0.1165395  0.2500000  0.1122870  )
         3        Se     tau(   3) = (  0.6450437  0.7500000  0.9832481  )
         4        Sn     tau(   4) = (  0.3834605  0.7500000  0.6122870  )
         5        Se     tau(   5) = (  0.3549563  0.2500000  0.0167519  )
         6        Sn     tau(   6) = (  0.6165395  0.2500000  0.3877130  )
         7        Se     tau(   7) = (  0.1450437  0.7500000  0.5167519  )
         8        Sn     tau(   8) = (  0.8834605  0.7500000  0.8877130  )

     number of k points=    32
                       cart. coord. in units 2pi/alat
        k(    1) = (   0.1666667   0.1649626   0.1510537), wk =   0.0833333
        k(    2) = (   0.1666667   0.1649626   0.4531610), wk =   0.0833333
        k(    3) = (   0.1666667   0.1649626   0.7552684), wk =   0.0833333
        k(    4) = (   0.1666667   0.1649626   1.0573757), wk =   0.0833333
        k(    5) = (   0.1666667   0.4948878   0.1510537), wk =   0.0833333
        k(    6) = (   0.1666667   0.4948878   0.4531610), wk =   0.0833333
        k(    7) = (   0.1666667   0.4948878   0.7552684), wk =   0.0833333
        k(    8) = (   0.1666667   0.4948878   1.0573757), wk =   0.0833333
        k(    9) = (   0.1666667   0.8248130   0.1510537), wk =   0.0833333
        k(   10) = (   0.1666667   0.8248130   0.4531610), wk =   0.0833333
        k(   11) = (   0.1666667   0.8248130   0.7552684), wk =   0.0833333
        k(   12) = (   0.1666667   0.8248130   1.0573757), wk =   0.0833333
        k(   13) = (   0.1666667   1.1547382   0.1510537), wk =   0.0833333
        k(   14) = (   0.1666667   1.1547382   0.4531610), wk =   0.0833333
        k(   15) = (   0.1666667   1.1547382   0.7552684), wk =   0.0833333
        k(   16) = (   0.1666667   1.1547382   1.0573757), wk =   0.0833333
        k(   17) = (  -0.5000000   0.1649626   0.1510537), wk =   0.0416667
        k(   18) = (  -0.5000000   0.1649626   0.4531610), wk =   0.0416667
        k(   19) = (  -0.5000000   0.1649626   0.7552684), wk =   0.0416667
        k(   20) = (  -0.5000000   0.1649626   1.0573757), wk =   0.0416667
        k(   21) = (  -0.5000000   0.4948878   0.1510537), wk =   0.0416667
        k(   22) = (  -0.5000000   0.4948878   0.4531610), wk =   0.0416667
        k(   23) = (  -0.5000000   0.4948878   0.7552684), wk =   0.0416667
        k(   24) = (  -0.5000000   0.4948878   1.0573757), wk =   0.0416667
        k(   25) = (  -0.5000000   0.8248130   0.1510537), wk =   0.0416667
        k(   26) = (  -0.5000000   0.8248130   0.4531610), wk =   0.0416667
        k(   27) = (  -0.5000000   0.8248130   0.7552684), wk =   0.0416667
        k(   28) = (  -0.5000000   0.8248130   1.0573757), wk =   0.0416667
        k(   29) = (  -0.5000000   1.1547382   0.1510537), wk =   0.0416667
        k(   30) = (  -0.5000000   1.1547382   0.4531610), wk =   0.0416667
        k(   31) = (  -0.5000000   1.1547382   0.7552684), wk =   0.0416667
        k(   32) = (  -0.5000000   1.1547382   1.0573757), wk =   0.0416667

                       cryst. coord.
        k(    1) = (   0.1666667   0.0625000   0.0625000), wk =   0.0833333
        k(    2) = (   0.1666667   0.0625000   0.1875000), wk =   0.0833333
        k(    3) = (   0.1666667   0.0625000   0.3125000), wk =   0.0833333
        k(    4) = (   0.1666667   0.0625000   0.4375000), wk =   0.0833333
        k(    5) = (   0.1666667   0.1875000   0.0625000), wk =   0.0833333
        k(    6) = (   0.1666667   0.1875000   0.1875000), wk =   0.0833333
        k(    7) = (   0.1666667   0.1875000   0.3125000), wk =   0.0833333
        k(    8) = (   0.1666667   0.1875000   0.4375000), wk =   0.0833333
        k(    9) = (   0.1666667   0.3125000   0.0625000), wk =   0.0833333
        k(   10) = (   0.1666667   0.3125000   0.1875000), wk =   0.0833333
        k(   11) = (   0.1666667   0.3125000   0.3125000), wk =   0.0833333
        k(   12) = (   0.1666667   0.3125000   0.4375000), wk =   0.0833333
        k(   13) = (   0.1666667   0.4375000   0.0625000), wk =   0.0833333
        k(   14) = (   0.1666667   0.4375000   0.1875000), wk =   0.0833333
        k(   15) = (   0.1666667   0.4375000   0.3125000), wk =   0.0833333
        k(   16) = (   0.1666667   0.4375000   0.4375000), wk =   0.0833333
        k(   17) = (  -0.5000000   0.0625000   0.0625000), wk =   0.0416667
        k(   18) = (  -0.5000000   0.0625000   0.1875000), wk =   0.0416667
        k(   19) = (  -0.5000000   0.0625000   0.3125000), wk =   0.0416667
        k(   20) = (  -0.5000000   0.0625000   0.4375000), wk =   0.0416667
        k(   21) = (  -0.5000000   0.1875000   0.0625000), wk =   0.0416667
        k(   22) = (  -0.5000000   0.1875000   0.1875000), wk =   0.0416667
        k(   23) = (  -0.5000000   0.1875000   0.3125000), wk =   0.0416667
        k(   24) = (  -0.5000000   0.1875000   0.4375000), wk =   0.0416667
        k(   25) = (  -0.5000000   0.3125000   0.0625000), wk =   0.0416667
        k(   26) = (  -0.5000000   0.3125000   0.1875000), wk =   0.0416667
        k(   27) = (  -0.5000000   0.3125000   0.3125000), wk =   0.0416667
        k(   28) = (  -0.5000000   0.3125000   0.4375000), wk =   0.0416667
        k(   29) = (  -0.5000000   0.4375000   0.0625000), wk =   0.0416667
        k(   30) = (  -0.5000000   0.4375000   0.1875000), wk =   0.0416667
        k(   31) = (  -0.5000000   0.4375000   0.3125000), wk =   0.0416667
        k(   32) = (  -0.5000000   0.4375000   0.4375000), wk =   0.0416667

     Dense  grid:   123931 G-vectors     FFT dimensions: ( 120,  48,  48)

     Smooth grid:    31269 G-vectors     FFT dimensions: (  80,  30,  32)

     Dynamical RAM for                 wfc:       1.20 MB

     Dynamical RAM for     wfc (w. buffer):      14.35 MB

     Dynamical RAM for           str. fact:       1.89 MB

     Dynamical RAM for           local pot:       0.00 MB

     Dynamical RAM for          nlocal pot:       4.30 MB

     Dynamical RAM for                qrad:       2.78 MB

     Dynamical RAM for          rho,v,vnew:       6.00 MB

     Dynamical RAM for               rhoin:       2.00 MB

     Dynamical RAM for            rho*nmix:      15.13 MB

     Dynamical RAM for           G-vectors:       3.67 MB

     Dynamical RAM for          h,s,v(r/c):       0.29 MB

     Dynamical RAM for          <psi|beta>:       0.09 MB

     Dynamical RAM for                 psi:       2.39 MB

     Dynamical RAM for                hpsi:       2.39 MB

     Dynamical RAM for                spsi:       2.39 MB

     Dynamical RAM for      wfcinit/wfcrot:       3.17 MB

     Dynamical RAM for           addusdens:      60.51 MB

     Dynamical RAM for          addusforce:      62.26 MB

     Estimated static dynamical RAM per process >      43.10 MB

     Estimated max dynamical RAM per process >     120.49 MB

     Estimated total dynamical RAM >     662.43 MB

     Initial potential from superposition of free atoms

     starting charge      75.9995, renormalised to      80.0000
     Starting wfcs are   52 randomized atomic wfcs

     total cpu time spent up to now is        1.5 secs

     Self-consistent Calculation

     iteration #  1     ecut=    30.00 Ry     beta= 0.70
     Davidson diagonalization with overlap

---- Real-time Memory Report at c_bands before calling an iterative solver
           211 MiB given to the printing process from OS
             0 MiB allocation reported by mallinfo(arena+hblkhd)
         10360 MiB available memory on the node where the printing process lives
------------------
     ethr =  1.00E-02,  avg # of iterations =  2.0

     total cpu time spent up to now is        3.7 secs

     total energy              =    -826.61547538 Ry
     estimated scf accuracy    <       2.66379183 Ry

     iteration #  2     ecut=    30.00 Ry     beta= 0.70
     Davidson diagonalization with overlap

---- Real-time Memory Report at c_bands before calling an iterative solver
           255 MiB given to the printing process from OS
             0 MiB allocation reported by mallinfo(arena+hblkhd)
          9879 MiB available memory on the node where the printing process lives
------------------
     ethr =  3.33E-03,  avg # of iterations =  3.0

     total cpu time spent up to now is        5.9 secs

     total energy              =    -827.53377760 Ry
     estimated scf accuracy    <       0.92011699 Ry

     iteration #  3     ecut=    30.00 Ry     beta= 0.70
     Davidson diagonalization with overlap

---- Real-time Memory Report at c_bands before calling an iterative solver
           274 MiB given to the printing process from OS
             0 MiB allocation reported by mallinfo(arena+hblkhd)
          9797 MiB available memory on the node where the printing process lives
------------------
     ethr =  1.15E-03,  avg # of iterations =  2.4

     total cpu time spent up to now is        7.7 secs

     total energy              =    -827.71813188 Ry
     estimated scf accuracy    <       0.00839711 Ry

     iteration #  4     ecut=    30.00 Ry     beta= 0.70
     Davidson diagonalization with overlap

---- Real-time Memory Report at c_bands before calling an iterative solver
           276 MiB given to the printing process from OS
             0 MiB allocation reported by mallinfo(arena+hblkhd)
          9793 MiB available memory on the node where the printing process lives
------------------
     ethr =  1.05E-05,  avg # of iterations =  5.0

     total cpu time spent up to now is       10.2 secs

     total energy              =    -827.72358910 Ry
     estimated scf accuracy    <       0.00439542 Ry

     iteration #  5     ecut=    30.00 Ry     beta= 0.70
     Davidson diagonalization with overlap

---- Real-time Memory Report at c_bands before calling an iterative solver
           277 MiB given to the printing process from OS
             0 MiB allocation reported by mallinfo(arena+hblkhd)
          9786 MiB available memory on the node where the printing process lives
------------------
     ethr =  5.49E-06,  avg # of iterations =  3.3

     total cpu time spent up to now is       12.1 secs

     total energy              =    -827.72498777 Ry
     estimated scf accuracy    <       0.00125156 Ry

     iteration #  6     ecut=    30.00 Ry     beta= 0.70
     Davidson diagonalization with overlap

---- Real-time Memory Report at c_bands before calling an iterative solver
           278 MiB given to the printing process from OS
             0 MiB allocation reported by mallinfo(arena+hblkhd)
          9783 MiB available memory on the node where the printing process lives
------------------
     ethr =  1.56E-06,  avg # of iterations =  2.3

     total cpu time spent up to now is       14.2 secs

     total energy              =    -827.72518687 Ry
     estimated scf accuracy    <       0.00003736 Ry

     iteration #  7     ecut=    30.00 Ry     beta= 0.70
     Davidson diagonalization with overlap

---- Real-time Memory Report at c_bands before calling an iterative solver
           280 MiB given to the printing process from OS
             0 MiB allocation reported by mallinfo(arena+hblkhd)
          9834 MiB available memory on the node where the printing process lives
------------------
     ethr =  4.67E-08,  avg # of iterations =  4.1

     total cpu time spent up to now is       16.5 secs

     total energy              =    -827.72521393 Ry
     estimated scf accuracy    <       0.00000299 Ry

     iteration #  8     ecut=    30.00 Ry     beta= 0.70
     Davidson diagonalization with overlap

---- Real-time Memory Report at c_bands before calling an iterative solver
           282 MiB given to the printing process from OS
             0 MiB allocation reported by mallinfo(arena+hblkhd)
          9781 MiB available memory on the node where the printing process lives
------------------
     ethr =  3.74E-09,  avg # of iterations =  3.0

     total cpu time spent up to now is       18.6 secs

     total energy              =    -827.72521499 Ry
     estimated scf accuracy    <       0.00000073 Ry

     iteration #  9     ecut=    30.00 Ry     beta= 0.70
     Davidson diagonalization with overlap

---- Real-time Memory Report at c_bands before calling an iterative solver
           285 MiB given to the printing process from OS
             0 MiB allocation reported by mallinfo(arena+hblkhd)
          9777 MiB available memory on the node where the printing process lives
------------------
     ethr =  9.18E-10,  avg # of iterations =  2.5

     total cpu time spent up to now is       20.5 secs

     End of self-consistent calculation

          k = 0.1667 0.1650 0.1511 (  3921 PWs)   bands (ev):

   -13.1294 -13.1161 -13.1116 -13.1101 -13.1074 -13.1069 -13.1037 -13.1008
   -13.0925 -13.0916 -13.0882 -13.0858 -13.0758 -13.0672 -13.0471 -13.0462
   -13.0383 -13.0371 -13.0243 -13.0165  -5.6701  -5.3352  -4.5188  -4.0523
     0.6573   1.6191   2.6607   2.9583   3.3675   4.6162   4.7400   5.0224
     5.3093   5.4930   6.0657   6.4397   6.7142   7.2343   7.4510   7.7299

     occupation numbers 
     1.0000   1.0000   1.0000   1.0000   1.0000   1.0000   1.0000   1.0000
     1.0000   1.0000   1.0000   1.0000   1.0000   1.0000   1.0000   1.0000
     1.0000   1.0000   1.0000   1.0000   1.0000   1.0000   1.0000   1.0000
     1.0000   1.0000   1.0000   1.0000   1.0000   1.0000   1.0000   1.0000
     1.0000   1.0000   1.0000   1.0000   1.0000   1.0000   1.0000   1.0000

          k = 0.1667 0.1650 0.4532 (  3909 PWs)   bands (ev):

   -13.1275 -13.1156 -13.1116 -13.1111 -13.1083 -13.1072 -13.1046 -13.1015
   -13.0916 -13.0891 -13.0859 -13.0855 -13.0756 -13.0682 -13.0474 -13.0451
   -13.0390 -13.0384 -13.0236 -13.0170  -5.5475  -5.2223  -4.5292  -4.1084
     0.3558   1.4079   2.0477   2.6761   3.4832   4.6438   4.8628   5.4618
     5.6237   6.0401   6.0862   6.5349   6.8758   7.1801   7.6084   7.8411

     occupation numbers 
     1.0000   1.0000   1.0000   1.0000   1.0000   1.0000   1.0000   1.0000
     1.0000   1.0000   1.0000   1.0000   1.0000   1.0000   1.0000   1.0000
     1.0000   1.0000   1.0000   1.0000   1.0000   1.0000   1.0000   1.0000
     1.0000   1.0000   1.0000   1.0000   1.0000   1.0000   1.0000   1.0000
     1.0000   1.0000   1.0000   1.0000   1.0000   1.0000   1.0000   1.0000

          k = 0.1667 0.1650 0.7553 (  3912 PWs)   bands (ev):

   -13.1241 -13.1154 -13.1129 -13.1114 -13.1098 -13.1075 -13.1051 -13.1028
   -13.0902 -13.0863 -13.0848 -13.0817 -13.0757 -13.0702 -13.0469 -13.0438
   -13.0406 -13.0400 -13.0224 -13.0180  -5.3245  -5.0192  -4.5892  -4.2383
     0.0770   0.9207   1.5978   2.2139   3.7901   4.8736   5.0684   5.7130
     6.0465   6.1468   6.4456   6.5369   7.0506   7.5001   7.6124   8.0635

     occupation numbers 
     1.0000   1.0000   1.0000   1.0000   1.0000   1.0000   1.0000   1.0000
     1.0000   1.0000   1.0000   1.0000   1.0000   1.0000   1.0000   1.0000
     1.0000   1.0000   1.0000   1.0000   1.0000   1.0000   1.0000   1.0000
     1.0000   1.0000   1.0000   1.0000   1.0000   1.0000   1.0000   1.0000
     1.0000   1.0000   1.0000   1.0000   1.0000   1.0000   1.0000   1.0000

          k = 0.1667 0.1650 1.0574 (  3906 PWs)   bands (ev):

   -13.1204 -13.1172 -13.1134 -13.1128 -13.1094 -13.1084 -13.1051 -13.1043
   -13.0886 -13.0872 -13.0804 -13.0783 -13.0762 -13.0732 -13.0454 -13.0432
   -13.0424 -13.0413 -13.0209 -13.0194  -5.0515  -4.8472  -4.6625  -4.4476
     0.0606   0.3719   1.5466   1.7832   4.2528   4.7440   5.4627   5.7852
     6.0251   6.1822   6.5266   6.7491   7.3434   7.6253   7.8372   7.9186

     occupation numbers 
     1.0000   1.0000   1.0000   1.0000   1.0000   1.0000   1.0000   1.0000
     1.0000   1.0000   1.0000   1.0000   1.0000   1.0000   1.0000   1.0000
     1.0000   1.0000   1.0000   1.0000   1.0000   1.0000   1.0000   1.0000
     1.0000   1.0000   1.0000   1.0000   1.0000   1.0000   1.0000   1.0000
     1.0000   1.0000   1.0000   1.0000   1.0000   1.0000   1.0000   1.0000

          k = 0.1667 0.4949 0.1511 (  3918 PWs)   bands (ev):

   -13.1232 -13.1148 -13.1128 -13.1102 -13.1068 -13.1065 -13.1044 -13.1033
   -13.0934 -13.0877 -13.0875 -13.0850 -13.0733 -13.0686 -13.0495 -13.0450
   -13.0416 -13.0355 -13.0246 -13.0184  -5.5030  -5.1928  -4.4611  -4.0758
     0.5282   1.3974   2.2704   2.4445   3.4785   4.4616   4.8013   5.1659
     5.4554   5.6357   6.1203   6.4958   6.6448   7.3239   7.6317   7.8187

     occupation numbers 
     1.0000   1.0000   1.0000   1.0000   1.0000   1.0000   1.0000   1.0000
     1.0000   1.0000   1.0000   1.0000   1.0000   1.0000   1.0000   1.0000
     1.0000   1.0000   1.0000   1.0000   1.0000   1.0000   1.0000   1.0000
     1.0000   1.0000   1.0000   1.0000   1.0000   1.0000   1.0000   1.0000
     1.0000   1.0000   1.0000   1.0000   1.0000   1.0000   1.0000   1.0000

          k = 0.1667 0.4949 0.4532 (  3918 PWs)   bands (ev):

   -13.1228 -13.1150 -13.1143 -13.1110 -13.1072 -13.1063 -13.1049 -13.1033
   -13.0926 -13.0880 -13.0852 -13.0826 -13.0736 -13.0688 -13.0491 -13.0450
   -13.0418 -13.0365 -13.0239 -13.0187  -5.3865  -5.0869  -4.4676  -4.1170
     0.3782   1.3585   1.9125   2.2989   3.6155   4.0601   4.3982   5.3605
     5.5428   6.0818   6.1604   6.4509   7.0255   7.2018   7.6236   7.8072

     occupation numbers 
     1.0000   1.0000   1.0000   1.0000   1.0000   1.0000   1.0000   1.0000
     1.0000   1.0000   1.0000   1.0000   1.0000   1.0000   1.0000   1.0000
     1.0000   1.0000   1.0000   1.0000   1.0000   1.0000   1.0000   1.0000
     1.0000   1.0000   1.0000   1.0000   1.0000   1.0000   1.0000   1.0000
     1.0000   1.0000   1.0000   1.0000   1.0000   1.0000   1.0000   1.0000

          k = 0.1667 0.4949 0.7553 (  3914 PWs)   bands (ev):

   -13.1223 -13.1170 -13.1149 -13.1124 -13.1084 -13.1060 -13.1052 -13.1028
   -13.0914 -13.0886 -13.0814 -13.0789 -13.0742 -13.0697 -13.0482 -13.0452
   -13.0419 -13.0382 -13.0228 -13.0193  -5.1766  -4.8986  -4.5162  -4.2184
     0.2263   1.0332   1.6326   2.0779   3.8665   4.0166   4.3501   5.2223
     5.3689   6.0372   6.1739   6.6799   6.9284   7.2403   7.4726   7.8274

     occupation numbers 
     1.0000   1.0000   1.0000   1.0000   1.0000   1.0000   1.0000   1.0000
     1.0000   1.0000   1.0000   1.0000   1.0000   1.0000   1.0000   1.0000
     1.0000   1.0000   1.0000   1.0000   1.0000   1.0000   1.0000   1.0000
     1.0000   1.0000   1.0000   1.0000   1.0000   1.0000   1.0000   1.0000
     1.0000   1.0000   1.0000   1.0000   1.0000   1.0000   1.0000   1.0000

          k = 0.1667 0.4949 1.0574 (  3899 PWs)   bands (ev):

   -13.1214 -13.1197 -13.1146 -13.1137 -13.1084 -13.1072 -13.1039 -13.1030
   -13.0903 -13.0894 -13.0777 -13.0754 -13.0749 -13.0718 -13.0470 -13.0459
   -13.0413 -13.0399 -13.0215 -13.0203  -4.9247  -4.7411  -4.5780  -4.3916
     0.2565   0.5513   1.6436   1.8184   4.1779   4.2531   4.5614   4.8707
     5.2310   5.5317   6.2281   6.5068   6.9558   7.2361   7.5336   7.7478

     occupation numbers 
     1.0000   1.0000   1.0000   1.0000   1.0000   1.0000   1.0000   1.0000
     1.0000   1.0000   1.0000   1.0000   1.0000   1.0000   1.0000   1.0000
     1.0000   1.0000   1.0000   1.0000   1.0000   1.0000   1.0000   1.0000
     1.0000   1.0000   1.0000   1.0000   1.0000   1.0000   1.0000   1.0000
     1.0000   1.0000   1.0000   1.0000   1.0000   1.0000   1.0000   1.0000

          k = 0.1667 0.8248 0.1511 (  3933 PWs)   bands (ev):

   -13.1198 -13.1174 -13.1165 -13.1152 -13.1040 -13.1020 -13.1000 -13.0987
   -13.0929 -13.0895 -13.0831 -13.0810 -13.0724 -13.0695 -13.0548 -13.0524
   -13.0375 -13.0325 -13.0250 -13.0216  -5.1952  -4.9430  -4.4087  -4.1832
     0.3645   1.1341   1.4459   1.9319   3.8221   4.5727   4.9652   5.3787
     5.6735   5.8094   6.2224   6.4245   6.7347   7.2908   7.4179   7.8368

     occupation numbers 
     1.0000   1.0000   1.0000   1.0000   1.0000   1.0000   1.0000   1.0000
     1.0000   1.0000   1.0000   1.0000   1.0000   1.0000   1.0000   1.0000
     1.0000   1.0000   1.0000   1.0000   1.0000   1.0000   1.0000   1.0000
     1.0000   1.0000   1.0000   1.0000   1.0000   1.0000   1.0000   1.0000
     1.0000   1.0000   1.0000   1.0000   1.0000   1.0000   1.0000   1.0000

          k = 0.1667 0.8248 0.4532 (  3929 PWs)   bands (ev):

   -13.1230 -13.1195 -13.1177 -13.1158 -13.1041 -13.1010 -13.0995 -13.0984
   -13.0917 -13.0896 -13.0814 -13.0793 -13.0731 -13.0689 -13.0542 -13.0523
   -13.0376 -13.0333 -13.0244 -13.0215  -5.0932  -4.8530  -4.4032  -4.1925
     0.4072   1.2262   1.4873   1.8071   3.8082   3.9280   4.3412   5.0363
     5.4670   5.9833   6.0316   6.5404   6.6061   7.1428   7.2823   7.6104

     occupation numbers 
     1.0000   1.0000   1.0000   1.0000   1.0000   1.0000   1.0000   1.0000
     1.0000   1.0000   1.0000   1.0000   1.0000   1.0000   1.0000   1.0000
     1.0000   1.0000   1.0000   1.0000   1.0000   1.0000   1.0000   1.0000
     1.0000   1.0000   1.0000   1.0000   1.0000   1.0000   1.0000   1.0000
     1.0000   1.0000   1.0000   1.0000   1.0000   1.0000   1.0000   1.0000

          k = 0.1667 0.8248 0.7553 (  3918 PWs)   bands (ev):

   -13.1262 -13.1234 -13.1190 -13.1176 -13.1036 -13.1000 -13.0995 -13.0981
   -13.0904 -13.0896 -13.0786 -13.0767 -13.0731 -13.0691 -13.0533 -13.0520
   -13.0374 -13.0345 -13.0235 -13.0215  -4.9145  -4.6982  -4.4227  -4.2337
     0.4788   1.1642   1.5648   1.7407   3.4311   3.7997   4.2275   4.5597
     4.9657   5.4392   5.7742   6.1772   6.5042   6.8678   7.1806   7.5828

     occupation numbers 
     1.0000   1.0000   1.0000   1.0000   1.0000   1.0000   1.0000   1.0000
     1.0000   1.0000   1.0000   1.0000   1.0000   1.0000   1.0000   1.0000
     1.0000   1.0000   1.0000   1.0000   1.0000   1.0000   1.0000   1.0000
     1.0000   1.0000   1.0000   1.0000   1.0000   1.0000   1.0000   1.0000
     1.0000   1.0000   1.0000   1.0000   1.0000   1.0000   1.0000   1.0000

          k = 0.1667 0.8248 1.0574 (  3909 PWs)   bands (ev):

   -13.1276 -13.1266 -13.1199 -13.1193 -13.1024 -13.1009 -13.0987 -13.0981
   -13.0897 -13.0895 -13.0761 -13.0751 -13.0721 -13.0703 -13.0525 -13.0520
   -13.0367 -13.0357 -13.0226 -13.0218  -4.7108  -4.5732  -4.4569  -4.3311
     0.6110   0.8598   1.6978   1.7521   3.4530   3.7995   3.9506   4.2970
     4.7457   5.0851   5.5675   5.9408   6.2198   6.5154   7.2766   7.3903

     occupation numbers 
     1.0000   1.0000   1.0000   1.0000   1.0000   1.0000   1.0000   1.0000
     1.0000   1.0000   1.0000   1.0000   1.0000   1.0000   1.0000   1.0000
     1.0000   1.0000   1.0000   1.0000   1.0000   1.0000   1.0000   1.0000
     1.0000   1.0000   1.0000   1.0000   1.0000   1.0000   1.0000   1.0000
     1.0000   1.0000   1.0000   1.0000   1.0000   1.0000   1.0000   1.0000

          k = 0.1667 1.1547 0.1511 (  3935 PWs)   bands (ev):

   -13.1225 -13.1213 -13.1185 -13.1175 -13.0993 -13.0979 -13.0969 -13.0949
   -13.0879 -13.0876 -13.0840 -13.0801 -13.0715 -13.0658 -13.0621 -13.0604
   -13.0317 -13.0291 -13.0262 -13.0259  -4.8067  -4.6626  -4.4612  -4.4354
     0.3817   0.7492   1.1101   1.4158   4.3263   4.7495   5.1736   5.5547
     5.7539   5.7797   6.2200   6.5710   6.8486   7.1289   7.1754   7.3600

     occupation numbers 
     1.0000   1.0000   1.0000   1.0000   1.0000   1.0000   1.0000   1.0000
     1.0000   1.0000   1.0000   1.0000   1.0000   1.0000   1.0000   1.0000
     1.0000   1.0000   1.0000   1.0000   1.0000   1.0000   1.0000   1.0000
     1.0000   1.0000   1.0000   1.0000   1.0000   1.0000   1.0000   1.0000
     1.0000   1.0000   1.0000   1.0000   1.0000   1.0000   1.0000   1.0000

          k = 0.1667 1.1547 0.4532 (  3938 PWs)   bands (ev):

   -13.1257 -13.1245 -13.1199 -13.1190 -13.0999 -13.0981 -13.0957 -13.0944
   -13.0871 -13.0866 -13.0827 -13.0794 -13.0710 -13.0667 -13.0603 -13.0594
   -13.0320 -13.0301 -13.0256 -13.0251  -4.7318  -4.5994  -4.4308  -4.4005
     0.5283   0.8862   1.2201   1.4361   4.0756   4.2573   4.5595   4.8363
     5.1343   5.5515   6.1011   6.2944   6.4258   6.7017   7.3221   7.5575

     occupation numbers 
     1.0000   1.0000   1.0000   1.0000   1.0000   1.0000   1.0000   1.0000
     1.0000   1.0000   1.0000   1.0000   1.0000   1.0000   1.0000   1.0000
     1.0000   1.0000   1.0000   1.0000   1.0000   1.0000   1.0000   1.0000
     1.0000   1.0000   1.0000   1.0000   1.0000   1.0000   1.0000   1.0000
     1.0000   1.0000   1.0000   1.0000   1.0000   1.0000   1.0000   1.0000

          k = 0.1667 1.1547 0.7553 (  3915 PWs)   bands (ev):

   -13.1298 -13.1288 -13.1220 -13.1214 -13.1001 -13.0986 -13.0945 -13.0937
   -13.0862 -13.0854 -13.0808 -13.0785 -13.0698 -13.0674 -13.0584 -13.0579
   -13.0323 -13.0310 -13.0248 -13.0243  -4.6093  -4.4995  -4.3974  -4.3579
     0.7783   1.0997   1.3843   1.4538   3.4369   3.8967   4.0194   4.2848
     4.7334   5.0245   5.4702   5.9202   6.0515   6.2939   7.2273   7.3461

     occupation numbers 
     1.0000   1.0000   1.0000   1.0000   1.0000   1.0000   1.0000   1.0000
     1.0000   1.0000   1.0000   1.0000   1.0000   1.0000   1.0000   1.0000
     1.0000   1.0000   1.0000   1.0000   1.0000   1.0000   1.0000   1.0000
     1.0000   1.0000   1.0000   1.0000   1.0000   1.0000   1.0000   1.0000
     1.0000   1.0000   1.0000   1.0000   1.0000   1.0000   1.0000   1.0000

          k = 0.1667 1.1547 1.0574 (  3904 PWs)   bands (ev):

   -13.1323 -13.1319 -13.1234 -13.1233 -13.0999 -13.0993 -13.0937 -13.0934
   -13.0854 -13.0850 -13.0791 -13.0782 -13.0686 -13.0678 -13.0572 -13.0570
   -13.0322 -13.0317 -13.0241 -13.0240  -4.4880  -4.4265  -4.3833  -4.3471
     1.0310   1.1776   1.4945   1.5359   3.1892   3.3970   3.8060   3.9113
     4.5611   4.6050   5.1198   5.4545   6.0133   6.1975   7.0530   7.1127

     occupation numbers 
     1.0000   1.0000   1.0000   1.0000   1.0000   1.0000   1.0000   1.0000
     1.0000   1.0000   1.0000   1.0000   1.0000   1.0000   1.0000   1.0000
     1.0000   1.0000   1.0000   1.0000   1.0000   1.0000   1.0000   1.0000
     1.0000   1.0000   1.0000   1.0000   1.0000   1.0000   1.0000   1.0000
     1.0000   1.0000   1.0000   1.0000   1.0000   1.0000   1.0000   1.0000

          k =-0.5000 0.1650 0.1511 (  3914 PWs)   bands (ev):

   -13.1235 -13.1235 -13.1094 -13.1094 -13.1090 -13.1090 -13.1013 -13.1013
   -13.0905 -13.0905 -13.0893 -13.0893 -13.0708 -13.0708 -13.0462 -13.0462
   -13.0380 -13.0380 -13.0202 -13.0202  -5.5334  -5.5334  -4.2546  -4.2546
     0.9970   0.9970   2.8872   2.8872   4.0937   4.0937   4.9437   4.9437
     5.5356   5.5356   6.1518   6.1518   6.5207   6.5207   7.6557   7.6557

     occupation numbers 
     1.0000   1.0000   1.0000   1.0000   1.0000   1.0000   1.0000   1.0000
     1.0000   1.0000   1.0000   1.0000   1.0000   1.0000   1.0000   1.0000
     1.0000   1.0000   1.0000   1.0000   1.0000   1.0000   1.0000   1.0000
     1.0000   1.0000   1.0000   1.0000   1.0000   1.0000   1.0000   1.0000
     1.0000   1.0000   1.0000   1.0000   1.0000   1.0000   1.0000   1.0000

          k =-0.5000 0.1650 0.4532 (  3906 PWs)   bands (ev):

   -13.1223 -13.1223 -13.1102 -13.1102 -13.1088 -13.1088 -13.1026 -13.1026
   -13.0889 -13.0889 -13.0876 -13.0876 -13.0713 -13.0713 -13.0459 -13.0459
   -13.0390 -13.0390 -13.0201 -13.0201  -5.4160  -5.4160  -4.2874  -4.2874
     0.7330   0.7330   2.4084   2.4084   4.3614   4.3614   5.0361   5.0361
     5.7321   5.7321   6.3122   6.3122   6.9445   6.9445   7.5785   7.5785

     occupation numbers 
     1.0000   1.0000   1.0000   1.0000   1.0000   1.0000   1.0000   1.0000
     1.0000   1.0000   1.0000   1.0000   1.0000   1.0000   1.0000   1.0000
     1.0000   1.0000   1.0000   1.0000   1.0000   1.0000   1.0000   1.0000
     1.0000   1.0000   1.0000   1.0000   1.0000   1.0000   1.0000   1.0000
     1.0000   1.0000   1.0000   1.0000   1.0000   1.0000   1.0000   1.0000

          k =-0.5000 0.1650 0.7553 (  3916 PWs)   bands (ev):

   -13.1203 -13.1203 -13.1119 -13.1119 -13.1083 -13.1083 -13.1045 -13.1045
   -13.0880 -13.0880 -13.0836 -13.0836 -13.0726 -13.0726 -13.0452 -13.0452
   -13.0405 -13.0405 -13.0201 -13.0201  -5.2056  -5.2056  -4.3804  -4.3804
     0.4356   0.4356   1.8555   1.8555   4.6908   4.6908   5.3284   5.3284
     5.8645   5.8645   6.5012   6.5012   7.1646   7.1646   7.7051   7.7051

     occupation numbers 
     1.0000   1.0000   1.0000   1.0000   1.0000   1.0000   1.0000   1.0000
     1.0000   1.0000   1.0000   1.0000   1.0000   1.0000   1.0000   1.0000
     1.0000   1.0000   1.0000   1.0000   1.0000   1.0000   1.0000   1.0000
     1.0000   1.0000   1.0000   1.0000   1.0000   1.0000   1.0000   1.0000
     1.0000   1.0000   1.0000   1.0000   1.0000   1.0000   1.0000   1.0000

          k =-0.5000 0.1650 1.0574 (  3892 PWs)   bands (ev):

   -13.1186 -13.1186 -13.1132 -13.1132 -13.1082 -13.1082 -13.1058 -13.1058
   -13.0875 -13.0875 -13.0797 -13.0797 -13.0743 -13.0743 -13.0441 -13.0441
   -13.0421 -13.0421 -13.0201 -13.0201  -4.9735  -4.9735  -4.5324  -4.5324
     0.2779   0.2779   1.4890   1.4890   5.1001   5.1001   5.6282   5.6282
     5.7145   5.7145   6.3625   6.3625   7.4942   7.4942   7.7920   7.7920

     occupation numbers 
     1.0000   1.0000   1.0000   1.0000   1.0000   1.0000   1.0000   1.0000
     1.0000   1.0000   1.0000   1.0000   1.0000   1.0000   1.0000   1.0000
     1.0000   1.0000   1.0000   1.0000   1.0000   1.0000   1.0000   1.0000
     1.0000   1.0000   1.0000   1.0000   1.0000   1.0000   1.0000   1.0000
     1.0000   1.0000   1.0000   1.0000   1.0000   1.0000   1.0000   1.0000

          k =-0.5000 0.4949 0.1511 (  3914 PWs)   bands (ev):

   -13.1191 -13.1191 -13.1120 -13.1120 -13.1061 -13.1061 -13.1040 -13.1040
   -13.0907 -13.0907 -13.0865 -13.0865 -13.0706 -13.0706 -13.0477 -13.0477
   -13.0380 -13.0380 -13.0214 -13.0214  -5.3756  -5.3756  -4.2397  -4.2397
     0.8525   0.8525   2.3858   2.3858   4.2163   4.2163   4.8646   4.8646
     5.8070   5.8070   6.0148   6.0148   6.6683   6.6683   7.7960   7.7960

     occupation numbers 
     1.0000   1.0000   1.0000   1.0000   1.0000   1.0000   1.0000   1.0000
     1.0000   1.0000   1.0000   1.0000   1.0000   1.0000   1.0000   1.0000
     1.0000   1.0000   1.0000   1.0000   1.0000   1.0000   1.0000   1.0000
     1.0000   1.0000   1.0000   1.0000   1.0000   1.0000   1.0000   1.0000
     1.0000   1.0000   1.0000   1.0000   1.0000   1.0000   1.0000   1.0000

          k =-0.5000 0.4949 0.4532 (  3922 PWs)   bands (ev):

   -13.1192 -13.1192 -13.1131 -13.1131 -13.1065 -13.1065 -13.1037 -13.1037
   -13.0904 -13.0904 -13.0841 -13.0841 -13.0710 -13.0710 -13.0475 -13.0475
   -13.0387 -13.0387 -13.0212 -13.0212  -5.2645  -5.2645  -4.2637  -4.2637
     0.7420   0.7420   2.1425   2.1425   4.1370   4.1370   4.8207   4.8207
     5.4989   5.4989   6.4114   6.4114   7.0203   7.0203   7.6929   7.6929

     occupation numbers 
     1.0000   1.0000   1.0000   1.0000   1.0000   1.0000   1.0000   1.0000
     1.0000   1.0000   1.0000   1.0000   1.0000   1.0000   1.0000   1.0000
     1.0000   1.0000   1.0000   1.0000   1.0000   1.0000   1.0000   1.0000
     1.0000   1.0000   1.0000   1.0000   1.0000   1.0000   1.0000   1.0000
     1.0000   1.0000   1.0000   1.0000   1.0000   1.0000   1.0000   1.0000

          k =-0.5000 0.4949 0.7553 (  3920 PWs)   bands (ev):

   -13.1193 -13.1193 -13.1152 -13.1152 -13.1063 -13.1063 -13.1034 -13.1034
   -13.0901 -13.0901 -13.0802 -13.0802 -13.0720 -13.0720 -13.0472 -13.0472
   -13.0397 -13.0397 -13.0209 -13.0209  -5.0676  -5.0676  -4.3375  -4.3375
     0.5720   0.5720   1.8226   1.8226   4.1207   4.1207   4.9788   4.9788
     5.3344   5.3344   6.5336   6.5336   6.8818   6.8818   7.6394   7.6394

     occupation numbers 
     1.0000   1.0000   1.0000   1.0000   1.0000   1.0000   1.0000   1.0000
     1.0000   1.0000   1.0000   1.0000   1.0000   1.0000   1.0000   1.0000
     1.0000   1.0000   1.0000   1.0000   1.0000   1.0000   1.0000   1.0000
     1.0000   1.0000   1.0000   1.0000   1.0000   1.0000   1.0000   1.0000
     1.0000   1.0000   1.0000   1.0000   1.0000   1.0000   1.0000   1.0000

          k =-0.5000 0.4949 1.0574 (  3906 PWs)   bands (ev):

   -13.1192 -13.1192 -13.1171 -13.1171 -13.1058 -13.1058 -13.1035 -13.1035
   -13.0899 -13.0899 -13.0765 -13.0765 -13.0736 -13.0736 -13.0470 -13.0470
   -13.0404 -13.0404 -13.0206 -13.0206  -4.8543  -4.8543  -4.4645  -4.4645
     0.4568   0.4568   1.5891   1.5891   4.3586   4.3586   4.7914   4.7914
     5.5446   5.5446   6.2029   6.2029   6.8462   6.8462   7.4782   7.4782

     occupation numbers 
     1.0000   1.0000   1.0000   1.0000   1.0000   1.0000   1.0000   1.0000
     1.0000   1.0000   1.0000   1.0000   1.0000   1.0000   1.0000   1.0000
     1.0000   1.0000   1.0000   1.0000   1.0000   1.0000   1.0000   1.0000
     1.0000   1.0000   1.0000   1.0000   1.0000   1.0000   1.0000   1.0000
     1.0000   1.0000   1.0000   1.0000   1.0000   1.0000   1.0000   1.0000

          k =-0.5000 0.8248 0.1511 (  3922 PWs)   bands (ev):

   -13.1193 -13.1193 -13.1151 -13.1151 -13.1023 -13.1023 -13.1004 -13.1004
   -13.0909 -13.0909 -13.0823 -13.0823 -13.0707 -13.0707 -13.0538 -13.0538
   -13.0348 -13.0348 -13.0232 -13.0232  -5.0898  -5.0898  -4.2741  -4.2741
     0.6752   0.6752   1.6774   1.6774   4.4935   4.4935   5.0520   5.0520
     5.9518   5.9518   6.1164   6.1164   6.6507   6.6507   7.6181   7.6181

     occupation numbers 
     1.0000   1.0000   1.0000   1.0000   1.0000   1.0000   1.0000   1.0000
     1.0000   1.0000   1.0000   1.0000   1.0000   1.0000   1.0000   1.0000
     1.0000   1.0000   1.0000   1.0000   1.0000   1.0000   1.0000   1.0000
     1.0000   1.0000   1.0000   1.0000   1.0000   1.0000   1.0000   1.0000
     1.0000   1.0000   1.0000   1.0000   1.0000   1.0000   1.0000   1.0000

          k =-0.5000 0.8248 0.4532 (  3928 PWs)   bands (ev):

   -13.1211 -13.1211 -13.1172 -13.1172 -13.1020 -13.1020 -13.0993 -13.0993
   -13.0906 -13.0906 -13.0805 -13.0805 -13.0707 -13.0707 -13.0537 -13.0537
   -13.0350 -13.0350 -13.0230 -13.0230  -4.9937  -4.9937  -4.2767  -4.2767
     0.7386   0.7386   1.6500   1.6500   4.0075   4.0075   4.9063   4.9063
     5.3832   5.3832   6.3550   6.3550   6.6046   6.6046   7.5348   7.5348

     occupation numbers 
     1.0000   1.0000   1.0000   1.0000   1.0000   1.0000   1.0000   1.0000
     1.0000   1.0000   1.0000   1.0000   1.0000   1.0000   1.0000   1.0000
     1.0000   1.0000   1.0000   1.0000   1.0000   1.0000   1.0000   1.0000
     1.0000   1.0000   1.0000   1.0000   1.0000   1.0000   1.0000   1.0000
     1.0000   1.0000   1.0000   1.0000   1.0000   1.0000   1.0000   1.0000

          k =-0.5000 0.8248 0.7553 (  3930 PWs)   bands (ev):

   -13.1236 -13.1236 -13.1201 -13.1201 -13.1012 -13.1012 -13.0985 -13.0985
   -13.0902 -13.0902 -13.0780 -13.0780 -13.0706 -13.0706 -13.0535 -13.0535
   -13.0353 -13.0353 -13.0225 -13.0225  -4.8281  -4.8281  -4.3066  -4.3066
     0.7854   0.7854   1.6274   1.6274   3.6757   3.6757   4.5510   4.5510
     5.1181   5.1181   5.8519   5.8519   6.5751   6.5751   7.4479   7.4479

     occupation numbers 
     1.0000   1.0000   1.0000   1.0000   1.0000   1.0000   1.0000   1.0000
     1.0000   1.0000   1.0000   1.0000   1.0000   1.0000   1.0000   1.0000
     1.0000   1.0000   1.0000   1.0000   1.0000   1.0000   1.0000   1.0000
     1.0000   1.0000   1.0000   1.0000   1.0000   1.0000   1.0000   1.0000
     1.0000   1.0000   1.0000   1.0000   1.0000   1.0000   1.0000   1.0000

          k =-0.5000 0.8248 1.0574 (  3918 PWs)   bands (ev):

   -13.1251 -13.1251 -13.1222 -13.1222 -13.1003 -13.1003 -13.0986 -13.0986
   -13.0900 -13.0900 -13.0763 -13.0763 -13.0703 -13.0703 -13.0533 -13.0533
   -13.0355 -13.0355 -13.0222 -13.0222  -4.6572  -4.6572  -4.3793  -4.3793
     0.7694   0.7694   1.6458   1.6458   3.6884   3.6884   4.0664   4.0664
     5.1282   5.1282   5.4578   5.4578   6.6118   6.6118   7.1444   7.1444

     occupation numbers 
     1.0000   1.0000   1.0000   1.0000   1.0000   1.0000   1.0000   1.0000
     1.0000   1.0000   1.0000   1.0000   1.0000   1.0000   1.0000   1.0000
     1.0000   1.0000   1.0000   1.0000   1.0000   1.0000   1.0000   1.0000
     1.0000   1.0000   1.0000   1.0000   1.0000   1.0000   1.0000   1.0000
     1.0000   1.0000   1.0000   1.0000   1.0000   1.0000   1.0000   1.0000

          k =-0.5000 1.1547 0.1511 (  3952 PWs)   bands (ev):

   -13.1209 -13.1209 -13.1194 -13.1194 -13.0977 -13.0977 -13.0970 -13.0970
   -13.0871 -13.0871 -13.0821 -13.0821 -13.0682 -13.0682 -13.0618 -13.0618
   -13.0303 -13.0303 -13.0261 -13.0261  -4.7433  -4.7433  -4.4405  -4.4405
     0.6956   0.6956   1.0506   1.0506   4.9500   4.9500   5.3096   5.3096
     5.8246   5.8246   6.0856   6.0856   6.7703   6.7703   7.1770   7.1770

     occupation numbers 
     1.0000   1.0000   1.0000   1.0000   1.0000   1.0000   1.0000   1.0000
     1.0000   1.0000   1.0000   1.0000   1.0000   1.0000   1.0000   1.0000
     1.0000   1.0000   1.0000   1.0000   1.0000   1.0000   1.0000   1.0000
     1.0000   1.0000   1.0000   1.0000   1.0000   1.0000   1.0000   1.0000
     1.0000   1.0000   1.0000   1.0000   1.0000   1.0000   1.0000   1.0000

          k =-0.5000 1.1547 0.4532 (  3938 PWs)   bands (ev):

   -13.1232 -13.1232 -13.1217 -13.1217 -13.0976 -13.0976 -13.0966 -13.0966
   -13.0864 -13.0864 -13.0814 -13.0814 -13.0675 -13.0675 -13.0611 -13.0611
   -13.0302 -13.0302 -13.0259 -13.0259  -4.6739  -4.6739  -4.4081  -4.4081
     0.8249   0.8249   1.1433   1.1433   4.2800   4.2800   4.8289   4.8289
     5.4150   5.4150   5.8579   5.8579   6.7059   6.7059   7.1529   7.1529

     occupation numbers 
     1.0000   1.0000   1.0000   1.0000   1.0000   1.0000   1.0000   1.0000
     1.0000   1.0000   1.0000   1.0000   1.0000   1.0000   1.0000   1.0000
     1.0000   1.0000   1.0000   1.0000   1.0000   1.0000   1.0000   1.0000
     1.0000   1.0000   1.0000   1.0000   1.0000   1.0000   1.0000   1.0000
     1.0000   1.0000   1.0000   1.0000   1.0000   1.0000   1.0000   1.0000

          k =-0.5000 1.1547 0.7553 (  3926 PWs)   bands (ev):

   -13.1264 -13.1264 -13.1250 -13.1250 -13.0973 -13.0973 -13.0962 -13.0962
   -13.0854 -13.0854 -13.0804 -13.0804 -13.0662 -13.0662 -13.0602 -13.0602
   -13.0302 -13.0302 -13.0256 -13.0256  -4.5627  -4.5627  -4.3697  -4.3697
     1.0140   1.0140   1.2995   1.2995   3.7310   3.7310   4.2493   4.2493
     4.8379   4.8379   5.3049   5.3049   6.6818   6.6818   7.0600   7.0600

     occupation numbers 
     1.0000   1.0000   1.0000   1.0000   1.0000   1.0000   1.0000   1.0000
     1.0000   1.0000   1.0000   1.0000   1.0000   1.0000   1.0000   1.0000
     1.0000   1.0000   1.0000   1.0000   1.0000   1.0000   1.0000   1.0000
     1.0000   1.0000   1.0000   1.0000   1.0000   1.0000   1.0000   1.0000
     1.0000   1.0000   1.0000   1.0000   1.0000   1.0000   1.0000   1.0000

          k =-0.5000 1.1547 1.0574 (  3908 PWs)   bands (ev):

   -13.1285 -13.1285 -13.1273 -13.1273 -13.0971 -13.0971 -13.0963 -13.0963
   -13.0848 -13.0848 -13.0797 -13.0797 -13.0651 -13.0651 -13.0595 -13.0595
   -13.0301 -13.0301 -13.0254 -13.0254  -4.4627  -4.4627  -4.3599  -4.3599
     1.1274   1.1274   1.4591   1.4591   3.5598   3.5598   3.8033   3.8033
     4.4947   4.4947   4.7669   4.7669   6.7925   6.7925   6.9840   6.9840

     occupation numbers 
     1.0000   1.0000   1.0000   1.0000   1.0000   1.0000   1.0000   1.0000
     1.0000   1.0000   1.0000   1.0000   1.0000   1.0000   1.0000   1.0000
     1.0000   1.0000   1.0000   1.0000   1.0000   1.0000   1.0000   1.0000
     1.0000   1.0000   1.0000   1.0000   1.0000   1.0000   1.0000   1.0000
     1.0000   1.0000   1.0000   1.0000   1.0000   1.0000   1.0000   1.0000

     highest occupied level (ev):     8.0635

!    total energy              =    -827.72521513 Ry
     estimated scf accuracy    <          5.3E-09 Ry

     The total energy is the sum of the following terms:
     one-electron contribution =    -256.47773441 Ry
     hartree contribution      =     179.23294805 Ry
     xc contribution           =    -309.20918109 Ry
     ewald contribution        =    -441.14742175 Ry
     DFT-D3 Dispersion         =      -0.12382593 Ry

     convergence has been achieved in   9 iterations

     Forces acting on atoms (cartesian axes, Ry/au):

     atom    1 type  2   force =     0.01887313    0.00000000    0.00229969
     atom    2 type  1   force =    -0.01906517    0.00000000   -0.00031867
     atom    3 type  2   force =    -0.01887313    0.00000000    0.00229969
     atom    4 type  1   force =     0.01906517    0.00000000   -0.00031867
     atom    5 type  2   force =     0.01887313    0.00000000   -0.00229969
     atom    6 type  1   force =    -0.01906517   -0.00000000    0.00031867
     atom    7 type  2   force =    -0.01887313    0.00000000   -0.00229969
     atom    8 type  1   force =     0.01906517    0.00000000    0.00031867
     The non-local contrib.  to forces
     atom    1 type  2   force =    -0.10810491    0.00000000    0.11315055
     atom    2 type  1   force =     0.35578544    0.00000000    0.30480951
     atom    3 type  2   force =     0.10810491    0.00000000    0.11315055
     atom    4 type  1   force =    -0.35578544    0.00000000    0.30480951
     atom    5 type  2   force =    -0.10810491    0.00000000   -0.11315055
     atom    6 type  1   force =     0.35578544    0.00000000   -0.30480951
     atom    7 type  2   force =     0.10810491    0.00000000   -0.11315055
     atom    8 type  1   force =    -0.35578544    0.00000000   -0.30480951
     The ionic contribution  to forces
     atom    1 type  2   force =     1.50425110   -0.00000000   -1.12456517
     atom    2 type  1   force =    -0.70046585    0.00000000   -0.52518868
     atom    3 type  2   force =    -1.50425110    0.00000000   -1.12456517
     atom    4 type  1   force =     0.70046585   -0.00000000   -0.52518868
     atom    5 type  2   force =     1.50425110    0.00000000    1.12456517
     atom    6 type  1   force =    -0.70046585    0.00000000    0.52518868
     atom    7 type  2   force =    -1.50425110   -0.00000000    1.12456517
     atom    8 type  1   force =     0.70046585   -0.00000000    0.52518868
     The local contribution  to forces
     atom    1 type  2   force =    -1.38798143    0.00000000    1.02519857
     atom    2 type  1   force =     0.33026188    0.00000000    0.22468902
     atom    3 type  2   force =     1.38798143    0.00000000    1.02519857
     atom    4 type  1   force =    -0.33026188    0.00000000    0.22468902
     atom    5 type  2   force =    -1.38798143    0.00000000   -1.02519857
     atom    6 type  1   force =     0.33026188    0.00000000   -0.22468902
     atom    7 type  2   force =     1.38798143    0.00000000   -1.02519857
     atom    8 type  1   force =    -0.33026188    0.00000000   -0.22468902
     The core correction contribution to forces
     atom    1 type  2   force =     0.01166208   -0.00000000   -0.01283895
     atom    2 type  1   force =    -0.00401789   -0.00000000   -0.00568569
     atom    3 type  2   force =    -0.01166208   -0.00000000   -0.01283895
     atom    4 type  1   force =     0.00401789    0.00000000   -0.00568569
     atom    5 type  2   force =     0.01166208   -0.00000000    0.01283895
     atom    6 type  1   force =    -0.00401789    0.00000000    0.00568569
     atom    7 type  2   force =    -0.01166208   -0.00000000    0.01283895
     atom    8 type  1   force =     0.00401789    0.00000000    0.00568569
     The Hubbard contrib.    to forces
     atom    1 type  2   force =     0.00000000    0.00000000    0.00000000
     atom    2 type  1   force =     0.00000000    0.00000000    0.00000000
     atom    3 type  2   force =     0.00000000    0.00000000    0.00000000
     atom    4 type  1   force =     0.00000000    0.00000000    0.00000000
     atom    5 type  2   force =     0.00000000    0.00000000    0.00000000
     atom    6 type  1   force =     0.00000000    0.00000000    0.00000000
     atom    7 type  2   force =     0.00000000    0.00000000    0.00000000
     atom    8 type  1   force =     0.00000000    0.00000000    0.00000000
     The SCF correction term to forces
     atom    1 type  2   force =    -0.00001462    0.00000000   -0.00001268
     atom    2 type  1   force =     0.00005221   -0.00000000   -0.00000378
     atom    3 type  2   force =     0.00001462    0.00000000   -0.00001268
     atom    4 type  1   force =    -0.00005221   -0.00000000   -0.00000378
     atom    5 type  2   force =    -0.00001462    0.00000000    0.00001268
     atom    6 type  1   force =     0.00005221    0.00000000    0.00000378
     atom    7 type  2   force =     0.00001462   -0.00000000    0.00001268
     atom    8 type  1   force =    -0.00005221   -0.00000000    0.00000378

     DFT-D3 dispersion contribution to forces:
     atom    1 type  2   force =    -0.00093909   -0.00000000    0.00136738
     atom    2 type  1   force =    -0.00068096   -0.00000000    0.00106094
     atom    3 type  2   force =     0.00093909   -0.00000000    0.00136738
     atom    4 type  1   force =     0.00068096    0.00000000    0.00106094
     atom    5 type  2   force =    -0.00093909    0.00000000   -0.00136738
     atom    6 type  1   force =    -0.00068096   -0.00000000   -0.00106094
     atom    7 type  2   force =     0.00093909   -0.00000000   -0.00136738
     atom    8 type  1   force =     0.00068096    0.00000000   -0.00106094

     Total force =     0.053854     Total SCF correction =     0.000112

     DFT-D3 dispersion Force =     0.004167

     Writing all to output data dir ./tmp/SnSe_pnma.save/ :
     XML data file, charge density, pseudopotentials, collected wavefunctions
 
     init_run     :      1.13s CPU      1.27s WALL (       1 calls)
     electrons    :     17.94s CPU     19.01s WALL (       1 calls)
     forces       :      0.48s CPU      0.55s WALL (       1 calls)
     force_dftd3  :      0.05s CPU      0.06s WALL (       1 calls)

     Called by init_run:
     wfcinit      :      0.66s CPU      0.69s WALL (       1 calls)
     wfcinit:atom :      0.01s CPU      0.01s WALL (      11 calls)
     wfcinit:wfcr :      0.57s CPU      0.58s WALL (      11 calls)
     potinit      :      0.09s CPU      0.11s WALL (       1 calls)
     hinit0       :      0.19s CPU      0.20s WALL (       1 calls)

     Called by electrons:
     c_bands      :     12.99s CPU     13.14s WALL (       9 calls)
     sum_band     :      3.07s CPU      3.62s WALL (       9 calls)
     v_of_rho     :      0.56s CPU      0.59s WALL (      10 calls)
     v_h          :      0.04s CPU      0.04s WALL (      10 calls)
     v_xc         :      0.58s CPU      0.61s WALL (      11 calls)
     newd         :      1.37s CPU      1.75s WALL (      10 calls)
     mix_rho      :      0.06s CPU      0.07s WALL (       9 calls)
     energy_dftd3 :      0.05s CPU      0.05s WALL (       1 calls)

     Called by c_bands:
     init_us_2    :      0.39s CPU      0.40s WALL (     220 calls)
     cegterg      :     11.22s CPU     11.33s WALL (      99 calls)

     Called by sum_band:
     sum_band:wei :      0.00s CPU      0.00s WALL (       9 calls)
     sum_band:loo :      1.73s CPU      1.75s WALL (       9 calls)
     sum_band:buf :      0.02s CPU      0.02s WALL (      99 calls)
     sum_band:ini :      0.17s CPU      0.17s WALL (      99 calls)
     sum_band:cal :      0.26s CPU      0.26s WALL (      99 calls)
     sum_band:bec :      0.01s CPU      0.01s WALL (      99 calls)
     addusdens    :      1.06s CPU      1.56s WALL (       9 calls)
                                        0.00s GPU  (       9 calls)
     addusd:skk   :      0.01s CPU      0.01s WALL (      18 calls)
                                        0.00s GPU  (      18 calls)

     Called by *egterg:
     cdiaghg      :      0.66s CPU      0.66s WALL (     417 calls)
     cegterg:over :      0.61s CPU      0.61s WALL (     318 calls)
     cegterg:upda :      0.34s CPU      0.34s WALL (     318 calls)
     cegterg:last :      0.80s CPU      0.80s WALL (     242 calls)
     h_psi        :      8.11s CPU      8.19s WALL (     428 calls)
     s_psi        :      0.87s CPU      0.88s WALL (     428 calls)
     g_psi        :      0.03s CPU      0.03s WALL (     318 calls)

     Called by h_psi:
     h_psi:calbec :      0.85s CPU      0.86s WALL (     428 calls)
     vloc_psi     :      6.28s CPU      6.34s WALL (     428 calls)
     add_vuspsi   :      0.91s CPU      0.91s WALL (     428 calls)

     General routines
     calbec       :      1.23s CPU      1.24s WALL (     571 calls)
     fft          :      0.25s CPU      0.27s WALL (     139 calls)
     ffts         :      0.01s CPU      0.01s WALL (      19 calls)
     fftw         :      5.15s CPU      5.20s WALL (   28402 calls)
     interpolate  :      0.03s CPU      0.03s WALL (      10 calls)
 
     Parallel routines
 
     PWSCF        :     19.78s CPU     21.45s WALL

 
   This run was terminated on:  15: 2:54  20May2026            

=------------------------------------------------------------------------------=
   JOB DONE.
=------------------------------------------------------------------------------=
