
     Program PWSCF v.7.3.1 starts on 20May2026 at 17:48: 4 

     This program is part of the open-source Quantum ESPRESSO suite
     for quantum simulation of materials; please cite
         "P. Giannozzi et al., J. Phys.:Condens. Matter 21 395502 (2009);
         "P. Giannozzi et al., J. Phys.:Condens. Matter 29 465901 (2017);
         "P. Giannozzi et al., J. Chem. Phys. 152 154105 (2020);
          URL http://www.quantum-espresso.org", 
     in publications or presentations arising from this work. More details at
     http://www.quantum-espresso.org/quote

     Parallel version (MPI & OpenMP), running on       6 processor cores
     Number of MPI processes:                 6
     Threads/MPI process:                     1

     MPI processes distributed on     1 nodes
     10653 MiB available memory on the printing compute node when the environment starts
 
     Waiting for input...
     Reading input from standard input

     Current dimensions of program PWSCF are:
     Max number of different atomic species (ntypx) = 10
     Max number of k-points (npk) =  40000
     Max angular momentum in pseudopotentials (lmaxx) =  4
 
     K-points division:     npool     =       3
     R & G space division:  proc/nbgrp/npool/nimage =       2
     Subspace diagonalization in iterative solution of the eigenvalue problem:
     a serial algorithm will be used

 
     Parallelization info
     --------------------
     sticks:   dense  smooth     PW     G-vecs:    dense   smooth      PW
     Min        3294    1320    380               134644    34085    5228
     Max        3295    1321    381               134645    34086    5229
     Sum        6589    2641    761               269289    68171   10457
 
     Using Slab Decomposition
 


     bravais-lattice index     =            8
     lattice parameter (alat)  =      21.0138  a.u.
     unit-cell volume          =    1425.9992 (a.u.)^3
     number of atoms/cell      =            8
     number of atomic types    =            2
     number of electrons       =        80.00
     number of Kohn-Sham states=           40
     kinetic-energy cutoff     =      50.0000  Ry
     charge density cutoff     =     500.0000  Ry
     scf convergence threshold =      1.0E-08
     mixing beta               =       0.7000
     number of iterations used =            8  plain     mixing
     Exchange-correlation= SLA  PW   PBE  PBE
                           (   1   4   3   4   0   0   0)

     celldm(1)=  21.013755  celldm(2)=   0.375126  celldm(3)=   0.409667
     celldm(4)=   0.000000  celldm(5)=   0.000000  celldm(6)=   0.000000

     crystal axes: (cart. coord. in units of alat)
               a(1) = (   1.000000   0.000000   0.000000 )  
               a(2) = (   0.000000   0.375126   0.000000 )  
               a(3) = (   0.000000   0.000000   0.409667 )  

     reciprocal axes: (cart. coord. in units 2 pi/alat)
               b(1) = (  1.000000  0.000000  0.000000 )  
               b(2) = (  0.000000  2.665772  0.000000 )  
               b(3) = (  0.000000  0.000000  2.441005 )  


     PseudoPot. # 1 for Sn read from file:
     ../pseudo/Sn_pbe_v1.uspp.F.UPF
     MD5 check sum: 4cf58ce39ec5d5d420df3dd08604eb00
     Pseudo is Ultrasoft + core correction, Zval = 14.0
     Generated by new atomic code, or converted to UPF format
     Using radial grid of  891 points,  6 beta functions with: 
                l(1) =   0
                l(2) =   0
                l(3) =   1
                l(4) =   1
                l(5) =   2
                l(6) =   2
     Q(r) pseudized with  6 coefficients,  rinner =    1.200   1.200   1.200
                                                       1.200   1.200

     PseudoPot. # 2 for Se read from file:
     ../pseudo/Se_pbe_v1.uspp.F.UPF
     MD5 check sum: 1b3568f3a8ae88f9a2a0ad0698632c85
     Pseudo is Ultrasoft + core correction, Zval =  6.0
     Generated by new atomic code, or converted to UPF format
     Using radial grid of  877 points,  6 beta functions with: 
                l(1) =   0
                l(2) =   0
                l(3) =   1
                l(4) =   1
                l(5) =   2
                l(6) =   2
     Q(r) pseudized with  8 coefficients,  rinner =    1.300   1.300   1.300
                                                       1.300   1.300

     atomic species   valence    mass     pseudopotential
     Sn               14.00   118.71000     Sn( 1.00)
     Se                6.00    78.97100     Se( 1.00)

      8 Sym. Ops., with inversion, found ( 6 have fractional translation)


                                    s                        frac. trans.

      isym =  1     identity                                     

 cryst.   s( 1) = (     1          0          0      )
                  (     0          1          0      )
                  (     0          0          1      )

 cart.    s( 1) = (  1.0000000  0.0000000  0.0000000 )
                  (  0.0000000  1.0000000  0.0000000 )
                  (  0.0000000  0.0000000  1.0000000 )


      isym =  2     180 deg rotation - cart. axis [0,0,1]        

 cryst.   s( 2) = (    -1          0          0      )    f =(  0.5000000 )
                  (     0         -1          0      )       (  0.0000000 )
                  (     0          0          1      )       ( -0.5000000 )

 cart.    s( 2) = ( -1.0000000  0.0000000  0.0000000 )    f =(  0.5000000 )
                  (  0.0000000 -1.0000000  0.0000000 )       (  0.0000000 )
                  (  0.0000000  0.0000000  1.0000000 )       ( -0.2048336 )


      isym =  3     180 deg rotation - cart. axis [0,1,0]        

 cryst.   s( 3) = (    -1          0          0      )    f =(  0.0000000 )
                  (     0          1          0      )       ( -0.5000000 )
                  (     0          0         -1      )       (  0.0000000 )

 cart.    s( 3) = ( -1.0000000  0.0000000  0.0000000 )    f =(  0.0000000 )
                  (  0.0000000  1.0000000  0.0000000 )       ( -0.1875629 )
                  (  0.0000000  0.0000000 -1.0000000 )       (  0.0000000 )


      isym =  4     180 deg rotation - cart. axis [1,0,0]        

 cryst.   s( 4) = (     1          0          0      )    f =(  0.5000000 )
                  (     0         -1          0      )       ( -0.5000000 )
                  (     0          0         -1      )       ( -0.5000000 )

 cart.    s( 4) = (  1.0000000  0.0000000  0.0000000 )    f =(  0.5000000 )
                  (  0.0000000 -1.0000000  0.0000000 )       ( -0.1875629 )
                  (  0.0000000  0.0000000 -1.0000000 )       ( -0.2048336 )


      isym =  5     inversion                                    

 cryst.   s( 5) = (    -1          0          0      )
                  (     0         -1          0      )
                  (     0          0         -1      )

 cart.    s( 5) = ( -1.0000000  0.0000000  0.0000000 )
                  (  0.0000000 -1.0000000  0.0000000 )
                  (  0.0000000  0.0000000 -1.0000000 )


      isym =  6     inv. 180 deg rotation - cart. axis [0,0,1]   

 cryst.   s( 6) = (     1          0          0      )    f =(  0.5000000 )
                  (     0          1          0      )       (  0.0000000 )
                  (     0          0         -1      )       ( -0.5000000 )

 cart.    s( 6) = (  1.0000000  0.0000000  0.0000000 )    f =(  0.5000000 )
                  (  0.0000000  1.0000000  0.0000000 )       (  0.0000000 )
                  (  0.0000000  0.0000000 -1.0000000 )       ( -0.2048336 )


      isym =  7     inv. 180 deg rotation - cart. axis [0,1,0]   

 cryst.   s( 7) = (     1          0          0      )    f =(  0.0000000 )
                  (     0         -1          0      )       ( -0.5000000 )
                  (     0          0          1      )       (  0.0000000 )

 cart.    s( 7) = (  1.0000000  0.0000000  0.0000000 )    f =(  0.0000000 )
                  (  0.0000000 -1.0000000  0.0000000 )       ( -0.1875629 )
                  (  0.0000000  0.0000000  1.0000000 )       (  0.0000000 )


      isym =  8     inv. 180 deg rotation - cart. axis [1,0,0]   

 cryst.   s( 8) = (    -1          0          0      )    f =(  0.5000000 )
                  (     0          1          0      )       ( -0.5000000 )
                  (     0          0          1      )       ( -0.5000000 )

 cart.    s( 8) = ( -1.0000000  0.0000000  0.0000000 )    f =(  0.5000000 )
                  (  0.0000000  1.0000000  0.0000000 )       ( -0.1875629 )
                  (  0.0000000  0.0000000  1.0000000 )       ( -0.2048336 )


     point group D_2h (mmm) 
     there are  8 classes
     the character table:

       E     C2    C2'   C2''  i     s_v   s_v'  s_v''
A_g    1.00  1.00  1.00  1.00  1.00  1.00  1.00  1.00
B_1g   1.00  1.00 -1.00 -1.00  1.00  1.00 -1.00 -1.00
B_2g   1.00 -1.00  1.00 -1.00  1.00 -1.00  1.00 -1.00
B_3g   1.00 -1.00 -1.00  1.00  1.00 -1.00 -1.00  1.00
A_u    1.00  1.00  1.00  1.00 -1.00 -1.00 -1.00 -1.00
B_1u   1.00  1.00 -1.00 -1.00 -1.00 -1.00  1.00  1.00
B_2u   1.00 -1.00  1.00 -1.00 -1.00  1.00 -1.00  1.00
B_3u   1.00 -1.00 -1.00  1.00 -1.00  1.00  1.00 -1.00

     the symmetry operations in each class and the name of the first element:

     E        1
          identity                                               
     C2       2
          180 deg rotation - cart. axis [0,0,1]                  
     C2'      4
          180 deg rotation - cart. axis [1,0,0]                  
     C2''     3
          180 deg rotation - cart. axis [0,1,0]                  
     i        5
          inversion                                              
     s_v      6
          inv. 180 deg rotation - cart. axis [0,0,1]             
     s_v'     8
          inv. 180 deg rotation - cart. axis [1,0,0]             
     s_v''    7
          inv. 180 deg rotation - cart. axis [0,1,0]             

   Cartesian axes

     site n.     atom                  positions (alat units)
         1        Se     tau(   1) = (   0.8549563   0.0937815   0.1979709  )
         2        Sn     tau(   2) = (   0.1165395   0.0937815   0.0460003  )
         3        Se     tau(   3) = (   0.6450437   0.2813444   0.4028045  )
         4        Sn     tau(   4) = (   0.3834605   0.2813444   0.2508339  )
         5        Se     tau(   5) = (   0.3549563   0.0937815   0.0068627  )
         6        Sn     tau(   6) = (   0.6165395   0.0937815   0.1588333  )
         7        Se     tau(   7) = (   0.1450437   0.2813444   0.2116964  )
         8        Sn     tau(   8) = (   0.8834605   0.2813444   0.3636670  )

     --------------------------------------------
     DFT-D3 Dispersion Correction (3-body terms):
     --------------------------------------------
       Reference C6 values for interpolation: 

         atom   Coordination number   C6
         Se         0.000           427.35
         Se         0.990           427.57
         Se         1.981           421.05
         Sn         0.000          1255.14
         Sn         0.951          1084.09
         Sn         1.950          1010.83
         Sn         2.926           818.29
         Sn         3.912           672.20

       Values used:

         atom   Coordination number  R0_AB[au]  C6      C8
         Se         3.573            3.332    421.05  29958.36
         Sn         4.414            3.957    672.26  84375.70
         Se         3.573            3.332    421.05  29958.36
         Sn         4.414            3.957    672.26  84375.70
         Se         3.573            3.332    421.05  29958.36
         Sn         4.414            3.957    672.26  84375.70
         Se         3.573            3.332    421.05  29958.36
         Sn         4.414            3.957    672.26  84375.70

         Molecular C6 ( Ry / a.u.^6 ) =     34497.72


   Crystallographic axes

     site n.     atom                  positions (cryst. coord.)
         1        Se     tau(   1) = (  0.8549563  0.2500000  0.4832481  )
         2        Sn     tau(   2) = (  0.1165395  0.2500000  0.1122870  )
         3        Se     tau(   3) = (  0.6450437  0.7500000  0.9832481  )
         4        Sn     tau(   4) = (  0.3834605  0.7500000  0.6122870  )
         5        Se     tau(   5) = (  0.3549563  0.2500000  0.0167519  )
         6        Sn     tau(   6) = (  0.6165395  0.2500000  0.3877130  )
         7        Se     tau(   7) = (  0.1450437  0.7500000  0.5167519  )
         8        Sn     tau(   8) = (  0.8834605  0.7500000  0.8877130  )

     number of k points=    32
                       cart. coord. in units 2pi/alat
        k(    1) = (   0.1666667   0.1666107   0.1525628), wk =   0.0833333
        k(    2) = (   0.1666667   0.1666107   0.4576885), wk =   0.0833333
        k(    3) = (   0.1666667   0.1666107   0.7628142), wk =   0.0833333
        k(    4) = (   0.1666667   0.1666107   1.0679399), wk =   0.0833333
        k(    5) = (   0.1666667   0.4998322   0.1525628), wk =   0.0833333
        k(    6) = (   0.1666667   0.4998322   0.4576885), wk =   0.0833333
        k(    7) = (   0.1666667   0.4998322   0.7628142), wk =   0.0833333
        k(    8) = (   0.1666667   0.4998322   1.0679399), wk =   0.0833333
        k(    9) = (   0.1666667   0.8330537   0.1525628), wk =   0.0833333
        k(   10) = (   0.1666667   0.8330537   0.4576885), wk =   0.0833333
        k(   11) = (   0.1666667   0.8330537   0.7628142), wk =   0.0833333
        k(   12) = (   0.1666667   0.8330537   1.0679399), wk =   0.0833333
        k(   13) = (   0.1666667   1.1662751   0.1525628), wk =   0.0833333
        k(   14) = (   0.1666667   1.1662751   0.4576885), wk =   0.0833333
        k(   15) = (   0.1666667   1.1662751   0.7628142), wk =   0.0833333
        k(   16) = (   0.1666667   1.1662751   1.0679399), wk =   0.0833333
        k(   17) = (  -0.5000000   0.1666107   0.1525628), wk =   0.0416667
        k(   18) = (  -0.5000000   0.1666107   0.4576885), wk =   0.0416667
        k(   19) = (  -0.5000000   0.1666107   0.7628142), wk =   0.0416667
        k(   20) = (  -0.5000000   0.1666107   1.0679399), wk =   0.0416667
        k(   21) = (  -0.5000000   0.4998322   0.1525628), wk =   0.0416667
        k(   22) = (  -0.5000000   0.4998322   0.4576885), wk =   0.0416667
        k(   23) = (  -0.5000000   0.4998322   0.7628142), wk =   0.0416667
        k(   24) = (  -0.5000000   0.4998322   1.0679399), wk =   0.0416667
        k(   25) = (  -0.5000000   0.8330537   0.1525628), wk =   0.0416667
        k(   26) = (  -0.5000000   0.8330537   0.4576885), wk =   0.0416667
        k(   27) = (  -0.5000000   0.8330537   0.7628142), wk =   0.0416667
        k(   28) = (  -0.5000000   0.8330537   1.0679399), wk =   0.0416667
        k(   29) = (  -0.5000000   1.1662751   0.1525628), wk =   0.0416667
        k(   30) = (  -0.5000000   1.1662751   0.4576885), wk =   0.0416667
        k(   31) = (  -0.5000000   1.1662751   0.7628142), wk =   0.0416667
        k(   32) = (  -0.5000000   1.1662751   1.0679399), wk =   0.0416667

                       cryst. coord.
        k(    1) = (   0.1666667   0.0625000   0.0625000), wk =   0.0833333
        k(    2) = (   0.1666667   0.0625000   0.1875000), wk =   0.0833333
        k(    3) = (   0.1666667   0.0625000   0.3125000), wk =   0.0833333
        k(    4) = (   0.1666667   0.0625000   0.4375000), wk =   0.0833333
        k(    5) = (   0.1666667   0.1875000   0.0625000), wk =   0.0833333
        k(    6) = (   0.1666667   0.1875000   0.1875000), wk =   0.0833333
        k(    7) = (   0.1666667   0.1875000   0.3125000), wk =   0.0833333
        k(    8) = (   0.1666667   0.1875000   0.4375000), wk =   0.0833333
        k(    9) = (   0.1666667   0.3125000   0.0625000), wk =   0.0833333
        k(   10) = (   0.1666667   0.3125000   0.1875000), wk =   0.0833333
        k(   11) = (   0.1666667   0.3125000   0.3125000), wk =   0.0833333
        k(   12) = (   0.1666667   0.3125000   0.4375000), wk =   0.0833333
        k(   13) = (   0.1666667   0.4375000   0.0625000), wk =   0.0833333
        k(   14) = (   0.1666667   0.4375000   0.1875000), wk =   0.0833333
        k(   15) = (   0.1666667   0.4375000   0.3125000), wk =   0.0833333
        k(   16) = (   0.1666667   0.4375000   0.4375000), wk =   0.0833333
        k(   17) = (  -0.5000000   0.0625000   0.0625000), wk =   0.0416667
        k(   18) = (  -0.5000000   0.0625000   0.1875000), wk =   0.0416667
        k(   19) = (  -0.5000000   0.0625000   0.3125000), wk =   0.0416667
        k(   20) = (  -0.5000000   0.0625000   0.4375000), wk =   0.0416667
        k(   21) = (  -0.5000000   0.1875000   0.0625000), wk =   0.0416667
        k(   22) = (  -0.5000000   0.1875000   0.1875000), wk =   0.0416667
        k(   23) = (  -0.5000000   0.1875000   0.3125000), wk =   0.0416667
        k(   24) = (  -0.5000000   0.1875000   0.4375000), wk =   0.0416667
        k(   25) = (  -0.5000000   0.3125000   0.0625000), wk =   0.0416667
        k(   26) = (  -0.5000000   0.3125000   0.1875000), wk =   0.0416667
        k(   27) = (  -0.5000000   0.3125000   0.3125000), wk =   0.0416667
        k(   28) = (  -0.5000000   0.3125000   0.4375000), wk =   0.0416667
        k(   29) = (  -0.5000000   0.4375000   0.0625000), wk =   0.0416667
        k(   30) = (  -0.5000000   0.4375000   0.1875000), wk =   0.0416667
        k(   31) = (  -0.5000000   0.4375000   0.3125000), wk =   0.0416667
        k(   32) = (  -0.5000000   0.4375000   0.4375000), wk =   0.0416667

     Dense  grid:   269289 G-vectors     FFT dimensions: ( 150,  60,  64)

     Smooth grid:    68171 G-vectors     FFT dimensions: (  96,  36,  40)

     Dynamical RAM for                 wfc:       2.60 MB

     Dynamical RAM for     wfc (w. buffer):      31.18 MB

     Dynamical RAM for           str. fact:       4.11 MB

     Dynamical RAM for           local pot:       0.00 MB

     Dynamical RAM for          nlocal pot:       9.35 MB

     Dynamical RAM for                qrad:       3.59 MB

     Dynamical RAM for          rho,v,vnew:      12.76 MB

     Dynamical RAM for               rhoin:       4.25 MB

     Dynamical RAM for            rho*nmix:      32.87 MB

     Dynamical RAM for           G-vectors:       7.96 MB

     Dynamical RAM for          h,s,v(r/c):       0.29 MB

     Dynamical RAM for          <psi|beta>:       0.09 MB

     Dynamical RAM for                 psi:       5.20 MB

     Dynamical RAM for                hpsi:       5.20 MB

     Dynamical RAM for                spsi:       5.20 MB

     Dynamical RAM for      wfcinit/wfcrot:       6.82 MB

     Dynamical RAM for           addusdens:     131.49 MB

     Dynamical RAM for          addusforce:     135.27 MB

     Estimated static dynamical RAM per process >      90.35 MB

     Estimated max dynamical RAM per process >     258.49 MB

     Estimated total dynamical RAM >       1.39 GB

     Initial potential from superposition of free atoms

     starting charge      75.9995, renormalised to      80.0000
     Starting wfcs are   52 randomized atomic wfcs

     total cpu time spent up to now is        2.9 secs

     Self-consistent Calculation

     iteration #  1     ecut=    50.00 Ry     beta= 0.70
     Davidson diagonalization with overlap

---- Real-time Memory Report at c_bands before calling an iterative solver
           317 MiB given to the printing process from OS
             0 MiB allocation reported by mallinfo(arena+hblkhd)
          9882 MiB available memory on the node where the printing process lives
------------------
     ethr =  1.00E-02,  avg # of iterations =  2.0

     total cpu time spent up to now is        7.3 secs

     total energy              =    -826.63889678 Ry
     estimated scf accuracy    <       2.65566869 Ry

     iteration #  2     ecut=    50.00 Ry     beta= 0.70
     Davidson diagonalization with overlap

---- Real-time Memory Report at c_bands before calling an iterative solver
           408 MiB given to the printing process from OS
             0 MiB allocation reported by mallinfo(arena+hblkhd)
          9583 MiB available memory on the node where the printing process lives
------------------
     ethr =  3.32E-03,  avg # of iterations =  3.0

     total cpu time spent up to now is       12.4 secs

     total energy              =    -827.54777310 Ry
     estimated scf accuracy    <       0.91962039 Ry

     iteration #  3     ecut=    50.00 Ry     beta= 0.70
     Davidson diagonalization with overlap

---- Real-time Memory Report at c_bands before calling an iterative solver
           423 MiB given to the printing process from OS
             0 MiB allocation reported by mallinfo(arena+hblkhd)
          8624 MiB available memory on the node where the printing process lives
------------------
     ethr =  1.15E-03,  avg # of iterations =  2.5

     total cpu time spent up to now is       17.3 secs

     total energy              =    -827.73100582 Ry
     estimated scf accuracy    <       0.00915033 Ry

     iteration #  4     ecut=    50.00 Ry     beta= 0.70
     Davidson diagonalization with overlap

---- Real-time Memory Report at c_bands before calling an iterative solver
           441 MiB given to the printing process from OS
             0 MiB allocation reported by mallinfo(arena+hblkhd)
          8264 MiB available memory on the node where the printing process lives
------------------
     ethr =  1.14E-05,  avg # of iterations =  5.0

     total cpu time spent up to now is       23.6 secs

     total energy              =    -827.73687972 Ry
     estimated scf accuracy    <       0.00434168 Ry

     iteration #  5     ecut=    50.00 Ry     beta= 0.70
     Davidson diagonalization with overlap

---- Real-time Memory Report at c_bands before calling an iterative solver
           447 MiB given to the printing process from OS
             0 MiB allocation reported by mallinfo(arena+hblkhd)
          7768 MiB available memory on the node where the printing process lives
------------------
     ethr =  5.43E-06,  avg # of iterations =  3.3

     total cpu time spent up to now is       28.8 secs

     total energy              =    -827.73826365 Ry
     estimated scf accuracy    <       0.00121605 Ry

     iteration #  6     ecut=    50.00 Ry     beta= 0.70
     Davidson diagonalization with overlap

---- Real-time Memory Report at c_bands before calling an iterative solver
           450 MiB given to the printing process from OS
             0 MiB allocation reported by mallinfo(arena+hblkhd)
          7647 MiB available memory on the node where the printing process lives
------------------
     ethr =  1.52E-06,  avg # of iterations =  2.3

     total cpu time spent up to now is       33.4 secs

     total energy              =    -827.73845547 Ry
     estimated scf accuracy    <       0.00002573 Ry

     iteration #  7     ecut=    50.00 Ry     beta= 0.70
     Davidson diagonalization with overlap

---- Real-time Memory Report at c_bands before calling an iterative solver
           452 MiB given to the printing process from OS
             0 MiB allocation reported by mallinfo(arena+hblkhd)
          7641 MiB available memory on the node where the printing process lives
------------------
     ethr =  3.22E-08,  avg # of iterations =  5.8

     total cpu time spent up to now is       40.1 secs

     total energy              =    -827.73847943 Ry
     estimated scf accuracy    <       0.00000475 Ry

     iteration #  8     ecut=    50.00 Ry     beta= 0.70
     Davidson diagonalization with overlap

---- Real-time Memory Report at c_bands before calling an iterative solver
           455 MiB given to the printing process from OS
             0 MiB allocation reported by mallinfo(arena+hblkhd)
          7636 MiB available memory on the node where the printing process lives
------------------
     ethr =  5.93E-09,  avg # of iterations =  3.2

     total cpu time spent up to now is       45.8 secs

     total energy              =    -827.73848139 Ry
     estimated scf accuracy    <       0.00000132 Ry

     iteration #  9     ecut=    50.00 Ry     beta= 0.70
     Davidson diagonalization with overlap

---- Real-time Memory Report at c_bands before calling an iterative solver
           459 MiB given to the printing process from OS
             0 MiB allocation reported by mallinfo(arena+hblkhd)
          7829 MiB available memory on the node where the printing process lives
------------------
     ethr =  1.65E-09,  avg # of iterations =  3.7

     total cpu time spent up to now is       51.4 secs

     total energy              =    -827.73848184 Ry
     estimated scf accuracy    <       0.00000003 Ry

     iteration # 10     ecut=    50.00 Ry     beta= 0.70
     Davidson diagonalization with overlap

---- Real-time Memory Report at c_bands before calling an iterative solver
           460 MiB given to the printing process from OS
             0 MiB allocation reported by mallinfo(arena+hblkhd)
          7638 MiB available memory on the node where the printing process lives
------------------
     ethr =  3.56E-11,  avg # of iterations =  7.5

     total cpu time spent up to now is       61.5 secs

     total energy              =    -827.73848189 Ry
     estimated scf accuracy    <       0.00000001 Ry

     iteration # 11     ecut=    50.00 Ry     beta= 0.70
     Davidson diagonalization with overlap

---- Real-time Memory Report at c_bands before calling an iterative solver
           461 MiB given to the printing process from OS
             0 MiB allocation reported by mallinfo(arena+hblkhd)
          7591 MiB available memory on the node where the printing process lives
------------------
     ethr =  1.71E-11,  avg # of iterations =  2.8

     total cpu time spent up to now is       66.4 secs

     End of self-consistent calculation

          k = 0.1667 0.1666 0.1526 (  8513 PWs)   bands (ev):

   -13.2635 -13.2517 -13.2474 -13.2457 -13.2436 -13.2426 -13.2391 -13.2358
   -13.2295 -13.2267 -13.2236 -13.2228 -13.2118 -13.2040 -13.1851 -13.1842
   -13.1767 -13.1759 -13.1639 -13.1565  -5.7354  -5.4126  -4.6248  -4.1777
     0.5990   1.5323   2.5283   2.8441   3.2880   4.5350   4.6608   4.9426
     5.2206   5.3734   5.9466   6.3052   6.5720   7.0697   7.3088   7.6025

     occupation numbers 
     1.0000   1.0000   1.0000   1.0000   1.0000   1.0000   1.0000   1.0000
     1.0000   1.0000   1.0000   1.0000   1.0000   1.0000   1.0000   1.0000
     1.0000   1.0000   1.0000   1.0000   1.0000   1.0000   1.0000   1.0000
     1.0000   1.0000   1.0000   1.0000   1.0000   1.0000   1.0000   1.0000
     1.0000   1.0000   1.0000   1.0000   1.0000   1.0000   1.0000   1.0000

          k = 0.1667 0.1666 0.4577 (  8501 PWs)   bands (ev):

   -13.2618 -13.2511 -13.2474 -13.2467 -13.2440 -13.2433 -13.2399 -13.2367
   -13.2287 -13.2241 -13.2229 -13.2211 -13.2115 -13.2049 -13.1854 -13.1831
   -13.1774 -13.1771 -13.1633 -13.1571  -5.6145  -5.3014  -4.6320  -4.2284
     0.2936   1.3094   1.9356   2.5502   3.3991   4.5663   4.7830   5.3688
     5.5414   5.9151   5.9580   6.4056   6.7545   7.0591   7.4582   7.6855

     occupation numbers 
     1.0000   1.0000   1.0000   1.0000   1.0000   1.0000   1.0000   1.0000
     1.0000   1.0000   1.0000   1.0000   1.0000   1.0000   1.0000   1.0000
     1.0000   1.0000   1.0000   1.0000   1.0000   1.0000   1.0000   1.0000
     1.0000   1.0000   1.0000   1.0000   1.0000   1.0000   1.0000   1.0000
     1.0000   1.0000   1.0000   1.0000   1.0000   1.0000   1.0000   1.0000

          k = 0.1667 0.1666 0.7628 (  8501 PWs)   bands (ev):

   -13.2588 -13.2509 -13.2485 -13.2473 -13.2455 -13.2434 -13.2405 -13.2383
   -13.2272 -13.2234 -13.2199 -13.2173 -13.2116 -13.2066 -13.1850 -13.1819
   -13.1791 -13.1784 -13.1622 -13.1580  -5.3951  -5.1018  -4.6856  -4.3490
     0.0068   0.8179   1.4878   2.0832   3.7053   4.7962   4.9921   5.6210
     5.9368   6.0359   6.3258   6.4162   6.9290   7.3838   7.4733   7.9196

     occupation numbers 
     1.0000   1.0000   1.0000   1.0000   1.0000   1.0000   1.0000   1.0000
     1.0000   1.0000   1.0000   1.0000   1.0000   1.0000   1.0000   1.0000
     1.0000   1.0000   1.0000   1.0000   1.0000   1.0000   1.0000   1.0000
     1.0000   1.0000   1.0000   1.0000   1.0000   1.0000   1.0000   1.0000
     1.0000   1.0000   1.0000   1.0000   1.0000   1.0000   1.0000   1.0000

          k = 0.1667 0.1666 1.0679 (  8521 PWs)   bands (ev):

   -13.2553 -13.2524 -13.2490 -13.2485 -13.2452 -13.2442 -13.2405 -13.2397
   -13.2257 -13.2243 -13.2157 -13.2138 -13.2121 -13.2093 -13.1836 -13.1816
   -13.1805 -13.1795 -13.1608 -13.1593  -5.1282  -4.9313  -4.7546  -4.5476
    -0.0209   0.2786   1.4256   1.6543   4.1703   4.6668   5.3813   5.6903
     5.9239   6.0736   6.3984   6.6342   7.2218   7.5085   7.7112   7.7913

     occupation numbers 
     1.0000   1.0000   1.0000   1.0000   1.0000   1.0000   1.0000   1.0000
     1.0000   1.0000   1.0000   1.0000   1.0000   1.0000   1.0000   1.0000
     1.0000   1.0000   1.0000   1.0000   1.0000   1.0000   1.0000   1.0000
     1.0000   1.0000   1.0000   1.0000   1.0000   1.0000   1.0000   1.0000
     1.0000   1.0000   1.0000   1.0000   1.0000   1.0000   1.0000   1.0000

          k = 0.1667 0.4998 0.1526 (  8515 PWs)   bands (ev):

   -13.2575 -13.2503 -13.2483 -13.2454 -13.2426 -13.2422 -13.2404 -13.2387
   -13.2302 -13.2248 -13.2228 -13.2210 -13.2094 -13.2053 -13.1872 -13.1830
   -13.1799 -13.1742 -13.1640 -13.1584  -5.5699  -5.2713  -4.5650  -4.1944
     0.4650   1.3022   2.1575   2.3082   3.4008   4.3857   4.7161   5.0738
     5.3675   5.5348   5.9923   6.3606   6.5273   7.1961   7.4927   7.6465

     occupation numbers 
     1.0000   1.0000   1.0000   1.0000   1.0000   1.0000   1.0000   1.0000
     1.0000   1.0000   1.0000   1.0000   1.0000   1.0000   1.0000   1.0000
     1.0000   1.0000   1.0000   1.0000   1.0000   1.0000   1.0000   1.0000
     1.0000   1.0000   1.0000   1.0000   1.0000   1.0000   1.0000   1.0000
     1.0000   1.0000   1.0000   1.0000   1.0000   1.0000   1.0000   1.0000

          k = 0.1667 0.4998 0.4577 (  8508 PWs)   bands (ev):

   -13.2573 -13.2504 -13.2497 -13.2462 -13.2429 -13.2422 -13.2404 -13.2393
   -13.2294 -13.2250 -13.2205 -13.2186 -13.2097 -13.2054 -13.1868 -13.1830
   -13.1802 -13.1753 -13.1634 -13.1586  -5.4550  -5.1669  -4.5686  -4.2314
     0.3125   1.2566   1.7981   2.1775   3.5367   3.9842   4.3097   5.2378
     5.4235   5.9696   6.0713   6.3341   6.9211   7.0849   7.4796   7.6612

     occupation numbers 
     1.0000   1.0000   1.0000   1.0000   1.0000   1.0000   1.0000   1.0000
     1.0000   1.0000   1.0000   1.0000   1.0000   1.0000   1.0000   1.0000
     1.0000   1.0000   1.0000   1.0000   1.0000   1.0000   1.0000   1.0000
     1.0000   1.0000   1.0000   1.0000   1.0000   1.0000   1.0000   1.0000
     1.0000   1.0000   1.0000   1.0000   1.0000   1.0000   1.0000   1.0000

          k = 0.1667 0.4998 0.7628 (  8501 PWs)   bands (ev):

   -13.2570 -13.2524 -13.2501 -13.2474 -13.2439 -13.2416 -13.2411 -13.2389
   -13.2283 -13.2255 -13.2167 -13.2150 -13.2101 -13.2062 -13.1859 -13.1832
   -13.1803 -13.1768 -13.1624 -13.1592  -5.2487  -4.9818  -4.6116  -4.3254
     0.1541   0.9293   1.5219   1.9554   3.7901   3.9395   4.2610   5.1117
     5.2502   5.9386   6.0553   6.5743   6.8155   7.1142   7.3363   7.6773

     occupation numbers 
     1.0000   1.0000   1.0000   1.0000   1.0000   1.0000   1.0000   1.0000
     1.0000   1.0000   1.0000   1.0000   1.0000   1.0000   1.0000   1.0000
     1.0000   1.0000   1.0000   1.0000   1.0000   1.0000   1.0000   1.0000
     1.0000   1.0000   1.0000   1.0000   1.0000   1.0000   1.0000   1.0000
     1.0000   1.0000   1.0000   1.0000   1.0000   1.0000   1.0000   1.0000

          k = 0.1667 0.4998 1.0679 (  8507 PWs)   bands (ev):

   -13.2565 -13.2549 -13.2497 -13.2488 -13.2440 -13.2429 -13.2400 -13.2391
   -13.2272 -13.2263 -13.2132 -13.2112 -13.2110 -13.2081 -13.1848 -13.1838
   -13.1797 -13.1784 -13.1612 -13.1601  -5.0025  -4.8256  -4.6696  -4.4899
     0.1743   0.4577   1.5251   1.6954   4.1041   4.1766   4.4760   4.7782
     5.1228   5.4286   6.1133   6.3939   6.8235   7.0955   7.3865   7.5935

     occupation numbers 
     1.0000   1.0000   1.0000   1.0000   1.0000   1.0000   1.0000   1.0000
     1.0000   1.0000   1.0000   1.0000   1.0000   1.0000   1.0000   1.0000
     1.0000   1.0000   1.0000   1.0000   1.0000   1.0000   1.0000   1.0000
     1.0000   1.0000   1.0000   1.0000   1.0000   1.0000   1.0000   1.0000
     1.0000   1.0000   1.0000   1.0000   1.0000   1.0000   1.0000   1.0000

          k = 0.1667 0.8331 0.1526 (  8529 PWs)   bands (ev):

   -13.2549 -13.2526 -13.2514 -13.2504 -13.2397 -13.2379 -13.2362 -13.2346
   -13.2291 -13.2265 -13.2195 -13.2168 -13.2088 -13.2059 -13.1921 -13.1901
   -13.1761 -13.1712 -13.1641 -13.1612  -5.2660  -5.0239  -4.5079  -4.2888
     0.2919   1.0233   1.3432   1.7892   3.7435   4.4984   4.8850   5.2849
     5.5892   5.7097   6.1067   6.3017   6.6256   7.1623   7.2863   7.6956

     occupation numbers 
     1.0000   1.0000   1.0000   1.0000   1.0000   1.0000   1.0000   1.0000
     1.0000   1.0000   1.0000   1.0000   1.0000   1.0000   1.0000   1.0000
     1.0000   1.0000   1.0000   1.0000   1.0000   1.0000   1.0000   1.0000
     1.0000   1.0000   1.0000   1.0000   1.0000   1.0000   1.0000   1.0000
     1.0000   1.0000   1.0000   1.0000   1.0000   1.0000   1.0000   1.0000

          k = 0.1667 0.8331 0.4577 (  8529 PWs)   bands (ev):

   -13.2579 -13.2546 -13.2528 -13.2510 -13.2400 -13.2369 -13.2357 -13.2344
   -13.2281 -13.2265 -13.2177 -13.2151 -13.2093 -13.2053 -13.1915 -13.1898
   -13.1761 -13.1720 -13.1636 -13.1611  -5.1655  -4.9352  -4.5004  -4.2961
     0.3334   1.1163   1.3819   1.6777   3.7352   3.8530   4.2523   4.9245
     5.3581   5.8805   5.9323   6.4333   6.5038   6.9979   7.1560   7.4592

     occupation numbers 
     1.0000   1.0000   1.0000   1.0000   1.0000   1.0000   1.0000   1.0000
     1.0000   1.0000   1.0000   1.0000   1.0000   1.0000   1.0000   1.0000
     1.0000   1.0000   1.0000   1.0000   1.0000   1.0000   1.0000   1.0000
     1.0000   1.0000   1.0000   1.0000   1.0000   1.0000   1.0000   1.0000
     1.0000   1.0000   1.0000   1.0000   1.0000   1.0000   1.0000   1.0000

          k = 0.1667 0.8331 0.7628 (  8511 PWs)   bands (ev):

   -13.2609 -13.2583 -13.2542 -13.2528 -13.2396 -13.2361 -13.2355 -13.2342
   -13.2269 -13.2264 -13.2150 -13.2126 -13.2091 -13.2055 -13.1906 -13.1895
   -13.1759 -13.1731 -13.1628 -13.1611  -4.9900  -4.7828  -4.5160  -4.3335
     0.4016   1.0594   1.4535   1.6273   3.3561   3.7185   4.1449   4.4633
     4.8454   5.3420   5.6706   6.0648   6.3850   6.7271   7.0134   7.4344

     occupation numbers 
     1.0000   1.0000   1.0000   1.0000   1.0000   1.0000   1.0000   1.0000
     1.0000   1.0000   1.0000   1.0000   1.0000   1.0000   1.0000   1.0000
     1.0000   1.0000   1.0000   1.0000   1.0000   1.0000   1.0000   1.0000
     1.0000   1.0000   1.0000   1.0000   1.0000   1.0000   1.0000   1.0000
     1.0000   1.0000   1.0000   1.0000   1.0000   1.0000   1.0000   1.0000

          k = 0.1667 0.8331 1.0679 (  8511 PWs)   bands (ev):

   -13.2623 -13.2614 -13.2550 -13.2545 -13.2385 -13.2370 -13.2347 -13.2342
   -13.2263 -13.2262 -13.2125 -13.2114 -13.2081 -13.2065 -13.1898 -13.1894
   -13.1753 -13.1743 -13.1620 -13.1614  -4.7911  -4.6587  -4.5476  -4.4260
     0.5267   0.7655   1.5861   1.6409   3.3768   3.7231   3.8563   4.2141
     4.6376   4.9954   5.4448   5.8231   6.0876   6.3746   7.1076   7.2276

     occupation numbers 
     1.0000   1.0000   1.0000   1.0000   1.0000   1.0000   1.0000   1.0000
     1.0000   1.0000   1.0000   1.0000   1.0000   1.0000   1.0000   1.0000
     1.0000   1.0000   1.0000   1.0000   1.0000   1.0000   1.0000   1.0000
     1.0000   1.0000   1.0000   1.0000   1.0000   1.0000   1.0000   1.0000
     1.0000   1.0000   1.0000   1.0000   1.0000   1.0000   1.0000   1.0000

          k = 0.1667 1.1663 0.1526 (  8535 PWs)   bands (ev):

   -13.2574 -13.2562 -13.2538 -13.2527 -13.2355 -13.2342 -13.2331 -13.2312
   -13.2243 -13.2237 -13.2206 -13.2161 -13.2079 -13.2024 -13.1992 -13.1973
   -13.1705 -13.1679 -13.1652 -13.1650  -4.8849  -4.7480  -4.5533  -4.5257
     0.2976   0.6546   0.9825   1.2769   4.2511   4.6807   5.0948   5.4618
     5.6598   5.6865   6.1225   6.4525   6.7427   7.0062   7.0515   7.2337

     occupation numbers 
     1.0000   1.0000   1.0000   1.0000   1.0000   1.0000   1.0000   1.0000
     1.0000   1.0000   1.0000   1.0000   1.0000   1.0000   1.0000   1.0000
     1.0000   1.0000   1.0000   1.0000   1.0000   1.0000   1.0000   1.0000
     1.0000   1.0000   1.0000   1.0000   1.0000   1.0000   1.0000   1.0000
     1.0000   1.0000   1.0000   1.0000   1.0000   1.0000   1.0000   1.0000

          k = 0.1667 1.1663 0.4577 (  8541 PWs)   bands (ev):

   -13.2604 -13.2592 -13.2553 -13.2544 -13.2361 -13.2344 -13.2319 -13.2306
   -13.2238 -13.2228 -13.2193 -13.2155 -13.2073 -13.2033 -13.1973 -13.1963
   -13.1708 -13.1688 -13.1646 -13.1643  -4.8111  -4.6854  -4.5224  -4.4909
     0.4439   0.7919   1.0967   1.3048   4.0039   4.1877   4.4822   4.7609
     5.0306   5.4534   5.9803   6.1725   6.3005   6.5794   7.1686   7.4066

     occupation numbers 
     1.0000   1.0000   1.0000   1.0000   1.0000   1.0000   1.0000   1.0000
     1.0000   1.0000   1.0000   1.0000   1.0000   1.0000   1.0000   1.0000
     1.0000   1.0000   1.0000   1.0000   1.0000   1.0000   1.0000   1.0000
     1.0000   1.0000   1.0000   1.0000   1.0000   1.0000   1.0000   1.0000
     1.0000   1.0000   1.0000   1.0000   1.0000   1.0000   1.0000   1.0000

          k = 0.1667 1.1663 0.7628 (  8507 PWs)   bands (ev):

   -13.2643 -13.2633 -13.2574 -13.2568 -13.2363 -13.2348 -13.2306 -13.2300
   -13.2229 -13.2219 -13.2173 -13.2147 -13.2060 -13.2038 -13.1953 -13.1948
   -13.1710 -13.1697 -13.1639 -13.1636  -4.6908  -4.5865  -4.4876  -4.4483
     0.6930   1.0056   1.2693   1.3375   3.3637   3.8217   3.9389   4.2185
     4.6206   4.9226   5.3420   5.7958   5.9177   6.1649   7.0579   7.1832

     occupation numbers 
     1.0000   1.0000   1.0000   1.0000   1.0000   1.0000   1.0000   1.0000
     1.0000   1.0000   1.0000   1.0000   1.0000   1.0000   1.0000   1.0000
     1.0000   1.0000   1.0000   1.0000   1.0000   1.0000   1.0000   1.0000
     1.0000   1.0000   1.0000   1.0000   1.0000   1.0000   1.0000   1.0000
     1.0000   1.0000   1.0000   1.0000   1.0000   1.0000   1.0000   1.0000

          k = 0.1667 1.1663 1.0679 (  8514 PWs)   bands (ev):

   -13.2667 -13.2664 -13.2589 -13.2587 -13.2361 -13.2355 -13.2299 -13.2297
   -13.2221 -13.2216 -13.2156 -13.2147 -13.2047 -13.2040 -13.1941 -13.1940
   -13.1708 -13.1703 -13.1634 -13.1633  -4.5724  -4.5136  -4.4723  -4.4369
     0.9429   1.0840   1.3918   1.4313   3.1140   3.3211   3.7260   3.8391
     4.4498   4.4753   4.9957   5.3279   5.8805   6.0656   6.8942   6.9509

     occupation numbers 
     1.0000   1.0000   1.0000   1.0000   1.0000   1.0000   1.0000   1.0000
     1.0000   1.0000   1.0000   1.0000   1.0000   1.0000   1.0000   1.0000
     1.0000   1.0000   1.0000   1.0000   1.0000   1.0000   1.0000   1.0000
     1.0000   1.0000   1.0000   1.0000   1.0000   1.0000   1.0000   1.0000
     1.0000   1.0000   1.0000   1.0000   1.0000   1.0000   1.0000   1.0000

          k =-0.5000 0.1666 0.1526 (  8502 PWs)   bands (ev):

   -13.2582 -13.2582 -13.2454 -13.2454 -13.2447 -13.2447 -13.2367 -13.2367
   -13.2266 -13.2266 -13.2253 -13.2253 -13.2074 -13.2074 -13.1842 -13.1842
   -13.1766 -13.1766 -13.1600 -13.1600  -5.6034  -5.6034  -4.3717  -4.3717
     0.9286   0.9286   2.7701   2.7701   3.9987   3.9987   4.8599   4.8599
     5.4136   5.4136   6.0315   6.0315   6.3943   6.3943   7.5239   7.5239

     occupation numbers 
     1.0000   1.0000   1.0000   1.0000   1.0000   1.0000   1.0000   1.0000
     1.0000   1.0000   1.0000   1.0000   1.0000   1.0000   1.0000   1.0000
     1.0000   1.0000   1.0000   1.0000   1.0000   1.0000   1.0000   1.0000
     1.0000   1.0000   1.0000   1.0000   1.0000   1.0000   1.0000   1.0000
     1.0000   1.0000   1.0000   1.0000   1.0000   1.0000   1.0000   1.0000

          k =-0.5000 0.1666 0.4577 (  8516 PWs)   bands (ev):

   -13.2571 -13.2571 -13.2459 -13.2459 -13.2448 -13.2448 -13.2380 -13.2380
   -13.2259 -13.2259 -13.2229 -13.2229 -13.2078 -13.2078 -13.1839 -13.1839
   -13.1775 -13.1775 -13.1600 -13.1600  -5.4877  -5.4877  -4.4003  -4.4003
     0.6578   0.6578   2.2956   2.2956   4.2550   4.2550   4.9434   4.9434
     5.6360   5.6360   6.1881   6.1881   6.8246   6.8246   7.4425   7.4425

     occupation numbers 
     1.0000   1.0000   1.0000   1.0000   1.0000   1.0000   1.0000   1.0000
     1.0000   1.0000   1.0000   1.0000   1.0000   1.0000   1.0000   1.0000
     1.0000   1.0000   1.0000   1.0000   1.0000   1.0000   1.0000   1.0000
     1.0000   1.0000   1.0000   1.0000   1.0000   1.0000   1.0000   1.0000
     1.0000   1.0000   1.0000   1.0000   1.0000   1.0000   1.0000   1.0000

          k =-0.5000 0.1666 0.7628 (  8504 PWs)   bands (ev):

   -13.2553 -13.2553 -13.2476 -13.2476 -13.2443 -13.2443 -13.2398 -13.2398
   -13.2251 -13.2251 -13.2188 -13.2188 -13.2088 -13.2088 -13.1832 -13.1832
   -13.1789 -13.1789 -13.1600 -13.1600  -5.2808  -5.2808  -4.4854  -4.4854
     0.3503   0.3503   1.7454   1.7454   4.5817   4.5817   5.2319   5.2319
     5.7715   5.7715   6.3861   6.3861   7.0421   7.0421   7.5837   7.5837

     occupation numbers 
     1.0000   1.0000   1.0000   1.0000   1.0000   1.0000   1.0000   1.0000
     1.0000   1.0000   1.0000   1.0000   1.0000   1.0000   1.0000   1.0000
     1.0000   1.0000   1.0000   1.0000   1.0000   1.0000   1.0000   1.0000
     1.0000   1.0000   1.0000   1.0000   1.0000   1.0000   1.0000   1.0000
     1.0000   1.0000   1.0000   1.0000   1.0000   1.0000   1.0000   1.0000

          k =-0.5000 0.1666 1.0679 (  8506 PWs)   bands (ev):

   -13.2537 -13.2537 -13.2489 -13.2489 -13.2442 -13.2442 -13.2410 -13.2410
   -13.2246 -13.2246 -13.2151 -13.2151 -13.2104 -13.2104 -13.1824 -13.1824
   -13.1803 -13.1803 -13.1600 -13.1600  -5.0532  -5.0532  -4.6289  -4.6289
     0.1840   0.1840   1.3820   1.3820   4.9908   4.9908   5.5325   5.5325
     5.6176   5.6176   6.2446   6.2446   7.3865   7.3865   7.6785   7.6785

     occupation numbers 
     1.0000   1.0000   1.0000   1.0000   1.0000   1.0000   1.0000   1.0000
     1.0000   1.0000   1.0000   1.0000   1.0000   1.0000   1.0000   1.0000
     1.0000   1.0000   1.0000   1.0000   1.0000   1.0000   1.0000   1.0000
     1.0000   1.0000   1.0000   1.0000   1.0000   1.0000   1.0000   1.0000
     1.0000   1.0000   1.0000   1.0000   1.0000   1.0000   1.0000   1.0000

          k =-0.5000 0.4998 0.1526 (  8512 PWs)   bands (ev):

   -13.2539 -13.2539 -13.2474 -13.2474 -13.2420 -13.2420 -13.2396 -13.2396
   -13.2276 -13.2276 -13.2220 -13.2220 -13.2072 -13.2072 -13.1855 -13.1855
   -13.1766 -13.1766 -13.1610 -13.1610  -5.4471  -5.4471  -4.3522  -4.3522
     0.7781   0.7781   2.2669   2.2669   4.1227   4.1227   4.7701   4.7701
     5.6967   5.6967   5.9005   5.9005   6.5574   6.5574   7.6494   7.6494

     occupation numbers 
     1.0000   1.0000   1.0000   1.0000   1.0000   1.0000   1.0000   1.0000
     1.0000   1.0000   1.0000   1.0000   1.0000   1.0000   1.0000   1.0000
     1.0000   1.0000   1.0000   1.0000   1.0000   1.0000   1.0000   1.0000
     1.0000   1.0000   1.0000   1.0000   1.0000   1.0000   1.0000   1.0000
     1.0000   1.0000   1.0000   1.0000   1.0000   1.0000   1.0000   1.0000

          k =-0.5000 0.4998 0.4577 (  8514 PWs)   bands (ev):

   -13.2540 -13.2540 -13.2484 -13.2484 -13.2423 -13.2423 -13.2395 -13.2395
   -13.2273 -13.2273 -13.2196 -13.2196 -13.2075 -13.2075 -13.1853 -13.1853
   -13.1773 -13.1773 -13.1608 -13.1608  -5.3376  -5.3376  -4.3728  -4.3728
     0.6629   0.6629   2.0299   2.0299   4.0486   4.0486   4.7062   4.7062
     5.3848   5.3848   6.3100   6.3100   6.9169   6.9169   7.5533   7.5533

     occupation numbers 
     1.0000   1.0000   1.0000   1.0000   1.0000   1.0000   1.0000   1.0000
     1.0000   1.0000   1.0000   1.0000   1.0000   1.0000   1.0000   1.0000
     1.0000   1.0000   1.0000   1.0000   1.0000   1.0000   1.0000   1.0000
     1.0000   1.0000   1.0000   1.0000   1.0000   1.0000   1.0000   1.0000
     1.0000   1.0000   1.0000   1.0000   1.0000   1.0000   1.0000   1.0000

          k =-0.5000 0.4998 0.7628 (  8508 PWs)   bands (ev):

   -13.2543 -13.2543 -13.2504 -13.2504 -13.2421 -13.2421 -13.2394 -13.2394
   -13.2270 -13.2270 -13.2159 -13.2159 -13.2083 -13.2083 -13.1851 -13.1851
   -13.1782 -13.1782 -13.1606 -13.1606  -5.1439  -5.1439  -4.4400  -4.4400
     0.4851   0.4851   1.7142   1.7142   4.0345   4.0345   4.8689   4.8689
     5.2228   5.2228   6.4194   6.4194   6.7768   6.7768   7.5027   7.5027

     occupation numbers 
     1.0000   1.0000   1.0000   1.0000   1.0000   1.0000   1.0000   1.0000
     1.0000   1.0000   1.0000   1.0000   1.0000   1.0000   1.0000   1.0000
     1.0000   1.0000   1.0000   1.0000   1.0000   1.0000   1.0000   1.0000
     1.0000   1.0000   1.0000   1.0000   1.0000   1.0000   1.0000   1.0000
     1.0000   1.0000   1.0000   1.0000   1.0000   1.0000   1.0000   1.0000

          k =-0.5000 0.4998 1.0679 (  8522 PWs)   bands (ev):

   -13.2546 -13.2546 -13.2519 -13.2519 -13.2416 -13.2416 -13.2395 -13.2395
   -13.2268 -13.2268 -13.2123 -13.2123 -13.2097 -13.2097 -13.1848 -13.1848
   -13.1789 -13.1789 -13.1604 -13.1604  -4.9349  -4.9349  -4.5599  -4.5599
     0.3632   0.3632   1.4829   1.4829   4.2729   4.2729   4.6995   4.6995
     5.4418   5.4418   6.0711   6.0711   6.7232   6.7232   7.3401   7.3401

     occupation numbers 
     1.0000   1.0000   1.0000   1.0000   1.0000   1.0000   1.0000   1.0000
     1.0000   1.0000   1.0000   1.0000   1.0000   1.0000   1.0000   1.0000
     1.0000   1.0000   1.0000   1.0000   1.0000   1.0000   1.0000   1.0000
     1.0000   1.0000   1.0000   1.0000   1.0000   1.0000   1.0000   1.0000
     1.0000   1.0000   1.0000   1.0000   1.0000   1.0000   1.0000   1.0000

          k =-0.5000 0.8331 0.1526 (  8528 PWs)   bands (ev):

   -13.2544 -13.2544 -13.2502 -13.2502 -13.2382 -13.2382 -13.2365 -13.2365
   -13.2275 -13.2275 -13.2183 -13.2183 -13.2071 -13.2071 -13.1913 -13.1913
   -13.1735 -13.1735 -13.1626 -13.1626  -5.1647  -5.1647  -4.3775  -4.3775
     0.5886   0.5886   1.5591   1.5591   4.4023   4.4023   4.9546   4.9546
     5.8489   5.8489   6.0113   6.0113   6.5483   6.5483   7.4860   7.4860

     occupation numbers 
     1.0000   1.0000   1.0000   1.0000   1.0000   1.0000   1.0000   1.0000
     1.0000   1.0000   1.0000   1.0000   1.0000   1.0000   1.0000   1.0000
     1.0000   1.0000   1.0000   1.0000   1.0000   1.0000   1.0000   1.0000
     1.0000   1.0000   1.0000   1.0000   1.0000   1.0000   1.0000   1.0000
     1.0000   1.0000   1.0000   1.0000   1.0000   1.0000   1.0000   1.0000

          k =-0.5000 0.8331 0.4577 (  8518 PWs)   bands (ev):

   -13.2562 -13.2562 -13.2521 -13.2521 -13.2380 -13.2380 -13.2354 -13.2354
   -13.2271 -13.2271 -13.2166 -13.2166 -13.2070 -13.2070 -13.1911 -13.1911
   -13.1737 -13.1737 -13.1623 -13.1623  -5.0700  -5.0700  -4.3781  -4.3781
     0.6504   0.6504   1.5373   1.5373   3.9236   3.9236   4.7987   4.7987
     5.2763   5.2763   6.2537   6.2537   6.4958   6.4958   7.3950   7.3950

     occupation numbers 
     1.0000   1.0000   1.0000   1.0000   1.0000   1.0000   1.0000   1.0000
     1.0000   1.0000   1.0000   1.0000   1.0000   1.0000   1.0000   1.0000
     1.0000   1.0000   1.0000   1.0000   1.0000   1.0000   1.0000   1.0000
     1.0000   1.0000   1.0000   1.0000   1.0000   1.0000   1.0000   1.0000
     1.0000   1.0000   1.0000   1.0000   1.0000   1.0000   1.0000   1.0000

          k =-0.5000 0.8331 0.7628 (  8524 PWs)   bands (ev):

   -13.2587 -13.2587 -13.2549 -13.2549 -13.2373 -13.2373 -13.2347 -13.2347
   -13.2267 -13.2267 -13.2143 -13.2143 -13.2067 -13.2067 -13.1909 -13.1909
   -13.1740 -13.1740 -13.1620 -13.1620  -4.9072  -4.9072  -4.4041  -4.4041
     0.6944   0.6944   1.5218   1.5218   3.5885   3.5885   4.4498   4.4498
     5.0268   5.0268   5.7451   5.7451   6.4359   6.4359   7.2924   7.2924

     occupation numbers 
     1.0000   1.0000   1.0000   1.0000   1.0000   1.0000   1.0000   1.0000
     1.0000   1.0000   1.0000   1.0000   1.0000   1.0000   1.0000   1.0000
     1.0000   1.0000   1.0000   1.0000   1.0000   1.0000   1.0000   1.0000
     1.0000   1.0000   1.0000   1.0000   1.0000   1.0000   1.0000   1.0000
     1.0000   1.0000   1.0000   1.0000   1.0000   1.0000   1.0000   1.0000

          k =-0.5000 0.8331 1.0679 (  8514 PWs)   bands (ev):

   -13.2603 -13.2603 -13.2569 -13.2569 -13.2365 -13.2365 -13.2347 -13.2347
   -13.2264 -13.2264 -13.2128 -13.2128 -13.2062 -13.2062 -13.1906 -13.1906
   -13.1742 -13.1742 -13.1617 -13.1617  -4.7397  -4.7397  -4.4724  -4.4724
     0.6766   0.6766   1.5428   1.5428   3.6017   3.6017   3.9753   3.9753
     5.0352   5.0352   5.3553   5.3553   6.4534   6.4534   6.9813   6.9813

     occupation numbers 
     1.0000   1.0000   1.0000   1.0000   1.0000   1.0000   1.0000   1.0000
     1.0000   1.0000   1.0000   1.0000   1.0000   1.0000   1.0000   1.0000
     1.0000   1.0000   1.0000   1.0000   1.0000   1.0000   1.0000   1.0000
     1.0000   1.0000   1.0000   1.0000   1.0000   1.0000   1.0000   1.0000
     1.0000   1.0000   1.0000   1.0000   1.0000   1.0000   1.0000   1.0000

          k =-0.5000 1.1663 0.1526 (  8520 PWs)   bands (ev):

   -13.2560 -13.2560 -13.2544 -13.2544 -13.2340 -13.2340 -13.2333 -13.2333
   -13.2234 -13.2234 -13.2185 -13.2185 -13.2046 -13.2046 -13.1987 -13.1987
   -13.1691 -13.1691 -13.1652 -13.1652  -4.8246  -4.8246  -4.5321  -4.5321
     0.5945   0.5945   0.9381   0.9381   4.8604   4.8604   5.2164   5.2164
     5.7258   5.7258   5.9826   5.9826   6.6688   6.6688   7.0643   7.0643

     occupation numbers 
     1.0000   1.0000   1.0000   1.0000   1.0000   1.0000   1.0000   1.0000
     1.0000   1.0000   1.0000   1.0000   1.0000   1.0000   1.0000   1.0000
     1.0000   1.0000   1.0000   1.0000   1.0000   1.0000   1.0000   1.0000
     1.0000   1.0000   1.0000   1.0000   1.0000   1.0000   1.0000   1.0000
     1.0000   1.0000   1.0000   1.0000   1.0000   1.0000   1.0000   1.0000

          k =-0.5000 1.1663 0.4577 (  8538 PWs)   bands (ev):

   -13.2582 -13.2582 -13.2567 -13.2567 -13.2338 -13.2338 -13.2328 -13.2328
   -13.2227 -13.2227 -13.2178 -13.2178 -13.2038 -13.2038 -13.1980 -13.1980
   -13.1691 -13.1691 -13.1650 -13.1650  -4.7561  -4.7561  -4.4994  -4.4994
     0.7248   0.7248   1.0341   1.0341   4.1995   4.1995   4.7434   4.7434
     5.3145   5.3145   5.7572   5.7572   6.5666   6.5666   7.0099   7.0099

     occupation numbers 
     1.0000   1.0000   1.0000   1.0000   1.0000   1.0000   1.0000   1.0000
     1.0000   1.0000   1.0000   1.0000   1.0000   1.0000   1.0000   1.0000
     1.0000   1.0000   1.0000   1.0000   1.0000   1.0000   1.0000   1.0000
     1.0000   1.0000   1.0000   1.0000   1.0000   1.0000   1.0000   1.0000
     1.0000   1.0000   1.0000   1.0000   1.0000   1.0000   1.0000   1.0000

          k =-0.5000 1.1663 0.7628 (  8510 PWs)   bands (ev):

   -13.2613 -13.2613 -13.2599 -13.2599 -13.2336 -13.2336 -13.2325 -13.2325
   -13.2218 -13.2218 -13.2169 -13.2169 -13.2024 -13.2024 -13.1970 -13.1970
   -13.1690 -13.1690 -13.1647 -13.1647  -4.6466  -4.6466  -4.4603  -4.4603
     0.9166   0.9166   1.1967   1.1967   3.6460   3.6460   4.1639   4.1639
     4.7422   4.7422   5.2066   5.2066   6.5213   6.5213   6.8975   6.8975

     occupation numbers 
     1.0000   1.0000   1.0000   1.0000   1.0000   1.0000   1.0000   1.0000
     1.0000   1.0000   1.0000   1.0000   1.0000   1.0000   1.0000   1.0000
     1.0000   1.0000   1.0000   1.0000   1.0000   1.0000   1.0000   1.0000
     1.0000   1.0000   1.0000   1.0000   1.0000   1.0000   1.0000   1.0000
     1.0000   1.0000   1.0000   1.0000   1.0000   1.0000   1.0000   1.0000

          k =-0.5000 1.1663 1.0679 (  8512 PWs)   bands (ev):

   -13.2635 -13.2635 -13.2621 -13.2621 -13.2335 -13.2335 -13.2325 -13.2325
   -13.2212 -13.2212 -13.2163 -13.2163 -13.2014 -13.2014 -13.1962 -13.1962
   -13.1690 -13.1690 -13.1645 -13.1645  -4.5483  -4.5483  -4.4494  -4.4494
     1.0342   1.0342   1.3620   1.3620   3.4683   3.4683   3.7126   3.7126
     4.3958   4.3958   4.6732   4.6732   6.6269   6.6269   6.8173   6.8173

     occupation numbers 
     1.0000   1.0000   1.0000   1.0000   1.0000   1.0000   1.0000   1.0000
     1.0000   1.0000   1.0000   1.0000   1.0000   1.0000   1.0000   1.0000
     1.0000   1.0000   1.0000   1.0000   1.0000   1.0000   1.0000   1.0000
     1.0000   1.0000   1.0000   1.0000   1.0000   1.0000   1.0000   1.0000
     1.0000   1.0000   1.0000   1.0000   1.0000   1.0000   1.0000   1.0000

     highest occupied level (ev):     7.9196

!    total energy              =    -827.73848189 Ry
     estimated scf accuracy    <          2.1E-11 Ry

     The total energy is the sum of the following terms:
     one-electron contribution =    -258.52819993 Ry
     hartree contribution      =     179.86795888 Ry
     xc contribution           =    -309.15200057 Ry
     ewald contribution        =    -439.80328342 Ry
     DFT-D3 Dispersion         =      -0.12295685 Ry

     convergence has been achieved in  11 iterations

     Forces acting on atoms (cartesian axes, Ry/au):

     atom    1 type  2   force =     0.01409696    0.00000000    0.00151386
     atom    2 type  1   force =    -0.01431739    0.00000000   -0.00036190
     atom    3 type  2   force =    -0.01409696    0.00000000    0.00151386
     atom    4 type  1   force =     0.01431739    0.00000000   -0.00036190
     atom    5 type  2   force =     0.01409696    0.00000000   -0.00151386
     atom    6 type  1   force =    -0.01431739    0.00000000    0.00036190
     atom    7 type  2   force =    -0.01409696    0.00000000   -0.00151386
     atom    8 type  1   force =     0.01431739    0.00000000    0.00036190
     The non-local contrib.  to forces
     atom    1 type  2   force =    -0.10694788    0.00000000    0.11220995
     atom    2 type  1   force =     0.35399119    0.00000000    0.30451646
     atom    3 type  2   force =     0.10694788    0.00000000    0.11220995
     atom    4 type  1   force =    -0.35399119    0.00000000    0.30451646
     atom    5 type  2   force =    -0.10694788    0.00000000   -0.11220995
     atom    6 type  1   force =     0.35399119    0.00000000   -0.30451646
     atom    7 type  2   force =     0.10694788    0.00000000   -0.11220995
     atom    8 type  1   force =    -0.35399119    0.00000000   -0.30451646
     The ionic contribution  to forces
     atom    1 type  2   force =     1.42672305    0.00000000   -1.16608700
     atom    2 type  1   force =    -0.67721021    0.00000000   -0.57277940
     atom    3 type  2   force =    -1.42672305    0.00000000   -1.16608700
     atom    4 type  1   force =     0.67721021   -0.00000000   -0.57277940
     atom    5 type  2   force =     1.42672305    0.00000000    1.16608700
     atom    6 type  1   force =    -0.67721021    0.00000000    0.57277940
     atom    7 type  2   force =    -1.42672305   -0.00000000    1.16608700
     atom    8 type  1   force =     0.67721021   -0.00000000    0.57277940
     The local contribution  to forces
     atom    1 type  2   force =    -1.31630630    0.00000000    1.06646612
     atom    2 type  1   force =     0.31412261   -0.00000000    0.27237625
     atom    3 type  2   force =     1.31630630   -0.00000000    1.06646612
     atom    4 type  1   force =    -0.31412261   -0.00000000    0.27237625
     atom    5 type  2   force =    -1.31630630    0.00000000   -1.06646612
     atom    6 type  1   force =     0.31412261   -0.00000000   -0.27237625
     atom    7 type  2   force =     1.31630630   -0.00000000   -1.06646612
     atom    8 type  1   force =    -0.31412261   -0.00000000   -0.27237625
     The core correction contribution to forces
     atom    1 type  2   force =     0.01151978   -0.00000000   -0.01250181
     atom    2 type  1   force =    -0.00453436   -0.00000000   -0.00550963
     atom    3 type  2   force =    -0.01151978   -0.00000000   -0.01250181
     atom    4 type  1   force =     0.00453436    0.00000000   -0.00550963
     atom    5 type  2   force =     0.01151978   -0.00000000    0.01250181
     atom    6 type  1   force =    -0.00453436   -0.00000000    0.00550963
     atom    7 type  2   force =    -0.01151978   -0.00000000    0.01250181
     atom    8 type  1   force =     0.00453436   -0.00000000    0.00550963
     The Hubbard contrib.    to forces
     atom    1 type  2   force =     0.00000000    0.00000000    0.00000000
     atom    2 type  1   force =     0.00000000    0.00000000    0.00000000
     atom    3 type  2   force =     0.00000000    0.00000000    0.00000000
     atom    4 type  1   force =     0.00000000    0.00000000    0.00000000
     atom    5 type  2   force =     0.00000000    0.00000000    0.00000000
     atom    6 type  1   force =     0.00000000    0.00000000    0.00000000
     atom    7 type  2   force =     0.00000000    0.00000000    0.00000000
     atom    8 type  1   force =     0.00000000    0.00000000    0.00000000
     The SCF correction term to forces
     atom    1 type  2   force =    -0.00000218   -0.00000000    0.00000074
     atom    2 type  1   force =     0.00000793    0.00000000    0.00000306
     atom    3 type  2   force =     0.00000218   -0.00000000    0.00000074
     atom    4 type  1   force =    -0.00000793   -0.00000000    0.00000306
     atom    5 type  2   force =    -0.00000218    0.00000000   -0.00000074
     atom    6 type  1   force =     0.00000793   -0.00000000   -0.00000306
     atom    7 type  2   force =     0.00000218    0.00000000   -0.00000074
     atom    8 type  1   force =    -0.00000793   -0.00000000   -0.00000306

     DFT-D3 dispersion contribution to forces:
     atom    1 type  2   force =    -0.00088951   -0.00000000    0.00142585
     atom    2 type  1   force =    -0.00069455   -0.00000000    0.00103135
     atom    3 type  2   force =     0.00088951    0.00000000    0.00142585
     atom    4 type  1   force =     0.00069455    0.00000000    0.00103135
     atom    5 type  2   force =    -0.00088951   -0.00000000   -0.00142585
     atom    6 type  1   force =    -0.00069455   -0.00000000   -0.00103135
     atom    7 type  2   force =     0.00088951    0.00000000   -0.00142585
     atom    8 type  1   force =     0.00069455    0.00000000   -0.00103135

     Total force =     0.040306     Total SCF correction =     0.000018

     DFT-D3 dispersion Force =     0.004181

     Writing all to output data dir ./tmp/SnSe_pnma.save/ :
     XML data file, charge density, pseudopotentials, collected wavefunctions
 
     init_run     :      2.13s CPU      2.44s WALL (       1 calls)
     electrons    :     60.20s CPU     63.61s WALL (       1 calls)
     forces       :      1.09s CPU      1.23s WALL (       1 calls)
     force_dftd3  :      0.05s CPU      0.06s WALL (       1 calls)

     Called by init_run:
     wfcinit      :      1.30s CPU      1.34s WALL (       1 calls)
     wfcinit:atom :      0.02s CPU      0.02s WALL (      11 calls)
     wfcinit:wfcr :      1.11s CPU      1.13s WALL (      11 calls)
     potinit      :      0.19s CPU      0.22s WALL (       1 calls)
     hinit0       :      0.25s CPU      0.27s WALL (       1 calls)

     Called by electrons:
     c_bands      :     45.06s CPU     45.39s WALL (      11 calls)
     sum_band     :     10.30s CPU     11.81s WALL (      11 calls)
     v_of_rho     :      1.70s CPU      1.76s WALL (      12 calls)
     v_h          :      0.14s CPU      0.14s WALL (      12 calls)
     v_xc         :      1.71s CPU      1.78s WALL (      13 calls)
     newd         :      3.17s CPU      4.81s WALL (      12 calls)
     mix_rho      :      0.19s CPU      0.20s WALL (      11 calls)
     energy_dftd3 :      0.04s CPU      0.05s WALL (       1 calls)

     Called by c_bands:
     init_us_2    :      1.26s CPU      1.27s WALL (     264 calls)
     cegterg      :     40.10s CPU     40.27s WALL (     121 calls)

     Called by sum_band:
     sum_band:wei :      0.00s CPU      0.00s WALL (      11 calls)
     sum_band:loo :      6.85s CPU      6.87s WALL (      11 calls)
     sum_band:buf :      0.08s CPU      0.08s WALL (     121 calls)
     sum_band:ini :      0.55s CPU      0.56s WALL (     121 calls)
     sum_band:cal :      0.72s CPU      0.72s WALL (     121 calls)
     sum_band:bec :      0.01s CPU      0.01s WALL (     121 calls)
     addusdens    :      3.07s CPU      4.51s WALL (      11 calls)
                                        0.00s GPU  (      11 calls)
     addusd:skk   :      0.02s CPU      0.02s WALL (      22 calls)
                                        0.00s GPU  (      22 calls)

     Called by *egterg:
     cdiaghg      :      0.97s CPU      0.98s WALL (     585 calls)
     cegterg:over :      2.02s CPU      2.02s WALL (     464 calls)
     cegterg:upda :      1.13s CPU      1.14s WALL (     464 calls)
     cegterg:last :      3.18s CPU      3.18s WALL (     348 calls)
     h_psi        :     29.80s CPU     29.95s WALL (     596 calls)
     s_psi        :      2.87s CPU      2.88s WALL (     596 calls)
     g_psi        :      0.12s CPU      0.12s WALL (     464 calls)

     Called by h_psi:
     h_psi:calbec :      2.58s CPU      2.59s WALL (     596 calls)
     vloc_psi     :     24.10s CPU     24.22s WALL (     596 calls)
     add_vuspsi   :      2.87s CPU      2.88s WALL (     596 calls)

     General routines
     calbec       :      3.56s CPU      3.57s WALL (     761 calls)
     fft          :      0.89s CPU      0.92s WALL (     165 calls)
     ffts         :      0.02s CPU      0.02s WALL (      23 calls)
     fftw         :     14.12s CPU     14.18s WALL (   37962 calls)
     interpolate  :      0.09s CPU      0.10s WALL (      12 calls)
 
     Parallel routines
 
     PWSCF        :   1m 3.83s CPU   1m 8.46s WALL

 
   This run was terminated on:  17:49:12  20May2026            

=------------------------------------------------------------------------------=
   JOB DONE.
=------------------------------------------------------------------------------=
