
     Program PWSCF v.7.3.1 starts on 20May2026 at 14:38:58 

     This program is part of the open-source Quantum ESPRESSO suite
     for quantum simulation of materials; please cite
         "P. Giannozzi et al., J. Phys.:Condens. Matter 21 395502 (2009);
         "P. Giannozzi et al., J. Phys.:Condens. Matter 29 465901 (2017);
         "P. Giannozzi et al., J. Chem. Phys. 152 154105 (2020);
          URL http://www.quantum-espresso.org", 
     in publications or presentations arising from this work. More details at
     http://www.quantum-espresso.org/quote

     Parallel version (MPI & OpenMP), running on       6 processor cores
     Number of MPI processes:                 6
     Threads/MPI process:                     1

     MPI processes distributed on     1 nodes
     10793 MiB available memory on the printing compute node when the environment starts
 
     Waiting for input...
     Reading input from standard input

     Current dimensions of program PWSCF are:
     Max number of different atomic species (ntypx) = 10
     Max number of k-points (npk) =  40000
     Max angular momentum in pseudopotentials (lmaxx) =  4
 
     K-points division:     npool     =       3
     R & G space division:  proc/nbgrp/npool/nimage =       2
     Subspace diagonalization in iterative solution of the eigenvalue problem:
     a serial algorithm will be used

 
     Parallelization info
     --------------------
     sticks:   dense  smooth     PW     G-vecs:    dense   smooth      PW
     Min        2071     831    247                65696    16612    2685
     Max        2072     832    248                65697    16613    2686
     Sum        4143    1663    495               131393    33225    5371
 
     Using Slab Decomposition
 


     bravais-lattice index     =            8
     lattice parameter (alat)  =      22.0531  a.u.
     unit-cell volume          =    1496.5297 (a.u.)^3
     number of atoms/cell      =            8
     number of atomic types    =            2
     number of electrons       =        80.00
     number of Kohn-Sham states=           40
     kinetic-energy cutoff     =      30.0000  Ry
     charge density cutoff     =     300.0000  Ry
     scf convergence threshold =      1.0E-08
     mixing beta               =       0.7000
     number of iterations used =            8  plain     mixing
     Exchange-correlation= SLA  PW   PBE  PBE
                           (   1   4   3   4   0   0   0)

     celldm(1)=  22.053104  celldm(2)=   0.357446  celldm(3)=   0.390360
     celldm(4)=   0.000000  celldm(5)=   0.000000  celldm(6)=   0.000000

     crystal axes: (cart. coord. in units of alat)
               a(1) = (   1.000000   0.000000   0.000000 )  
               a(2) = (   0.000000   0.357446   0.000000 )  
               a(3) = (   0.000000   0.000000   0.390360 )  

     reciprocal axes: (cart. coord. in units 2 pi/alat)
               b(1) = (  1.000000  0.000000  0.000000 )  
               b(2) = (  0.000000  2.797622  0.000000 )  
               b(3) = (  0.000000  0.000000  2.561739 )  


     PseudoPot. # 1 for Sn read from file:
     ../pseudo/Sn_pbe_v1.uspp.F.UPF
     MD5 check sum: 4cf58ce39ec5d5d420df3dd08604eb00
     Pseudo is Ultrasoft + core correction, Zval = 14.0
     Generated by new atomic code, or converted to UPF format
     Using radial grid of  891 points,  6 beta functions with: 
                l(1) =   0
                l(2) =   0
                l(3) =   1
                l(4) =   1
                l(5) =   2
                l(6) =   2
     Q(r) pseudized with  6 coefficients,  rinner =    1.200   1.200   1.200
                                                       1.200   1.200

     PseudoPot. # 2 for Se read from file:
     ../pseudo/Se_pbe_v1.uspp.F.UPF
     MD5 check sum: 1b3568f3a8ae88f9a2a0ad0698632c85
     Pseudo is Ultrasoft + core correction, Zval =  6.0
     Generated by new atomic code, or converted to UPF format
     Using radial grid of  877 points,  6 beta functions with: 
                l(1) =   0
                l(2) =   0
                l(3) =   1
                l(4) =   1
                l(5) =   2
                l(6) =   2
     Q(r) pseudized with  8 coefficients,  rinner =    1.300   1.300   1.300
                                                       1.300   1.300

     atomic species   valence    mass     pseudopotential
     Sn               14.00   118.71000     Sn( 1.00)
     Se                6.00    78.97100     Se( 1.00)

      8 Sym. Ops., with inversion, found ( 6 have fractional translation)


                                    s                        frac. trans.

      isym =  1     identity                                     

 cryst.   s( 1) = (     1          0          0      )
                  (     0          1          0      )
                  (     0          0          1      )

 cart.    s( 1) = (  1.0000000  0.0000000  0.0000000 )
                  (  0.0000000  1.0000000  0.0000000 )
                  (  0.0000000  0.0000000  1.0000000 )


      isym =  2     180 deg rotation - cart. axis [0,0,1]        

 cryst.   s( 2) = (    -1          0          0      )    f =(  0.5000000 )
                  (     0         -1          0      )       (  0.0000000 )
                  (     0          0          1      )       ( -0.5000000 )

 cart.    s( 2) = ( -1.0000000  0.0000000  0.0000000 )    f =(  0.5000000 )
                  (  0.0000000 -1.0000000  0.0000000 )       (  0.0000000 )
                  (  0.0000000  0.0000000  1.0000000 )       ( -0.1951799 )


      isym =  3     180 deg rotation - cart. axis [0,1,0]        

 cryst.   s( 3) = (    -1          0          0      )    f =(  0.0000000 )
                  (     0          1          0      )       ( -0.5000000 )
                  (     0          0         -1      )       (  0.0000000 )

 cart.    s( 3) = ( -1.0000000  0.0000000  0.0000000 )    f =(  0.0000000 )
                  (  0.0000000  1.0000000  0.0000000 )       ( -0.1787232 )
                  (  0.0000000  0.0000000 -1.0000000 )       (  0.0000000 )


      isym =  4     180 deg rotation - cart. axis [1,0,0]        

 cryst.   s( 4) = (     1          0          0      )    f =(  0.5000000 )
                  (     0         -1          0      )       (  0.5000000 )
                  (     0          0         -1      )       ( -0.5000000 )

 cart.    s( 4) = (  1.0000000  0.0000000  0.0000000 )    f =(  0.5000000 )
                  (  0.0000000 -1.0000000  0.0000000 )       (  0.1787232 )
                  (  0.0000000  0.0000000 -1.0000000 )       ( -0.1951799 )


      isym =  5     inversion                                    

 cryst.   s( 5) = (    -1          0          0      )
                  (     0         -1          0      )
                  (     0          0         -1      )

 cart.    s( 5) = ( -1.0000000  0.0000000  0.0000000 )
                  (  0.0000000 -1.0000000  0.0000000 )
                  (  0.0000000  0.0000000 -1.0000000 )


      isym =  6     inv. 180 deg rotation - cart. axis [0,0,1]   

 cryst.   s( 6) = (     1          0          0      )    f =(  0.5000000 )
                  (     0          1          0      )       (  0.0000000 )
                  (     0          0         -1      )       ( -0.5000000 )

 cart.    s( 6) = (  1.0000000  0.0000000  0.0000000 )    f =(  0.5000000 )
                  (  0.0000000  1.0000000  0.0000000 )       (  0.0000000 )
                  (  0.0000000  0.0000000 -1.0000000 )       ( -0.1951799 )


      isym =  7     inv. 180 deg rotation - cart. axis [0,1,0]   

 cryst.   s( 7) = (     1          0          0      )    f =(  0.0000000 )
                  (     0         -1          0      )       (  0.5000000 )
                  (     0          0          1      )       (  0.0000000 )

 cart.    s( 7) = (  1.0000000  0.0000000  0.0000000 )    f =(  0.0000000 )
                  (  0.0000000 -1.0000000  0.0000000 )       (  0.1787232 )
                  (  0.0000000  0.0000000  1.0000000 )       (  0.0000000 )


      isym =  8     inv. 180 deg rotation - cart. axis [1,0,0]   

 cryst.   s( 8) = (    -1          0          0      )    f =(  0.5000000 )
                  (     0          1          0      )       ( -0.5000000 )
                  (     0          0          1      )       ( -0.5000000 )

 cart.    s( 8) = ( -1.0000000  0.0000000  0.0000000 )    f =(  0.5000000 )
                  (  0.0000000  1.0000000  0.0000000 )       ( -0.1787232 )
                  (  0.0000000  0.0000000  1.0000000 )       ( -0.1951799 )


     point group D_2h (mmm) 
     there are  8 classes
     the character table:

       E     C2    C2'   C2''  i     s_v   s_v'  s_v''
A_g    1.00  1.00  1.00  1.00  1.00  1.00  1.00  1.00
B_1g   1.00  1.00 -1.00 -1.00  1.00  1.00 -1.00 -1.00
B_2g   1.00 -1.00  1.00 -1.00  1.00 -1.00  1.00 -1.00
B_3g   1.00 -1.00 -1.00  1.00  1.00 -1.00 -1.00  1.00
A_u    1.00  1.00  1.00  1.00 -1.00 -1.00 -1.00 -1.00
B_1u   1.00  1.00 -1.00 -1.00 -1.00 -1.00  1.00  1.00
B_2u   1.00 -1.00  1.00 -1.00 -1.00  1.00 -1.00  1.00
B_3u   1.00 -1.00 -1.00  1.00 -1.00  1.00  1.00 -1.00

     the symmetry operations in each class and the name of the first element:

     E        1
          identity                                               
     C2       2
          180 deg rotation - cart. axis [0,0,1]                  
     C2'      4
          180 deg rotation - cart. axis [1,0,0]                  
     C2''     3
          180 deg rotation - cart. axis [0,1,0]                  
     i        5
          inversion                                              
     s_v      6
          inv. 180 deg rotation - cart. axis [0,0,1]             
     s_v'     8
          inv. 180 deg rotation - cart. axis [1,0,0]             
     s_v''    7
          inv. 180 deg rotation - cart. axis [0,1,0]             

   Cartesian axes

     site n.     atom                  positions (alat units)
         1        Se     tau(   1) = (   0.8549563   0.0893616   0.1886407  )
         2        Sn     tau(   2) = (   0.1165395   0.0893616   0.0438323  )
         3        Se     tau(   3) = (   0.6450437   0.2680848   0.3838206  )
         4        Sn     tau(   4) = (   0.3834605   0.2680848   0.2390123  )
         5        Se     tau(   5) = (   0.3549563   0.0893616   0.0065393  )
         6        Sn     tau(   6) = (   0.6165395   0.0893616   0.1513476  )
         7        Se     tau(   7) = (   0.1450437   0.2680848   0.2017192  )
         8        Sn     tau(   8) = (   0.8834605   0.2680848   0.3465275  )

     --------------------------------------------
     DFT-D3 Dispersion Correction (3-body terms):
     --------------------------------------------
       Reference C6 values for interpolation: 

         atom   Coordination number   C6
         Se         0.000           427.35
         Se         0.990           427.57
         Se         1.981           421.05
         Sn         0.000          1255.14
         Sn         0.951          1084.09
         Sn         1.950          1010.83
         Sn         2.926           818.29
         Sn         3.912           672.20

       Values used:

         atom   Coordination number  R0_AB[au]  C6      C8
         Se         3.366            3.332    421.05  29958.36
         Sn         4.023            3.957    673.35  84513.51
         Se         3.366            3.332    421.05  29958.36
         Sn         4.023            3.957    673.35  84513.51
         Se         3.366            3.332    421.05  29958.36
         Sn         4.023            3.957    673.35  84513.51
         Se         3.366            3.332    421.05  29958.36
         Sn         4.023            3.957    673.35  84513.51

         Molecular C6 ( Ry / a.u.^6 ) =     34528.89


   Crystallographic axes

     site n.     atom                  positions (cryst. coord.)
         1        Se     tau(   1) = (  0.8549563  0.2500000  0.4832481  )
         2        Sn     tau(   2) = (  0.1165395  0.2500000  0.1122870  )
         3        Se     tau(   3) = (  0.6450437  0.7500000  0.9832481  )
         4        Sn     tau(   4) = (  0.3834605  0.7500000  0.6122870  )
         5        Se     tau(   5) = (  0.3549563  0.2500000  0.0167519  )
         6        Sn     tau(   6) = (  0.6165395  0.2500000  0.3877130  )
         7        Se     tau(   7) = (  0.1450437  0.7500000  0.5167519  )
         8        Sn     tau(   8) = (  0.8834605  0.7500000  0.8877130  )

     number of k points=    32
                       cart. coord. in units 2pi/alat
        k(    1) = (   0.1666667   0.1748514   0.1601087), wk =   0.0833333
        k(    2) = (   0.1666667   0.1748514   0.4803260), wk =   0.0833333
        k(    3) = (   0.1666667   0.1748514   0.8005433), wk =   0.0833333
        k(    4) = (   0.1666667   0.1748514   1.1207606), wk =   0.0833333
        k(    5) = (   0.1666667   0.5245541   0.1601087), wk =   0.0833333
        k(    6) = (   0.1666667   0.5245541   0.4803260), wk =   0.0833333
        k(    7) = (   0.1666667   0.5245541   0.8005433), wk =   0.0833333
        k(    8) = (   0.1666667   0.5245541   1.1207606), wk =   0.0833333
        k(    9) = (   0.1666667   0.8742568   0.1601087), wk =   0.0833333
        k(   10) = (   0.1666667   0.8742568   0.4803260), wk =   0.0833333
        k(   11) = (   0.1666667   0.8742568   0.8005433), wk =   0.0833333
        k(   12) = (   0.1666667   0.8742568   1.1207606), wk =   0.0833333
        k(   13) = (   0.1666667   1.2239596   0.1601087), wk =   0.0833333
        k(   14) = (   0.1666667   1.2239596   0.4803260), wk =   0.0833333
        k(   15) = (   0.1666667   1.2239596   0.8005433), wk =   0.0833333
        k(   16) = (   0.1666667   1.2239596   1.1207606), wk =   0.0833333
        k(   17) = (  -0.5000000   0.1748514   0.1601087), wk =   0.0416667
        k(   18) = (  -0.5000000   0.1748514   0.4803260), wk =   0.0416667
        k(   19) = (  -0.5000000   0.1748514   0.8005433), wk =   0.0416667
        k(   20) = (  -0.5000000   0.1748514   1.1207606), wk =   0.0416667
        k(   21) = (  -0.5000000   0.5245541   0.1601087), wk =   0.0416667
        k(   22) = (  -0.5000000   0.5245541   0.4803260), wk =   0.0416667
        k(   23) = (  -0.5000000   0.5245541   0.8005433), wk =   0.0416667
        k(   24) = (  -0.5000000   0.5245541   1.1207606), wk =   0.0416667
        k(   25) = (  -0.5000000   0.8742568   0.1601087), wk =   0.0416667
        k(   26) = (  -0.5000000   0.8742568   0.4803260), wk =   0.0416667
        k(   27) = (  -0.5000000   0.8742568   0.8005433), wk =   0.0416667
        k(   28) = (  -0.5000000   0.8742568   1.1207606), wk =   0.0416667
        k(   29) = (  -0.5000000   1.2239596   0.1601087), wk =   0.0416667
        k(   30) = (  -0.5000000   1.2239596   0.4803260), wk =   0.0416667
        k(   31) = (  -0.5000000   1.2239596   0.8005433), wk =   0.0416667
        k(   32) = (  -0.5000000   1.2239596   1.1207606), wk =   0.0416667

                       cryst. coord.
        k(    1) = (   0.1666667   0.0625000   0.0625000), wk =   0.0833333
        k(    2) = (   0.1666667   0.0625000   0.1875000), wk =   0.0833333
        k(    3) = (   0.1666667   0.0625000   0.3125000), wk =   0.0833333
        k(    4) = (   0.1666667   0.0625000   0.4375000), wk =   0.0833333
        k(    5) = (   0.1666667   0.1875000   0.0625000), wk =   0.0833333
        k(    6) = (   0.1666667   0.1875000   0.1875000), wk =   0.0833333
        k(    7) = (   0.1666667   0.1875000   0.3125000), wk =   0.0833333
        k(    8) = (   0.1666667   0.1875000   0.4375000), wk =   0.0833333
        k(    9) = (   0.1666667   0.3125000   0.0625000), wk =   0.0833333
        k(   10) = (   0.1666667   0.3125000   0.1875000), wk =   0.0833333
        k(   11) = (   0.1666667   0.3125000   0.3125000), wk =   0.0833333
        k(   12) = (   0.1666667   0.3125000   0.4375000), wk =   0.0833333
        k(   13) = (   0.1666667   0.4375000   0.0625000), wk =   0.0833333
        k(   14) = (   0.1666667   0.4375000   0.1875000), wk =   0.0833333
        k(   15) = (   0.1666667   0.4375000   0.3125000), wk =   0.0833333
        k(   16) = (   0.1666667   0.4375000   0.4375000), wk =   0.0833333
        k(   17) = (  -0.5000000   0.0625000   0.0625000), wk =   0.0416667
        k(   18) = (  -0.5000000   0.0625000   0.1875000), wk =   0.0416667
        k(   19) = (  -0.5000000   0.0625000   0.3125000), wk =   0.0416667
        k(   20) = (  -0.5000000   0.0625000   0.4375000), wk =   0.0416667
        k(   21) = (  -0.5000000   0.1875000   0.0625000), wk =   0.0416667
        k(   22) = (  -0.5000000   0.1875000   0.1875000), wk =   0.0416667
        k(   23) = (  -0.5000000   0.1875000   0.3125000), wk =   0.0416667
        k(   24) = (  -0.5000000   0.1875000   0.4375000), wk =   0.0416667
        k(   25) = (  -0.5000000   0.3125000   0.0625000), wk =   0.0416667
        k(   26) = (  -0.5000000   0.3125000   0.1875000), wk =   0.0416667
        k(   27) = (  -0.5000000   0.3125000   0.3125000), wk =   0.0416667
        k(   28) = (  -0.5000000   0.3125000   0.4375000), wk =   0.0416667
        k(   29) = (  -0.5000000   0.4375000   0.0625000), wk =   0.0416667
        k(   30) = (  -0.5000000   0.4375000   0.1875000), wk =   0.0416667
        k(   31) = (  -0.5000000   0.4375000   0.3125000), wk =   0.0416667
        k(   32) = (  -0.5000000   0.4375000   0.4375000), wk =   0.0416667

     Dense  grid:   131393 G-vectors     FFT dimensions: ( 128,  48,  48)

     Smooth grid:    33225 G-vectors     FFT dimensions: (  80,  30,  32)

     Dynamical RAM for                 wfc:       1.27 MB

     Dynamical RAM for     wfc (w. buffer):      15.21 MB

     Dynamical RAM for           str. fact:       2.00 MB

     Dynamical RAM for           local pot:       0.00 MB

     Dynamical RAM for          nlocal pot:       4.56 MB

     Dynamical RAM for                qrad:       2.78 MB

     Dynamical RAM for          rho,v,vnew:       6.38 MB

     Dynamical RAM for               rhoin:       2.13 MB

     Dynamical RAM for            rho*nmix:      16.04 MB

     Dynamical RAM for           G-vectors:       3.89 MB

     Dynamical RAM for          h,s,v(r/c):       0.29 MB

     Dynamical RAM for          <psi|beta>:       0.09 MB

     Dynamical RAM for                 psi:       2.53 MB

     Dynamical RAM for                hpsi:       2.53 MB

     Dynamical RAM for                spsi:       2.53 MB

     Dynamical RAM for      wfcinit/wfcrot:       3.36 MB

     Dynamical RAM for           addusdens:      64.16 MB

     Dynamical RAM for          addusforce:      66.01 MB

     Estimated static dynamical RAM per process >      45.58 MB

     Estimated max dynamical RAM per process >     127.63 MB

     Estimated total dynamical RAM >     701.63 MB

     Initial potential from superposition of free atoms

     starting charge      75.9995, renormalised to      80.0000
     Starting wfcs are   52 randomized atomic wfcs

     total cpu time spent up to now is        1.5 secs

     Self-consistent Calculation

     iteration #  1     ecut=    30.00 Ry     beta= 0.70
     Davidson diagonalization with overlap

---- Real-time Memory Report at c_bands before calling an iterative solver
           210 MiB given to the printing process from OS
             0 MiB allocation reported by mallinfo(arena+hblkhd)
         10331 MiB available memory on the node where the printing process lives
------------------
     ethr =  1.00E-02,  avg # of iterations =  2.0

     total cpu time spent up to now is        3.8 secs

     total energy              =    -826.60519518 Ry
     estimated scf accuracy    <       2.71436421 Ry

     iteration #  2     ecut=    30.00 Ry     beta= 0.70
     Davidson diagonalization with overlap

---- Real-time Memory Report at c_bands before calling an iterative solver
           260 MiB given to the printing process from OS
             0 MiB allocation reported by mallinfo(arena+hblkhd)
          9845 MiB available memory on the node where the printing process lives
------------------
     ethr =  3.39E-03,  avg # of iterations =  3.0

     total cpu time spent up to now is        6.2 secs

     total energy              =    -827.51698021 Ry
     estimated scf accuracy    <       1.04322856 Ry

     iteration #  3     ecut=    30.00 Ry     beta= 0.70
     Davidson diagonalization with overlap

---- Real-time Memory Report at c_bands before calling an iterative solver
           280 MiB given to the printing process from OS
             0 MiB allocation reported by mallinfo(arena+hblkhd)
          9750 MiB available memory on the node where the printing process lives
------------------
     ethr =  1.30E-03,  avg # of iterations =  2.6

     total cpu time spent up to now is        8.1 secs

     total energy              =    -827.73192271 Ry
     estimated scf accuracy    <       0.01055673 Ry

     iteration #  4     ecut=    30.00 Ry     beta= 0.70
     Davidson diagonalization with overlap

---- Real-time Memory Report at c_bands before calling an iterative solver
           282 MiB given to the printing process from OS
             0 MiB allocation reported by mallinfo(arena+hblkhd)
          9741 MiB available memory on the node where the printing process lives
------------------
     ethr =  1.32E-05,  avg # of iterations =  4.9

     total cpu time spent up to now is       10.7 secs

     total energy              =    -827.73862965 Ry
     estimated scf accuracy    <       0.00580373 Ry

     iteration #  5     ecut=    30.00 Ry     beta= 0.70
     Davidson diagonalization with overlap

---- Real-time Memory Report at c_bands before calling an iterative solver
           285 MiB given to the printing process from OS
             0 MiB allocation reported by mallinfo(arena+hblkhd)
          9737 MiB available memory on the node where the printing process lives
------------------
     ethr =  7.25E-06,  avg # of iterations =  3.0

     total cpu time spent up to now is       12.6 secs

     total energy              =    -827.74022345 Ry
     estimated scf accuracy    <       0.00046562 Ry

     iteration #  6     ecut=    30.00 Ry     beta= 0.70
     Davidson diagonalization with overlap

---- Real-time Memory Report at c_bands before calling an iterative solver
           287 MiB given to the printing process from OS
             0 MiB allocation reported by mallinfo(arena+hblkhd)
          9736 MiB available memory on the node where the printing process lives
------------------
     ethr =  5.82E-07,  avg # of iterations =  4.1

     total cpu time spent up to now is       14.8 secs

     total energy              =    -827.74012862 Ry
     estimated scf accuracy    <       0.00072947 Ry

     iteration #  7     ecut=    30.00 Ry     beta= 0.70
     Davidson diagonalization with overlap

---- Real-time Memory Report at c_bands before calling an iterative solver
           288 MiB given to the printing process from OS
             0 MiB allocation reported by mallinfo(arena+hblkhd)
          9734 MiB available memory on the node where the printing process lives
------------------
     ethr =  5.82E-07,  avg # of iterations =  2.9

     total cpu time spent up to now is       17.1 secs

     total energy              =    -827.74023231 Ry
     estimated scf accuracy    <       0.00001773 Ry

     iteration #  8     ecut=    30.00 Ry     beta= 0.70
     Davidson diagonalization with overlap

---- Real-time Memory Report at c_bands before calling an iterative solver
           289 MiB given to the printing process from OS
             0 MiB allocation reported by mallinfo(arena+hblkhd)
          9733 MiB available memory on the node where the printing process lives
------------------
     ethr =  2.22E-08,  avg # of iterations =  5.0

     total cpu time spent up to now is       19.7 secs

     total energy              =    -827.74024698 Ry
     estimated scf accuracy    <       0.00001338 Ry

     iteration #  9     ecut=    30.00 Ry     beta= 0.70
     Davidson diagonalization with overlap

---- Real-time Memory Report at c_bands before calling an iterative solver
           290 MiB given to the printing process from OS
             0 MiB allocation reported by mallinfo(arena+hblkhd)
          9732 MiB available memory on the node where the printing process lives
------------------
     ethr =  1.67E-08,  avg # of iterations =  2.0

     total cpu time spent up to now is       21.5 secs

     total energy              =    -827.74024836 Ry
     estimated scf accuracy    <       0.00000075 Ry

     iteration # 10     ecut=    30.00 Ry     beta= 0.70
     Davidson diagonalization with overlap

---- Real-time Memory Report at c_bands before calling an iterative solver
           291 MiB given to the printing process from OS
             0 MiB allocation reported by mallinfo(arena+hblkhd)
          9732 MiB available memory on the node where the printing process lives
------------------
     ethr =  9.36E-10,  avg # of iterations =  4.3

     total cpu time spent up to now is       23.8 secs

     total energy              =    -827.74024870 Ry
     estimated scf accuracy    <       0.00000004 Ry

     iteration # 11     ecut=    30.00 Ry     beta= 0.70
     Davidson diagonalization with overlap

---- Real-time Memory Report at c_bands before calling an iterative solver
           291 MiB given to the printing process from OS
             0 MiB allocation reported by mallinfo(arena+hblkhd)
          9732 MiB available memory on the node where the printing process lives
------------------
     ethr =  4.86E-11,  avg # of iterations =  5.0

     total cpu time spent up to now is       26.1 secs

     total energy              =    -827.74024871 Ry
     estimated scf accuracy    <       0.00000002 Ry

     iteration # 12     ecut=    30.00 Ry     beta= 0.70
     Davidson diagonalization with overlap

---- Real-time Memory Report at c_bands before calling an iterative solver
           292 MiB given to the printing process from OS
             0 MiB allocation reported by mallinfo(arena+hblkhd)
          9732 MiB available memory on the node where the printing process lives
------------------
     ethr =  2.05E-11,  avg # of iterations =  2.8

     total cpu time spent up to now is       28.1 secs

     End of self-consistent calculation

          k = 0.1667 0.1749 0.1601 (  4158 PWs)   bands (ev):

   -13.8920 -13.8835 -13.8797 -13.8765 -13.8751 -13.8732 -13.8699 -13.8695
   -13.8606 -13.8584 -13.8576 -13.8554 -13.8468 -13.8457 -13.8285 -13.8251
   -13.8219 -13.8195 -13.8125 -13.8076  -6.0512  -5.7843  -5.1263  -4.7676
     0.3067   1.1121   1.8967   2.2907   2.9341   4.1395   4.2881   4.5489
     4.7953   4.8274   5.3823   5.6772   5.9062   6.2521   6.7271   7.0167

     occupation numbers 
     1.0000   1.0000   1.0000   1.0000   1.0000   1.0000   1.0000   1.0000
     1.0000   1.0000   1.0000   1.0000   1.0000   1.0000   1.0000   1.0000
     1.0000   1.0000   1.0000   1.0000   1.0000   1.0000   1.0000   1.0000
     1.0000   1.0000   1.0000   1.0000   1.0000   1.0000   1.0000   1.0000
     1.0000   1.0000   1.0000   1.0000   1.0000   1.0000   1.0000   1.0000

          k = 0.1667 0.1749 0.4803 (  4138 PWs)   bands (ev):

   -13.8908 -13.8831 -13.8797 -13.8769 -13.8756 -13.8743 -13.8703 -13.8696
   -13.8609 -13.8580 -13.8562 -13.8530 -13.8465 -13.8451 -13.8287 -13.8247
   -13.8226 -13.8199 -13.8122 -13.8080  -5.9382  -5.6810  -5.1196  -4.7950
    -0.0133   0.8376   1.3913   1.9484   3.0238   4.1919   4.4018   4.8961
     5.1179   5.3560   5.3934   5.7847   6.1961   6.4998   6.7427   7.0085

     occupation numbers 
     1.0000   1.0000   1.0000   1.0000   1.0000   1.0000   1.0000   1.0000
     1.0000   1.0000   1.0000   1.0000   1.0000   1.0000   1.0000   1.0000
     1.0000   1.0000   1.0000   1.0000   1.0000   1.0000   1.0000   1.0000
     1.0000   1.0000   1.0000   1.0000   1.0000   1.0000   1.0000   1.0000
     1.0000   1.0000   1.0000   1.0000   1.0000   1.0000   1.0000   1.0000

          k = 0.1667 0.1749 0.8005 (  4151 PWs)   bands (ev):

   -13.8886 -13.8829 -13.8799 -13.8782 -13.8760 -13.8758 -13.8707 -13.8700
   -13.8608 -13.8587 -13.8531 -13.8495 -13.8465 -13.8441 -13.8285 -13.8251
   -13.8228 -13.8205 -13.8115 -13.8087  -5.7361  -5.4976  -5.1448  -4.8737
    -0.3346   0.3300   0.9567   1.4597   3.3235   4.4234   4.6270   5.1862
     5.3540   5.5244   5.7554   5.9023   6.3607   6.8267   6.8475   7.2584

     occupation numbers 
     1.0000   1.0000   1.0000   1.0000   1.0000   1.0000   1.0000   1.0000
     1.0000   1.0000   1.0000   1.0000   1.0000   1.0000   1.0000   1.0000
     1.0000   1.0000   1.0000   1.0000   1.0000   1.0000   1.0000   1.0000
     1.0000   1.0000   1.0000   1.0000   1.0000   1.0000   1.0000   1.0000
     1.0000   1.0000   1.0000   1.0000   1.0000   1.0000   1.0000   1.0000

          k = 0.1667 0.1749 1.1208 (  4142 PWs)   bands (ev):

   -13.8861 -13.8839 -13.8797 -13.8792 -13.8767 -13.8764 -13.8709 -13.8706
   -13.8603 -13.8595 -13.8499 -13.8480 -13.8457 -13.8442 -13.8277 -13.8264
   -13.8221 -13.8213 -13.8107 -13.8097  -5.4975  -5.3346  -5.1946  -5.0241
    -0.4127  -0.1667   0.8478   1.0406   3.7954   4.3089   4.9909   5.2371
     5.4428   5.5555   5.7784   6.0812   6.6472   6.9749   7.1309   7.2183

     occupation numbers 
     1.0000   1.0000   1.0000   1.0000   1.0000   1.0000   1.0000   1.0000
     1.0000   1.0000   1.0000   1.0000   1.0000   1.0000   1.0000   1.0000
     1.0000   1.0000   1.0000   1.0000   1.0000   1.0000   1.0000   1.0000
     1.0000   1.0000   1.0000   1.0000   1.0000   1.0000   1.0000   1.0000
     1.0000   1.0000   1.0000   1.0000   1.0000   1.0000   1.0000   1.0000

          k = 0.1667 0.5246 0.1601 (  4152 PWs)   bands (ev):

   -13.8864 -13.8815 -13.8778 -13.8755 -13.8743 -13.8734 -13.8728 -13.8715
   -13.8631 -13.8608 -13.8578 -13.8525 -13.8464 -13.8441 -13.8267 -13.8258
   -13.8229 -13.8204 -13.8121 -13.8085  -5.8934  -5.6476  -5.0568  -4.7549
     0.1499   0.8483   1.5817   1.6932   3.0489   4.0221   4.3120   4.6085
     4.9202   5.1138   5.3951   5.7160   5.9778   6.5790   6.8213   6.9261

     occupation numbers 
     1.0000   1.0000   1.0000   1.0000   1.0000   1.0000   1.0000   1.0000
     1.0000   1.0000   1.0000   1.0000   1.0000   1.0000   1.0000   1.0000
     1.0000   1.0000   1.0000   1.0000   1.0000   1.0000   1.0000   1.0000
     1.0000   1.0000   1.0000   1.0000   1.0000   1.0000   1.0000   1.0000
     1.0000   1.0000   1.0000   1.0000   1.0000   1.0000   1.0000   1.0000

          k = 0.1667 0.5246 0.4803 (  4160 PWs)   bands (ev):

   -13.8863 -13.8814 -13.8793 -13.8760 -13.8746 -13.8737 -13.8725 -13.8720
   -13.8634 -13.8609 -13.8555 -13.8506 -13.8464 -13.8431 -13.8267 -13.8254
   -13.8231 -13.8212 -13.8118 -13.8088  -5.7861  -5.5505  -5.0481  -4.7735
    -0.0120   0.7705   1.2425   1.5987   3.1804   3.6228   3.8945   4.6519
     4.8549   5.4018   5.6700   5.7927   6.4273   6.5491   6.8270   7.0028

     occupation numbers 
     1.0000   1.0000   1.0000   1.0000   1.0000   1.0000   1.0000   1.0000
     1.0000   1.0000   1.0000   1.0000   1.0000   1.0000   1.0000   1.0000
     1.0000   1.0000   1.0000   1.0000   1.0000   1.0000   1.0000   1.0000
     1.0000   1.0000   1.0000   1.0000   1.0000   1.0000   1.0000   1.0000
     1.0000   1.0000   1.0000   1.0000   1.0000   1.0000   1.0000   1.0000

          k = 0.1667 0.5246 0.8005 (  4143 PWs)   bands (ev):

   -13.8860 -13.8820 -13.8806 -13.8771 -13.8751 -13.8740 -13.8729 -13.8722
   -13.8630 -13.8613 -13.8525 -13.8484 -13.8455 -13.8421 -13.8264 -13.8247
   -13.8235 -13.8224 -13.8113 -13.8092  -5.5964  -5.3802  -5.0662  -4.8339
    -0.1975   0.4347   0.9872   1.3667   3.4387   3.5742   3.8435   4.5834
     4.6837   5.4532   5.5140   6.0794   6.2899   6.5302   6.7287   6.9894

     occupation numbers 
     1.0000   1.0000   1.0000   1.0000   1.0000   1.0000   1.0000   1.0000
     1.0000   1.0000   1.0000   1.0000   1.0000   1.0000   1.0000   1.0000
     1.0000   1.0000   1.0000   1.0000   1.0000   1.0000   1.0000   1.0000
     1.0000   1.0000   1.0000   1.0000   1.0000   1.0000   1.0000   1.0000
     1.0000   1.0000   1.0000   1.0000   1.0000   1.0000   1.0000   1.0000

          k = 0.1667 0.5246 1.1208 (  4145 PWs)   bands (ev):

   -13.8854 -13.8841 -13.8798 -13.8785 -13.8753 -13.8748 -13.8729 -13.8724
   -13.8623 -13.8617 -13.8499 -13.8483 -13.8433 -13.8420 -13.8256 -13.8245
   -13.8239 -13.8232 -13.8106 -13.8099  -5.3768  -5.2308  -5.1072  -4.9586
    -0.2219   0.0099   0.9570   1.1054   3.7559   3.8137   4.0718   4.3375
     4.6140   4.9496   5.5839   5.8695   6.2118   6.4512   6.7014   6.8829

     occupation numbers 
     1.0000   1.0000   1.0000   1.0000   1.0000   1.0000   1.0000   1.0000
     1.0000   1.0000   1.0000   1.0000   1.0000   1.0000   1.0000   1.0000
     1.0000   1.0000   1.0000   1.0000   1.0000   1.0000   1.0000   1.0000
     1.0000   1.0000   1.0000   1.0000   1.0000   1.0000   1.0000   1.0000
     1.0000   1.0000   1.0000   1.0000   1.0000   1.0000   1.0000   1.0000

          k = 0.1667 0.8743 0.1601 (  4159 PWs)   bands (ev):

   -13.8837 -13.8815 -13.8792 -13.8787 -13.8740 -13.8700 -13.8697 -13.8687
   -13.8635 -13.8632 -13.8581 -13.8505 -13.8460 -13.8409 -13.8302 -13.8295
   -13.8210 -13.8173 -13.8113 -13.8098  -5.6075  -5.4112  -4.9782  -4.7919
    -0.0667   0.5026   0.8451   1.1181   3.3852   4.1419   4.5014   4.8156
     5.1982   5.2535   5.5494   5.7298   6.1165   6.5738   6.6728   7.0157

     occupation numbers 
     1.0000   1.0000   1.0000   1.0000   1.0000   1.0000   1.0000   1.0000
     1.0000   1.0000   1.0000   1.0000   1.0000   1.0000   1.0000   1.0000
     1.0000   1.0000   1.0000   1.0000   1.0000   1.0000   1.0000   1.0000
     1.0000   1.0000   1.0000   1.0000   1.0000   1.0000   1.0000   1.0000
     1.0000   1.0000   1.0000   1.0000   1.0000   1.0000   1.0000   1.0000

          k = 0.1667 0.8743 0.4803 (  4165 PWs)   bands (ev):

   -13.8861 -13.8832 -13.8806 -13.8792 -13.8746 -13.8698 -13.8691 -13.8685
   -13.8633 -13.8629 -13.8562 -13.8501 -13.8447 -13.8403 -13.8297 -13.8290
   -13.8211 -13.8179 -13.8111 -13.8098  -5.5141  -5.3282  -4.9622  -4.7898
    -0.0297   0.5953   0.8689   1.0667   3.3888   3.5049   3.8369   4.3939
     4.8197   5.3879   5.4988   5.9202   6.0263   6.3186   6.5705   6.7903

     occupation numbers 
     1.0000   1.0000   1.0000   1.0000   1.0000   1.0000   1.0000   1.0000
     1.0000   1.0000   1.0000   1.0000   1.0000   1.0000   1.0000   1.0000
     1.0000   1.0000   1.0000   1.0000   1.0000   1.0000   1.0000   1.0000
     1.0000   1.0000   1.0000   1.0000   1.0000   1.0000   1.0000   1.0000
     1.0000   1.0000   1.0000   1.0000   1.0000   1.0000   1.0000   1.0000

          k = 0.1667 0.8743 0.8005 (  4157 PWs)   bands (ev):

   -13.8885 -13.8862 -13.8822 -13.8811 -13.8741 -13.8705 -13.8685 -13.8681
   -13.8627 -13.8625 -13.8538 -13.8498 -13.8424 -13.8395 -13.8288 -13.8282
   -13.8210 -13.8188 -13.8108 -13.8099  -5.3533  -5.1873  -4.9607  -4.8092
     0.0243   0.5560   0.9175   1.0823   2.9989   3.3252   3.7638   3.9980
     4.2741   4.9046   5.2091   5.5451   5.8412   6.0617   6.2580   6.7381

     occupation numbers 
     1.0000   1.0000   1.0000   1.0000   1.0000   1.0000   1.0000   1.0000
     1.0000   1.0000   1.0000   1.0000   1.0000   1.0000   1.0000   1.0000
     1.0000   1.0000   1.0000   1.0000   1.0000   1.0000   1.0000   1.0000
     1.0000   1.0000   1.0000   1.0000   1.0000   1.0000   1.0000   1.0000
     1.0000   1.0000   1.0000   1.0000   1.0000   1.0000   1.0000   1.0000

          k = 0.1667 0.8743 1.1208 (  4140 PWs)   bands (ev):

   -13.8896 -13.8888 -13.8832 -13.8828 -13.8730 -13.8717 -13.8682 -13.8681
   -13.8621 -13.8621 -13.8517 -13.8503 -13.8401 -13.8392 -13.8280 -13.8277
   -13.8206 -13.8198 -13.8105 -13.8101  -5.1765  -5.0682  -4.9800  -4.8784
     0.1190   0.3120   1.0447   1.1013   3.0119   3.3491   3.4094   3.7887
     4.1736   4.5870   4.8900   5.2888   5.4811   5.7282   6.3299   6.4767

     occupation numbers 
     1.0000   1.0000   1.0000   1.0000   1.0000   1.0000   1.0000   1.0000
     1.0000   1.0000   1.0000   1.0000   1.0000   1.0000   1.0000   1.0000
     1.0000   1.0000   1.0000   1.0000   1.0000   1.0000   1.0000   1.0000
     1.0000   1.0000   1.0000   1.0000   1.0000   1.0000   1.0000   1.0000
     1.0000   1.0000   1.0000   1.0000   1.0000   1.0000   1.0000   1.0000

          k = 0.1667 1.2240 0.1601 (  4171 PWs)   bands (ev):

   -13.8852 -13.8836 -13.8826 -13.8812 -13.8704 -13.8685 -13.8666 -13.8656
   -13.8624 -13.8601 -13.8589 -13.8539 -13.8417 -13.8379 -13.8359 -13.8340
   -13.8161 -13.8139 -13.8120 -13.8115  -5.2612  -5.1559  -4.9920  -4.9590
    -0.1142   0.1942   0.3864   0.6265   3.9051   4.3571   4.7190   5.0183
     5.1964   5.2593   5.6470   5.8956   6.2449   6.4216   6.4941   6.6507

     occupation numbers 
     1.0000   1.0000   1.0000   1.0000   1.0000   1.0000   1.0000   1.0000
     1.0000   1.0000   1.0000   1.0000   1.0000   1.0000   1.0000   1.0000
     1.0000   1.0000   1.0000   1.0000   1.0000   1.0000   1.0000   1.0000
     1.0000   1.0000   1.0000   1.0000   1.0000   1.0000   1.0000   1.0000
     1.0000   1.0000   1.0000   1.0000   1.0000   1.0000   1.0000   1.0000

          k = 0.1667 1.2240 0.4803 (  4173 PWs)   bands (ev):

   -13.8876 -13.8861 -13.8842 -13.8831 -13.8706 -13.8686 -13.8657 -13.8650
   -13.8619 -13.8603 -13.8572 -13.8535 -13.8407 -13.8381 -13.8340 -13.8330
   -13.8163 -13.8145 -13.8117 -13.8114  -5.1925  -5.0960  -4.9583  -4.9242
     0.0308   0.3323   0.5165   0.6861   3.6613   3.8588   4.1140   4.4018
     4.5434   5.0071   5.4229   5.6056   5.7245   6.0121   6.4282   6.7060

     occupation numbers 
     1.0000   1.0000   1.0000   1.0000   1.0000   1.0000   1.0000   1.0000
     1.0000   1.0000   1.0000   1.0000   1.0000   1.0000   1.0000   1.0000
     1.0000   1.0000   1.0000   1.0000   1.0000   1.0000   1.0000   1.0000
     1.0000   1.0000   1.0000   1.0000   1.0000   1.0000   1.0000   1.0000
     1.0000   1.0000   1.0000   1.0000   1.0000   1.0000   1.0000   1.0000

          k = 0.1667 1.2240 0.8005 (  4158 PWs)   bands (ev):

   -13.8907 -13.8896 -13.8865 -13.8857 -13.8705 -13.8690 -13.8649 -13.8645
   -13.8611 -13.8600 -13.8555 -13.8531 -13.8391 -13.8377 -13.8319 -13.8315
   -13.8165 -13.8153 -13.8114 -13.8113  -5.0819  -5.0019  -4.9175  -4.8804
     0.2757   0.5446   0.7233   0.7821   3.0147   3.4542   3.5502   3.9144
     4.0859   4.4687   4.7511   5.2162   5.3067   5.5802   6.2818   6.4307

     occupation numbers 
     1.0000   1.0000   1.0000   1.0000   1.0000   1.0000   1.0000   1.0000
     1.0000   1.0000   1.0000   1.0000   1.0000   1.0000   1.0000   1.0000
     1.0000   1.0000   1.0000   1.0000   1.0000   1.0000   1.0000   1.0000
     1.0000   1.0000   1.0000   1.0000   1.0000   1.0000   1.0000   1.0000
     1.0000   1.0000   1.0000   1.0000   1.0000   1.0000   1.0000   1.0000

          k = 0.1667 1.2240 1.1208 (  4137 PWs)   bands (ev):

   -13.8925 -13.8922 -13.8880 -13.8877 -13.8702 -13.8697 -13.8645 -13.8644
   -13.8602 -13.8598 -13.8541 -13.8533 -13.8376 -13.8372 -13.8305 -13.8304
   -13.8163 -13.8159 -13.8112 -13.8112  -4.9765  -4.9298  -4.8971  -4.8659
     0.5129   0.6270   0.8959   0.9247   2.7557   2.9573   3.3249   3.4969
     3.8684   3.9504   4.4247   4.7388   5.2832   5.4762   6.1715   6.2148

     occupation numbers 
     1.0000   1.0000   1.0000   1.0000   1.0000   1.0000   1.0000   1.0000
     1.0000   1.0000   1.0000   1.0000   1.0000   1.0000   1.0000   1.0000
     1.0000   1.0000   1.0000   1.0000   1.0000   1.0000   1.0000   1.0000
     1.0000   1.0000   1.0000   1.0000   1.0000   1.0000   1.0000   1.0000
     1.0000   1.0000   1.0000   1.0000   1.0000   1.0000   1.0000   1.0000

          k =-0.5000 0.1749 0.1601 (  4146 PWs)   bands (ev):

   -13.8883 -13.8883 -13.8778 -13.8778 -13.8744 -13.8744 -13.8694 -13.8694
   -13.8594 -13.8594 -13.8565 -13.8565 -13.8465 -13.8465 -13.8268 -13.8268
   -13.8206 -13.8206 -13.8099 -13.8099  -5.9413  -5.9413  -4.9234  -4.9234
     0.5905   0.5905   2.1971   2.1971   3.5532   3.5532   4.4550   4.4550
     4.8771   4.8771   5.4606   5.4606   5.8020   5.8020   6.9204   6.9204

     occupation numbers 
     1.0000   1.0000   1.0000   1.0000   1.0000   1.0000   1.0000   1.0000
     1.0000   1.0000   1.0000   1.0000   1.0000   1.0000   1.0000   1.0000
     1.0000   1.0000   1.0000   1.0000   1.0000   1.0000   1.0000   1.0000
     1.0000   1.0000   1.0000   1.0000   1.0000   1.0000   1.0000   1.0000
     1.0000   1.0000   1.0000   1.0000   1.0000   1.0000   1.0000   1.0000

          k =-0.5000 0.1749 0.4803 (  4136 PWs)   bands (ev):

   -13.8875 -13.8875 -13.8778 -13.8778 -13.8752 -13.8752 -13.8698 -13.8698
   -13.8594 -13.8594 -13.8544 -13.8544 -13.8460 -13.8460 -13.8268 -13.8268
   -13.8210 -13.8210 -13.8100 -13.8100  -5.8333  -5.8333  -4.9336  -4.9336
     0.2923   0.2923   1.7429   1.7429   3.7559   3.7559   4.5104   4.5104
     5.1929   5.1929   5.6119   5.6119   6.2684   6.2684   6.8124   6.8124

     occupation numbers 
     1.0000   1.0000   1.0000   1.0000   1.0000   1.0000   1.0000   1.0000
     1.0000   1.0000   1.0000   1.0000   1.0000   1.0000   1.0000   1.0000
     1.0000   1.0000   1.0000   1.0000   1.0000   1.0000   1.0000   1.0000
     1.0000   1.0000   1.0000   1.0000   1.0000   1.0000   1.0000   1.0000
     1.0000   1.0000   1.0000   1.0000   1.0000   1.0000   1.0000   1.0000

          k =-0.5000 0.1749 0.8005 (  4140 PWs)   bands (ev):

   -13.8862 -13.8862 -13.8785 -13.8785 -13.8759 -13.8759 -13.8706 -13.8706
   -13.8595 -13.8595 -13.8514 -13.8514 -13.8453 -13.8453 -13.8268 -13.8268
   -13.8216 -13.8216 -13.8100 -13.8100  -5.6423  -5.6423  -4.9840  -4.9840
    -0.0572  -0.0572   1.2057   1.2057   4.0701   4.0701   4.7883   4.7883
     5.3326   5.3326   5.8467   5.8467   6.4813   6.4813   7.0109   7.0109

     occupation numbers 
     1.0000   1.0000   1.0000   1.0000   1.0000   1.0000   1.0000   1.0000
     1.0000   1.0000   1.0000   1.0000   1.0000   1.0000   1.0000   1.0000
     1.0000   1.0000   1.0000   1.0000   1.0000   1.0000   1.0000   1.0000
     1.0000   1.0000   1.0000   1.0000   1.0000   1.0000   1.0000   1.0000
     1.0000   1.0000   1.0000   1.0000   1.0000   1.0000   1.0000   1.0000

          k =-0.5000 0.1749 1.1208 (  4136 PWs)   bands (ev):

   -13.8850 -13.8850 -13.8796 -13.8796 -13.8763 -13.8763 -13.8712 -13.8712
   -13.8595 -13.8595 -13.8490 -13.8490 -13.8449 -13.8449 -13.8269 -13.8269
   -13.8219 -13.8219 -13.8101 -13.8101  -5.4362  -5.4362  -5.0897  -5.0897
    -0.2594  -0.2594   0.8554   0.8554   4.4802   4.4802   5.0883   5.0883
     5.1664   5.1664   5.6935   5.6935   6.8763   6.8763   7.1500   7.1500

     occupation numbers 
     1.0000   1.0000   1.0000   1.0000   1.0000   1.0000   1.0000   1.0000
     1.0000   1.0000   1.0000   1.0000   1.0000   1.0000   1.0000   1.0000
     1.0000   1.0000   1.0000   1.0000   1.0000   1.0000   1.0000   1.0000
     1.0000   1.0000   1.0000   1.0000   1.0000   1.0000   1.0000   1.0000
     1.0000   1.0000   1.0000   1.0000   1.0000   1.0000   1.0000   1.0000

          k =-0.5000 0.5246 0.1601 (  4146 PWs)   bands (ev):

   -13.8840 -13.8840 -13.8768 -13.8768 -13.8743 -13.8743 -13.8718 -13.8718
   -13.8619 -13.8619 -13.8551 -13.8551 -13.8452 -13.8452 -13.8261 -13.8261
   -13.8218 -13.8218 -13.8102 -13.8102  -5.7916  -5.7916  -4.8844  -4.8844
     0.4131   0.4131   1.6901   1.6901   3.6816   3.6816   4.3284   4.3284
     5.1911   5.1911   5.3662   5.3662   6.0397   6.0397   6.9724   6.9724

     occupation numbers 
     1.0000   1.0000   1.0000   1.0000   1.0000   1.0000   1.0000   1.0000
     1.0000   1.0000   1.0000   1.0000   1.0000   1.0000   1.0000   1.0000
     1.0000   1.0000   1.0000   1.0000   1.0000   1.0000   1.0000   1.0000
     1.0000   1.0000   1.0000   1.0000   1.0000   1.0000   1.0000   1.0000
     1.0000   1.0000   1.0000   1.0000   1.0000   1.0000   1.0000   1.0000

          k =-0.5000 0.5246 0.4803 (  4160 PWs)   bands (ev):

   -13.8840 -13.8840 -13.8781 -13.8781 -13.8741 -13.8741 -13.8720 -13.8720
   -13.8619 -13.8619 -13.8534 -13.8534 -13.8445 -13.8445 -13.8259 -13.8259
   -13.8224 -13.8224 -13.8102 -13.8102  -5.6894  -5.6894  -4.8895  -4.8895
     0.2784   0.2784   1.4799   1.4799   3.6367   3.6367   4.1753   4.1753
     4.8460   4.8460   5.8427   5.8427   6.4299   6.4299   6.9126   6.9126

     occupation numbers 
     1.0000   1.0000   1.0000   1.0000   1.0000   1.0000   1.0000   1.0000
     1.0000   1.0000   1.0000   1.0000   1.0000   1.0000   1.0000   1.0000
     1.0000   1.0000   1.0000   1.0000   1.0000   1.0000   1.0000   1.0000
     1.0000   1.0000   1.0000   1.0000   1.0000   1.0000   1.0000   1.0000
     1.0000   1.0000   1.0000   1.0000   1.0000   1.0000   1.0000   1.0000

          k =-0.5000 0.5246 0.8005 (  4154 PWs)   bands (ev):

   -13.8840 -13.8840 -13.8798 -13.8798 -13.8741 -13.8741 -13.8721 -13.8721
   -13.8618 -13.8618 -13.8512 -13.8512 -13.8433 -13.8433 -13.8255 -13.8255
   -13.8232 -13.8232 -13.8101 -13.8101  -5.5109  -5.5109  -4.9275  -4.9275
     0.0686   0.0686   1.1820   1.1820   3.6319   3.6319   4.3470   4.3470
     4.7047   4.7047   5.8928   5.8928   6.2903   6.2903   6.8740   6.8740

     occupation numbers 
     1.0000   1.0000   1.0000   1.0000   1.0000   1.0000   1.0000   1.0000
     1.0000   1.0000   1.0000   1.0000   1.0000   1.0000   1.0000   1.0000
     1.0000   1.0000   1.0000   1.0000   1.0000   1.0000   1.0000   1.0000
     1.0000   1.0000   1.0000   1.0000   1.0000   1.0000   1.0000   1.0000
     1.0000   1.0000   1.0000   1.0000   1.0000   1.0000   1.0000   1.0000

          k =-0.5000 0.5246 1.1208 (  4140 PWs)   bands (ev):

   -13.8841 -13.8841 -13.8810 -13.8810 -13.8742 -13.8742 -13.8722 -13.8722
   -13.8617 -13.8617 -13.8497 -13.8497 -13.8423 -13.8423 -13.8249 -13.8249
   -13.8240 -13.8240 -13.8100 -13.8100  -5.3217  -5.3217  -5.0154  -5.0154
    -0.0800  -0.0800   0.9598   0.9598   3.8699   3.8699   4.2610   4.2610
     4.9540   4.9540   5.4825   5.4825   6.1602   6.1602   6.6961   6.6961

     occupation numbers 
     1.0000   1.0000   1.0000   1.0000   1.0000   1.0000   1.0000   1.0000
     1.0000   1.0000   1.0000   1.0000   1.0000   1.0000   1.0000   1.0000
     1.0000   1.0000   1.0000   1.0000   1.0000   1.0000   1.0000   1.0000
     1.0000   1.0000   1.0000   1.0000   1.0000   1.0000   1.0000   1.0000
     1.0000   1.0000   1.0000   1.0000   1.0000   1.0000   1.0000   1.0000

          k =-0.5000 0.8743 0.1601 (  4150 PWs)   bands (ev):

   -13.8831 -13.8831 -13.8783 -13.8783 -13.8721 -13.8721 -13.8698 -13.8698
   -13.8631 -13.8631 -13.8547 -13.8547 -13.8428 -13.8428 -13.8300 -13.8300
   -13.8191 -13.8191 -13.8105 -13.8105  -5.5250  -5.5250  -4.8690  -4.8690
     0.1691   0.1691   0.9900   0.9900   3.9701   3.9701   4.5050   4.5050
     5.3594   5.3594   5.5314   5.5314   6.0718   6.0718   6.8571   6.8571

     occupation numbers 
     1.0000   1.0000   1.0000   1.0000   1.0000   1.0000   1.0000   1.0000
     1.0000   1.0000   1.0000   1.0000   1.0000   1.0000   1.0000   1.0000
     1.0000   1.0000   1.0000   1.0000   1.0000   1.0000   1.0000   1.0000
     1.0000   1.0000   1.0000   1.0000   1.0000   1.0000   1.0000   1.0000
     1.0000   1.0000   1.0000   1.0000   1.0000   1.0000   1.0000   1.0000

          k =-0.5000 0.8743 0.4803 (  4170 PWs)   bands (ev):

   -13.8848 -13.8848 -13.8799 -13.8799 -13.8722 -13.8722 -13.8691 -13.8691
   -13.8626 -13.8626 -13.8539 -13.8539 -13.8419 -13.8419 -13.8296 -13.8296
   -13.8193 -13.8193 -13.8104 -13.8104  -5.4366  -5.4366  -4.8603  -4.8603
     0.2236   0.2236   0.9912   0.9912   3.5320   3.5320   4.2945   4.2945
     4.7696   4.7696   5.7855   5.7855   5.9911   5.9911   6.7512   6.7512

     occupation numbers 
     1.0000   1.0000   1.0000   1.0000   1.0000   1.0000   1.0000   1.0000
     1.0000   1.0000   1.0000   1.0000   1.0000   1.0000   1.0000   1.0000
     1.0000   1.0000   1.0000   1.0000   1.0000   1.0000   1.0000   1.0000
     1.0000   1.0000   1.0000   1.0000   1.0000   1.0000   1.0000   1.0000
     1.0000   1.0000   1.0000   1.0000   1.0000   1.0000   1.0000   1.0000

          k =-0.5000 0.8743 0.8005 (  4168 PWs)   bands (ev):

   -13.8871 -13.8871 -13.8822 -13.8822 -13.8722 -13.8722 -13.8684 -13.8684
   -13.8619 -13.8619 -13.8527 -13.8527 -13.8402 -13.8402 -13.8291 -13.8291
   -13.8197 -13.8197 -13.8103 -13.8103  -5.2866  -5.2866  -4.8687  -4.8687
     0.2561   0.2561   1.0044   1.0044   3.1805   3.1805   3.9659   3.9659
     4.5962   4.5962   5.2586   5.2586   5.8069   5.8069   6.5753   6.5753

     occupation numbers 
     1.0000   1.0000   1.0000   1.0000   1.0000   1.0000   1.0000   1.0000
     1.0000   1.0000   1.0000   1.0000   1.0000   1.0000   1.0000   1.0000
     1.0000   1.0000   1.0000   1.0000   1.0000   1.0000   1.0000   1.0000
     1.0000   1.0000   1.0000   1.0000   1.0000   1.0000   1.0000   1.0000
     1.0000   1.0000   1.0000   1.0000   1.0000   1.0000   1.0000   1.0000

          k =-0.5000 0.8743 1.1208 (  4148 PWs)   bands (ev):

   -13.8886 -13.8886 -13.8839 -13.8839 -13.8722 -13.8722 -13.8681 -13.8681
   -13.8615 -13.8615 -13.8520 -13.8520 -13.8388 -13.8388 -13.8286 -13.8286
   -13.8199 -13.8199 -13.8102 -13.8102  -5.1352  -5.1352  -4.9166  -4.9166
     0.2324   0.2324   1.0341   1.0341   3.1920   3.1920   3.5417   3.5417
     4.5905   4.5905   4.9037   4.9037   5.7367   5.7367   6.2305   6.2305

     occupation numbers 
     1.0000   1.0000   1.0000   1.0000   1.0000   1.0000   1.0000   1.0000
     1.0000   1.0000   1.0000   1.0000   1.0000   1.0000   1.0000   1.0000
     1.0000   1.0000   1.0000   1.0000   1.0000   1.0000   1.0000   1.0000
     1.0000   1.0000   1.0000   1.0000   1.0000   1.0000   1.0000   1.0000
     1.0000   1.0000   1.0000   1.0000   1.0000   1.0000   1.0000   1.0000

          k =-0.5000 1.2240 0.1601 (  4176 PWs)   bands (ev):

   -13.8841 -13.8841 -13.8824 -13.8824 -13.8684 -13.8684 -13.8677 -13.8677
   -13.8605 -13.8605 -13.8567 -13.8567 -13.8394 -13.8394 -13.8352 -13.8352
   -13.8150 -13.8150 -13.8118 -13.8118  -5.2148  -5.2148  -4.9696  -4.9696
     0.1086   0.1086   0.3983   0.3983   4.4370   4.4370   4.7822   4.7822
     5.2703   5.2703   5.5005   5.5005   6.1904   6.1904   6.5291   6.5291

     occupation numbers 
     1.0000   1.0000   1.0000   1.0000   1.0000   1.0000   1.0000   1.0000
     1.0000   1.0000   1.0000   1.0000   1.0000   1.0000   1.0000   1.0000
     1.0000   1.0000   1.0000   1.0000   1.0000   1.0000   1.0000   1.0000
     1.0000   1.0000   1.0000   1.0000   1.0000   1.0000   1.0000   1.0000
     1.0000   1.0000   1.0000   1.0000   1.0000   1.0000   1.0000   1.0000

          k =-0.5000 1.2240 0.4803 (  4168 PWs)   bands (ev):

   -13.8862 -13.8862 -13.8844 -13.8844 -13.8685 -13.8685 -13.8672 -13.8672
   -13.8597 -13.8597 -13.8562 -13.8562 -13.8384 -13.8384 -13.8343 -13.8343
   -13.8151 -13.8151 -13.8118 -13.8118  -5.1502  -5.1502  -4.9355  -4.9355
     0.2428   0.2428   0.5078   0.5078   3.8200   3.8200   4.3336   4.3336
     4.8563   4.8563   5.2976   5.2976   5.9126   5.9126   6.3440   6.3440

     occupation numbers 
     1.0000   1.0000   1.0000   1.0000   1.0000   1.0000   1.0000   1.0000
     1.0000   1.0000   1.0000   1.0000   1.0000   1.0000   1.0000   1.0000
     1.0000   1.0000   1.0000   1.0000   1.0000   1.0000   1.0000   1.0000
     1.0000   1.0000   1.0000   1.0000   1.0000   1.0000   1.0000   1.0000
     1.0000   1.0000   1.0000   1.0000   1.0000   1.0000   1.0000   1.0000

          k =-0.5000 1.2240 0.8005 (  4158 PWs)   bands (ev):

   -13.8890 -13.8890 -13.8872 -13.8872 -13.8687 -13.8687 -13.8670 -13.8670
   -13.8587 -13.8587 -13.8554 -13.8554 -13.8367 -13.8367 -13.8331 -13.8331
   -13.8152 -13.8152 -13.8118 -13.8118  -5.0480  -5.0480  -4.8930  -4.8930
     0.4452   0.4452   0.6969   0.6969   3.2456   3.2456   3.7535   3.7535
     4.3018   4.3018   4.7554   4.7554   5.7869   5.7869   6.1552   6.1552

     occupation numbers 
     1.0000   1.0000   1.0000   1.0000   1.0000   1.0000   1.0000   1.0000
     1.0000   1.0000   1.0000   1.0000   1.0000   1.0000   1.0000   1.0000
     1.0000   1.0000   1.0000   1.0000   1.0000   1.0000   1.0000   1.0000
     1.0000   1.0000   1.0000   1.0000   1.0000   1.0000   1.0000   1.0000
     1.0000   1.0000   1.0000   1.0000   1.0000   1.0000   1.0000   1.0000

          k =-0.5000 1.2240 1.1208 (  4148 PWs)   bands (ev):

   -13.8910 -13.8910 -13.8892 -13.8892 -13.8689 -13.8689 -13.8669 -13.8669
   -13.8580 -13.8580 -13.8548 -13.8548 -13.8354 -13.8354 -13.8322 -13.8322
   -13.8153 -13.8153 -13.8118 -13.8118  -4.9578  -4.9578  -4.8769  -4.8769
     0.5815   0.5815   0.8846   0.8846   3.0366   3.0366   3.2851   3.2851
     3.9308   3.9308   4.2386   4.2386   5.8809   5.8809   6.0644   6.0644

     occupation numbers 
     1.0000   1.0000   1.0000   1.0000   1.0000   1.0000   1.0000   1.0000
     1.0000   1.0000   1.0000   1.0000   1.0000   1.0000   1.0000   1.0000
     1.0000   1.0000   1.0000   1.0000   1.0000   1.0000   1.0000   1.0000
     1.0000   1.0000   1.0000   1.0000   1.0000   1.0000   1.0000   1.0000
     1.0000   1.0000   1.0000   1.0000   1.0000   1.0000   1.0000   1.0000

     highest occupied level (ev):     7.2584

!    total energy              =    -827.74024871 Ry
     estimated scf accuracy    <          3.1E-10 Ry

     The total energy is the sum of the following terms:
     one-electron contribution =    -268.70865895 Ry
     hartree contribution      =     183.16532572 Ry
     xc contribution           =    -308.95017760 Ry
     ewald contribution        =    -433.12779088 Ry
     DFT-D3 Dispersion         =      -0.11894700 Ry

     convergence has been achieved in  12 iterations

     Forces acting on atoms (cartesian axes, Ry/au):

     atom    1 type  2   force =    -0.00290077    0.00000000   -0.00067061
     atom    2 type  1   force =     0.00291873    0.00000000    0.00020925
     atom    3 type  2   force =     0.00290077    0.00000000   -0.00067061
     atom    4 type  1   force =    -0.00291873    0.00000000    0.00020925
     atom    5 type  2   force =    -0.00290077    0.00000000    0.00067061
     atom    6 type  1   force =     0.00291873    0.00000000   -0.00020925
     atom    7 type  2   force =     0.00290077    0.00000000    0.00067061
     atom    8 type  1   force =    -0.00291873   -0.00000000   -0.00020925
     The non-local contrib.  to forces
     atom    1 type  2   force =    -0.10177337    0.00000000    0.11523577
     atom    2 type  1   force =     0.34316122    0.00000000    0.30314886
     atom    3 type  2   force =     0.10177337    0.00000000    0.11523577
     atom    4 type  1   force =    -0.34316122    0.00000000    0.30314886
     atom    5 type  2   force =    -0.10177337    0.00000000   -0.11523577
     atom    6 type  1   force =     0.34316122    0.00000000   -0.30314886
     atom    7 type  2   force =     0.10177337    0.00000000   -0.11523577
     atom    8 type  1   force =    -0.34316122    0.00000000   -0.30314886
     The ionic contribution  to forces
     atom    1 type  2   force =     1.07362937   -0.00000000   -1.34802147
     atom    2 type  1   force =    -0.59549583   -0.00000000   -0.79171547
     atom    3 type  2   force =    -1.07362937    0.00000000   -1.34802147
     atom    4 type  1   force =     0.59549583   -0.00000000   -0.79171547
     atom    5 type  2   force =     1.07362937    0.00000000    1.34802147
     atom    6 type  1   force =    -0.59549583   -0.00000000    0.79171547
     atom    7 type  2   force =    -1.07362937   -0.00000000    1.34802147
     atom    8 type  1   force =     0.59549583   -0.00000000    0.79171547
     The local contribution  to forces
     atom    1 type  2   force =    -0.98578836    0.00000000    1.24331842
     atom    2 type  1   force =     0.26247625    0.00000000    0.49268465
     atom    3 type  2   force =     0.98578836    0.00000000    1.24331842
     atom    4 type  1   force =    -0.26247625    0.00000000    0.49268465
     atom    5 type  2   force =    -0.98578836    0.00000000   -1.24331842
     atom    6 type  1   force =     0.26247625    0.00000000   -0.49268465
     atom    7 type  2   force =     0.98578836    0.00000000   -1.24331842
     atom    8 type  1   force =    -0.26247625    0.00000000   -0.49268465
     The core correction contribution to forces
     atom    1 type  2   force =     0.01164732    0.00000000   -0.01293856
     atom    2 type  1   force =    -0.00667922   -0.00000000   -0.00490726
     atom    3 type  2   force =    -0.01164732   -0.00000000   -0.01293856
     atom    4 type  1   force =     0.00667922   -0.00000000   -0.00490726
     atom    5 type  2   force =     0.01164732   -0.00000000    0.01293856
     atom    6 type  1   force =    -0.00667922    0.00000000    0.00490726
     atom    7 type  2   force =    -0.01164732    0.00000000    0.01293856
     atom    8 type  1   force =     0.00667922    0.00000000    0.00490726
     The Hubbard contrib.    to forces
     atom    1 type  2   force =     0.00000000    0.00000000    0.00000000
     atom    2 type  1   force =     0.00000000    0.00000000    0.00000000
     atom    3 type  2   force =     0.00000000    0.00000000    0.00000000
     atom    4 type  1   force =     0.00000000    0.00000000    0.00000000
     atom    5 type  2   force =     0.00000000    0.00000000    0.00000000
     atom    6 type  1   force =     0.00000000    0.00000000    0.00000000
     atom    7 type  2   force =     0.00000000    0.00000000    0.00000000
     atom    8 type  1   force =     0.00000000    0.00000000    0.00000000
     The SCF correction term to forces
     atom    1 type  2   force =     0.00000169   -0.00000000   -0.00000092
     atom    2 type  1   force =     0.00000581    0.00000000    0.00000654
     atom    3 type  2   force =    -0.00000169   -0.00000000   -0.00000092
     atom    4 type  1   force =    -0.00000581   -0.00000000    0.00000654
     atom    5 type  2   force =     0.00000169   -0.00000000    0.00000092
     atom    6 type  1   force =     0.00000581    0.00000000   -0.00000654
     atom    7 type  2   force =    -0.00000169    0.00000000    0.00000092
     atom    8 type  1   force =    -0.00000581    0.00000000   -0.00000654

     DFT-D3 dispersion contribution to forces:
     atom    1 type  2   force =    -0.00061742    0.00000000    0.00173616
     atom    2 type  1   force =    -0.00054950   -0.00000000    0.00099194
     atom    3 type  2   force =     0.00061742    0.00000000    0.00173616
     atom    4 type  1   force =     0.00054950   -0.00000000    0.00099194
     atom    5 type  2   force =    -0.00061742    0.00000000   -0.00173616
     atom    6 type  1   force =    -0.00054950   -0.00000000   -0.00099194
     atom    7 type  2   force =     0.00061742   -0.00000000   -0.00173616
     atom    8 type  1   force =     0.00054950    0.00000000   -0.00099194

     Total force =     0.008349     Total SCF correction =     0.000018

     DFT-D3 dispersion Force =     0.004327

     Writing all to output data dir ./tmp/SnSe_pnma.save/ :
     XML data file, charge density, pseudopotentials, collected wavefunctions
 
     init_run     :      1.17s CPU      1.30s WALL (       1 calls)
     electrons    :     24.80s CPU     26.68s WALL (       1 calls)
     forces       :      0.58s CPU      0.67s WALL (       1 calls)
     force_dftd3  :      0.06s CPU      0.07s WALL (       1 calls)

     Called by init_run:
     wfcinit      :      0.66s CPU      0.71s WALL (       1 calls)
     wfcinit:atom :      0.01s CPU      0.01s WALL (      11 calls)
     wfcinit:wfcr :      0.59s CPU      0.63s WALL (      11 calls)
     potinit      :      0.10s CPU      0.11s WALL (       1 calls)
     hinit0       :      0.19s CPU      0.20s WALL (       1 calls)

     Called by electrons:
     c_bands      :     18.23s CPU     18.52s WALL (      12 calls)
     sum_band     :      4.25s CPU      5.02s WALL (      12 calls)
     v_of_rho     :      0.77s CPU      0.81s WALL (      13 calls)
     v_h          :      0.05s CPU      0.05s WALL (      13 calls)
     v_xc         :      0.78s CPU      0.81s WALL (      14 calls)
     newd         :      1.57s CPU      2.38s WALL (      13 calls)
     mix_rho      :      0.08s CPU      0.08s WALL (      12 calls)
     energy_dftd3 :      0.05s CPU      0.05s WALL (       1 calls)

     Called by c_bands:
     init_us_2    :      0.54s CPU      0.56s WALL (     286 calls)
     cegterg      :     15.79s CPU     16.00s WALL (     132 calls)

     Called by sum_band:
     sum_band:wei :      0.00s CPU      0.00s WALL (      12 calls)
     sum_band:loo :      2.42s CPU      2.45s WALL (      12 calls)
     sum_band:buf :      0.04s CPU      0.04s WALL (     132 calls)
     sum_band:ini :      0.25s CPU      0.25s WALL (     132 calls)
     sum_band:cal :      0.37s CPU      0.37s WALL (     132 calls)
     sum_band:bec :      0.01s CPU      0.01s WALL (     132 calls)
     addusdens    :      1.58s CPU      2.23s WALL (      12 calls)
                                        0.00s GPU  (      12 calls)
     addusd:skk   :      0.01s CPU      0.01s WALL (      24 calls)
                                        0.00s GPU  (      24 calls)

     Called by *egterg:
     cdiaghg      :      0.94s CPU      0.95s WALL (     603 calls)
     cegterg:over :      0.91s CPU      0.91s WALL (     471 calls)
     cegterg:upda :      0.51s CPU      0.51s WALL (     471 calls)
     cegterg:last :      1.09s CPU      1.09s WALL (     313 calls)
     h_psi        :     11.12s CPU     11.30s WALL (     614 calls)
     s_psi        :      1.21s CPU      1.21s WALL (     614 calls)
     g_psi        :      0.05s CPU      0.05s WALL (     471 calls)

     Called by h_psi:
     h_psi:calbec :      1.20s CPU      1.21s WALL (     614 calls)
     vloc_psi     :      8.56s CPU      8.71s WALL (     614 calls)
     add_vuspsi   :      1.26s CPU      1.27s WALL (     614 calls)

     General routines
     calbec       :      1.68s CPU      1.70s WALL (     790 calls)
     fft          :      0.34s CPU      0.35s WALL (     178 calls)
     ffts         :      0.01s CPU      0.01s WALL (      25 calls)
     fftw         :      6.98s CPU      7.10s WALL (   36888 calls)
     interpolate  :      0.04s CPU      0.04s WALL (      13 calls)
 
     Parallel routines
 
     PWSCF        :     26.75s CPU     29.27s WALL

 
   This run was terminated on:  14:39:27  20May2026            

=------------------------------------------------------------------------------=
   JOB DONE.
=------------------------------------------------------------------------------=
