
     Program PWSCF v.7.3.1 starts on 20May2026 at 15: 7:50 

     This program is part of the open-source Quantum ESPRESSO suite
     for quantum simulation of materials; please cite
         "P. Giannozzi et al., J. Phys.:Condens. Matter 21 395502 (2009);
         "P. Giannozzi et al., J. Phys.:Condens. Matter 29 465901 (2017);
         "P. Giannozzi et al., J. Chem. Phys. 152 154105 (2020);
          URL http://www.quantum-espresso.org", 
     in publications or presentations arising from this work. More details at
     http://www.quantum-espresso.org/quote

     Parallel version (MPI & OpenMP), running on       6 processor cores
     Number of MPI processes:                 6
     Threads/MPI process:                     1

     MPI processes distributed on     1 nodes
     10747 MiB available memory on the printing compute node when the environment starts
 
     Waiting for input...
     Reading input from standard input

     Current dimensions of program PWSCF are:
     Max number of different atomic species (ntypx) = 10
     Max number of k-points (npk) =  40000
     Max angular momentum in pseudopotentials (lmaxx) =  4
 
     K-points division:     npool     =       3
     R & G space division:  proc/nbgrp/npool/nimage =       2
     Subspace diagonalization in iterative solution of the eigenvalue problem:
     a serial algorithm will be used

 
     Parallelization info
     --------------------
     sticks:   dense  smooth     PW     G-vecs:    dense   smooth      PW
     Min        2865    1142    334               104676    26513    4171
     Max        2866    1143    335               104677    26514    4172
     Sum        5731    2285    669               209353    53027    8343
 
     Using Slab Decomposition
 


     bravais-lattice index     =            8
     lattice parameter (alat)  =      22.8468  a.u.
     unit-cell volume          =    1550.3894 (a.u.)^3
     number of atoms/cell      =            8
     number of atomic types    =            2
     number of electrons       =        80.00
     number of Kohn-Sham states=           40
     kinetic-energy cutoff     =      40.0000  Ry
     charge density cutoff     =     400.0000  Ry
     scf convergence threshold =      1.0E-08
     mixing beta               =       0.7000
     number of iterations used =            8  plain     mixing
     Exchange-correlation= SLA  PW   PBE  PBE
                           (   1   4   3   4   0   0   0)

     celldm(1)=  22.846789  celldm(2)=   0.345029  celldm(3)=   0.376799
     celldm(4)=   0.000000  celldm(5)=   0.000000  celldm(6)=   0.000000

     crystal axes: (cart. coord. in units of alat)
               a(1) = (   1.000000   0.000000   0.000000 )  
               a(2) = (   0.000000   0.345029   0.000000 )  
               a(3) = (   0.000000   0.000000   0.376799 )  

     reciprocal axes: (cart. coord. in units 2 pi/alat)
               b(1) = (  1.000000  0.000000  0.000000 )  
               b(2) = (  0.000000  2.898308  0.000000 )  
               b(3) = (  0.000000  0.000000  2.653935 )  


     PseudoPot. # 1 for Sn read from file:
     ../pseudo/Sn_pbe_v1.uspp.F.UPF
     MD5 check sum: 4cf58ce39ec5d5d420df3dd08604eb00
     Pseudo is Ultrasoft + core correction, Zval = 14.0
     Generated by new atomic code, or converted to UPF format
     Using radial grid of  891 points,  6 beta functions with: 
                l(1) =   0
                l(2) =   0
                l(3) =   1
                l(4) =   1
                l(5) =   2
                l(6) =   2
     Q(r) pseudized with  6 coefficients,  rinner =    1.200   1.200   1.200
                                                       1.200   1.200

     PseudoPot. # 2 for Se read from file:
     ../pseudo/Se_pbe_v1.uspp.F.UPF
     MD5 check sum: 1b3568f3a8ae88f9a2a0ad0698632c85
     Pseudo is Ultrasoft + core correction, Zval =  6.0
     Generated by new atomic code, or converted to UPF format
     Using radial grid of  877 points,  6 beta functions with: 
                l(1) =   0
                l(2) =   0
                l(3) =   1
                l(4) =   1
                l(5) =   2
                l(6) =   2
     Q(r) pseudized with  8 coefficients,  rinner =    1.300   1.300   1.300
                                                       1.300   1.300

     atomic species   valence    mass     pseudopotential
     Sn               14.00   118.71000     Sn( 1.00)
     Se                6.00    78.97100     Se( 1.00)

      8 Sym. Ops., with inversion, found ( 6 have fractional translation)


                                    s                        frac. trans.

      isym =  1     identity                                     

 cryst.   s( 1) = (     1          0          0      )
                  (     0          1          0      )
                  (     0          0          1      )

 cart.    s( 1) = (  1.0000000  0.0000000  0.0000000 )
                  (  0.0000000  1.0000000  0.0000000 )
                  (  0.0000000  0.0000000  1.0000000 )


      isym =  2     180 deg rotation - cart. axis [0,0,1]        

 cryst.   s( 2) = (    -1          0          0      )    f =(  0.5000000 )
                  (     0         -1          0      )       (  0.0000000 )
                  (     0          0          1      )       ( -0.5000000 )

 cart.    s( 2) = ( -1.0000000  0.0000000  0.0000000 )    f =(  0.5000000 )
                  (  0.0000000 -1.0000000  0.0000000 )       (  0.0000000 )
                  (  0.0000000  0.0000000  1.0000000 )       ( -0.1883995 )


      isym =  3     180 deg rotation - cart. axis [0,1,0]        

 cryst.   s( 3) = (    -1          0          0      )    f =(  0.0000000 )
                  (     0          1          0      )       (  0.5000000 )
                  (     0          0         -1      )       (  0.0000000 )

 cart.    s( 3) = ( -1.0000000  0.0000000  0.0000000 )    f =(  0.0000000 )
                  (  0.0000000  1.0000000  0.0000000 )       (  0.1725145 )
                  (  0.0000000  0.0000000 -1.0000000 )       (  0.0000000 )


      isym =  4     180 deg rotation - cart. axis [1,0,0]        

 cryst.   s( 4) = (     1          0          0      )    f =(  0.5000000 )
                  (     0         -1          0      )       (  0.5000000 )
                  (     0          0         -1      )       (  0.5000000 )

 cart.    s( 4) = (  1.0000000  0.0000000  0.0000000 )    f =(  0.5000000 )
                  (  0.0000000 -1.0000000  0.0000000 )       (  0.1725145 )
                  (  0.0000000  0.0000000 -1.0000000 )       (  0.1883995 )


      isym =  5     inversion                                    

 cryst.   s( 5) = (    -1          0          0      )
                  (     0         -1          0      )
                  (     0          0         -1      )

 cart.    s( 5) = ( -1.0000000  0.0000000  0.0000000 )
                  (  0.0000000 -1.0000000  0.0000000 )
                  (  0.0000000  0.0000000 -1.0000000 )


      isym =  6     inv. 180 deg rotation - cart. axis [0,0,1]   

 cryst.   s( 6) = (     1          0          0      )    f =(  0.5000000 )
                  (     0          1          0      )       (  0.0000000 )
                  (     0          0         -1      )       (  0.5000000 )

 cart.    s( 6) = (  1.0000000  0.0000000  0.0000000 )    f =(  0.5000000 )
                  (  0.0000000  1.0000000  0.0000000 )       (  0.0000000 )
                  (  0.0000000  0.0000000 -1.0000000 )       (  0.1883995 )


      isym =  7     inv. 180 deg rotation - cart. axis [0,1,0]   

 cryst.   s( 7) = (     1          0          0      )    f =(  0.0000000 )
                  (     0         -1          0      )       (  0.5000000 )
                  (     0          0          1      )       (  0.0000000 )

 cart.    s( 7) = (  1.0000000  0.0000000  0.0000000 )    f =(  0.0000000 )
                  (  0.0000000 -1.0000000  0.0000000 )       (  0.1725145 )
                  (  0.0000000  0.0000000  1.0000000 )       (  0.0000000 )


      isym =  8     inv. 180 deg rotation - cart. axis [1,0,0]   

 cryst.   s( 8) = (    -1          0          0      )    f =(  0.5000000 )
                  (     0          1          0      )       (  0.5000000 )
                  (     0          0          1      )       ( -0.5000000 )

 cart.    s( 8) = ( -1.0000000  0.0000000  0.0000000 )    f =(  0.5000000 )
                  (  0.0000000  1.0000000  0.0000000 )       (  0.1725145 )
                  (  0.0000000  0.0000000  1.0000000 )       ( -0.1883995 )


     point group D_2h (mmm) 
     there are  8 classes
     the character table:

       E     C2    C2'   C2''  i     s_v   s_v'  s_v''
A_g    1.00  1.00  1.00  1.00  1.00  1.00  1.00  1.00
B_1g   1.00  1.00 -1.00 -1.00  1.00  1.00 -1.00 -1.00
B_2g   1.00 -1.00  1.00 -1.00  1.00 -1.00  1.00 -1.00
B_3g   1.00 -1.00 -1.00  1.00  1.00 -1.00 -1.00  1.00
A_u    1.00  1.00  1.00  1.00 -1.00 -1.00 -1.00 -1.00
B_1u   1.00  1.00 -1.00 -1.00 -1.00 -1.00  1.00  1.00
B_2u   1.00 -1.00  1.00 -1.00 -1.00  1.00 -1.00  1.00
B_3u   1.00 -1.00 -1.00  1.00 -1.00  1.00  1.00 -1.00

     the symmetry operations in each class and the name of the first element:

     E        1
          identity                                               
     C2       2
          180 deg rotation - cart. axis [0,0,1]                  
     C2'      4
          180 deg rotation - cart. axis [1,0,0]                  
     C2''     3
          180 deg rotation - cart. axis [0,1,0]                  
     i        5
          inversion                                              
     s_v      6
          inv. 180 deg rotation - cart. axis [0,0,1]             
     s_v'     8
          inv. 180 deg rotation - cart. axis [1,0,0]             
     s_v''    7
          inv. 180 deg rotation - cart. axis [0,1,0]             

   Cartesian axes

     site n.     atom                  positions (alat units)
         1        Se     tau(   1) = (   0.8549563   0.0862572   0.1820874  )
         2        Sn     tau(   2) = (   0.1165395   0.0862572   0.0423096  )
         3        Se     tau(   3) = (   0.6450437   0.2587717   0.3704869  )
         4        Sn     tau(   4) = (   0.3834605   0.2587717   0.2307091  )
         5        Se     tau(   5) = (   0.3549563   0.0862572   0.0063121  )
         6        Sn     tau(   6) = (   0.6165395   0.0862572   0.1460899  )
         7        Se     tau(   7) = (   0.1450437   0.2587717   0.1947116  )
         8        Sn     tau(   8) = (   0.8834605   0.2587717   0.3344894  )

     --------------------------------------------
     DFT-D3 Dispersion Correction (3-body terms):
     --------------------------------------------
       Reference C6 values for interpolation: 

         atom   Coordination number   C6
         Se         0.000           427.35
         Se         0.990           427.57
         Se         1.981           421.05
         Sn         0.000          1255.14
         Sn         0.951          1084.09
         Sn         1.950          1010.83
         Sn         2.926           818.29
         Sn         3.912           672.20

       Values used:

         atom   Coordination number  R0_AB[au]  C6      C8
         Se         3.204            3.332    421.05  29958.36
         Sn         3.744            3.957    681.98  85595.88
         Se         3.204            3.332    421.05  29958.36
         Sn         3.744            3.957    681.98  85595.88
         Se         3.204            3.332    421.05  29958.36
         Sn         3.744            3.957    681.98  85595.88
         Se         3.204            3.332    421.05  29958.36
         Sn         3.744            3.957    681.98  85595.88

         Molecular C6 ( Ry / a.u.^6 ) =     34773.12


   Crystallographic axes

     site n.     atom                  positions (cryst. coord.)
         1        Se     tau(   1) = (  0.8549563  0.2500000  0.4832481  )
         2        Sn     tau(   2) = (  0.1165395  0.2500000  0.1122870  )
         3        Se     tau(   3) = (  0.6450437  0.7500000  0.9832481  )
         4        Sn     tau(   4) = (  0.3834605  0.7500000  0.6122870  )
         5        Se     tau(   5) = (  0.3549563  0.2500000  0.0167519  )
         6        Sn     tau(   6) = (  0.6165395  0.2500000  0.3877130  )
         7        Se     tau(   7) = (  0.1450437  0.7500000  0.5167519  )
         8        Sn     tau(   8) = (  0.8834605  0.7500000  0.8877130  )

     number of k points=    32
                       cart. coord. in units 2pi/alat
        k(    1) = (   0.1666667   0.1811442   0.1658709), wk =   0.0833333
        k(    2) = (   0.1666667   0.1811442   0.4976128), wk =   0.0833333
        k(    3) = (   0.1666667   0.1811442   0.8293546), wk =   0.0833333
        k(    4) = (   0.1666667   0.1811442   1.1610965), wk =   0.0833333
        k(    5) = (   0.1666667   0.5434327   0.1658709), wk =   0.0833333
        k(    6) = (   0.1666667   0.5434327   0.4976128), wk =   0.0833333
        k(    7) = (   0.1666667   0.5434327   0.8293546), wk =   0.0833333
        k(    8) = (   0.1666667   0.5434327   1.1610965), wk =   0.0833333
        k(    9) = (   0.1666667   0.9057211   0.1658709), wk =   0.0833333
        k(   10) = (   0.1666667   0.9057211   0.4976128), wk =   0.0833333
        k(   11) = (   0.1666667   0.9057211   0.8293546), wk =   0.0833333
        k(   12) = (   0.1666667   0.9057211   1.1610965), wk =   0.0833333
        k(   13) = (   0.1666667   1.2680095   0.1658709), wk =   0.0833333
        k(   14) = (   0.1666667   1.2680095   0.4976128), wk =   0.0833333
        k(   15) = (   0.1666667   1.2680095   0.8293546), wk =   0.0833333
        k(   16) = (   0.1666667   1.2680095   1.1610965), wk =   0.0833333
        k(   17) = (  -0.5000000   0.1811442   0.1658709), wk =   0.0416667
        k(   18) = (  -0.5000000   0.1811442   0.4976128), wk =   0.0416667
        k(   19) = (  -0.5000000   0.1811442   0.8293546), wk =   0.0416667
        k(   20) = (  -0.5000000   0.1811442   1.1610965), wk =   0.0416667
        k(   21) = (  -0.5000000   0.5434327   0.1658709), wk =   0.0416667
        k(   22) = (  -0.5000000   0.5434327   0.4976128), wk =   0.0416667
        k(   23) = (  -0.5000000   0.5434327   0.8293546), wk =   0.0416667
        k(   24) = (  -0.5000000   0.5434327   1.1610965), wk =   0.0416667
        k(   25) = (  -0.5000000   0.9057211   0.1658709), wk =   0.0416667
        k(   26) = (  -0.5000000   0.9057211   0.4976128), wk =   0.0416667
        k(   27) = (  -0.5000000   0.9057211   0.8293546), wk =   0.0416667
        k(   28) = (  -0.5000000   0.9057211   1.1610965), wk =   0.0416667
        k(   29) = (  -0.5000000   1.2680095   0.1658709), wk =   0.0416667
        k(   30) = (  -0.5000000   1.2680095   0.4976128), wk =   0.0416667
        k(   31) = (  -0.5000000   1.2680095   0.8293546), wk =   0.0416667
        k(   32) = (  -0.5000000   1.2680095   1.1610965), wk =   0.0416667

                       cryst. coord.
        k(    1) = (   0.1666667   0.0625000   0.0625000), wk =   0.0833333
        k(    2) = (   0.1666667   0.0625000   0.1875000), wk =   0.0833333
        k(    3) = (   0.1666667   0.0625000   0.3125000), wk =   0.0833333
        k(    4) = (   0.1666667   0.0625000   0.4375000), wk =   0.0833333
        k(    5) = (   0.1666667   0.1875000   0.0625000), wk =   0.0833333
        k(    6) = (   0.1666667   0.1875000   0.1875000), wk =   0.0833333
        k(    7) = (   0.1666667   0.1875000   0.3125000), wk =   0.0833333
        k(    8) = (   0.1666667   0.1875000   0.4375000), wk =   0.0833333
        k(    9) = (   0.1666667   0.3125000   0.0625000), wk =   0.0833333
        k(   10) = (   0.1666667   0.3125000   0.1875000), wk =   0.0833333
        k(   11) = (   0.1666667   0.3125000   0.3125000), wk =   0.0833333
        k(   12) = (   0.1666667   0.3125000   0.4375000), wk =   0.0833333
        k(   13) = (   0.1666667   0.4375000   0.0625000), wk =   0.0833333
        k(   14) = (   0.1666667   0.4375000   0.1875000), wk =   0.0833333
        k(   15) = (   0.1666667   0.4375000   0.3125000), wk =   0.0833333
        k(   16) = (   0.1666667   0.4375000   0.4375000), wk =   0.0833333
        k(   17) = (  -0.5000000   0.0625000   0.0625000), wk =   0.0416667
        k(   18) = (  -0.5000000   0.0625000   0.1875000), wk =   0.0416667
        k(   19) = (  -0.5000000   0.0625000   0.3125000), wk =   0.0416667
        k(   20) = (  -0.5000000   0.0625000   0.4375000), wk =   0.0416667
        k(   21) = (  -0.5000000   0.1875000   0.0625000), wk =   0.0416667
        k(   22) = (  -0.5000000   0.1875000   0.1875000), wk =   0.0416667
        k(   23) = (  -0.5000000   0.1875000   0.3125000), wk =   0.0416667
        k(   24) = (  -0.5000000   0.1875000   0.4375000), wk =   0.0416667
        k(   25) = (  -0.5000000   0.3125000   0.0625000), wk =   0.0416667
        k(   26) = (  -0.5000000   0.3125000   0.1875000), wk =   0.0416667
        k(   27) = (  -0.5000000   0.3125000   0.3125000), wk =   0.0416667
        k(   28) = (  -0.5000000   0.3125000   0.4375000), wk =   0.0416667
        k(   29) = (  -0.5000000   0.4375000   0.0625000), wk =   0.0416667
        k(   30) = (  -0.5000000   0.4375000   0.1875000), wk =   0.0416667
        k(   31) = (  -0.5000000   0.4375000   0.3125000), wk =   0.0416667
        k(   32) = (  -0.5000000   0.4375000   0.4375000), wk =   0.0416667

     Dense  grid:   209353 G-vectors     FFT dimensions: ( 150,  54,  60)

     Smooth grid:    53027 G-vectors     FFT dimensions: (  96,  32,  36)

     Dynamical RAM for                 wfc:       2.02 MB

     Dynamical RAM for     wfc (w. buffer):      24.25 MB

     Dynamical RAM for           str. fact:       3.19 MB

     Dynamical RAM for           local pot:       0.00 MB

     Dynamical RAM for          nlocal pot:       7.28 MB

     Dynamical RAM for                qrad:       3.21 MB

     Dynamical RAM for          rho,v,vnew:      10.35 MB

     Dynamical RAM for               rhoin:       3.45 MB

     Dynamical RAM for            rho*nmix:      25.56 MB

     Dynamical RAM for           G-vectors:       6.19 MB

     Dynamical RAM for          h,s,v(r/c):       0.29 MB

     Dynamical RAM for          <psi|beta>:       0.09 MB

     Dynamical RAM for                 psi:       4.04 MB

     Dynamical RAM for                hpsi:       4.04 MB

     Dynamical RAM for                spsi:       4.04 MB

     Dynamical RAM for      wfcinit/wfcrot:       5.32 MB

     Dynamical RAM for           addusdens:     102.22 MB

     Dynamical RAM for          addusforce:     105.17 MB

     Estimated static dynamical RAM per process >      71.99 MB

     Estimated max dynamical RAM per process >     202.71 MB

     Estimated total dynamical RAM >       1.09 GB

     Initial potential from superposition of free atoms

     starting charge      75.9995, renormalised to      80.0000
     Starting wfcs are   52 randomized atomic wfcs

     total cpu time spent up to now is        2.0 secs

     Self-consistent Calculation

     iteration #  1     ecut=    40.00 Ry     beta= 0.70
     Davidson diagonalization with overlap

---- Real-time Memory Report at c_bands before calling an iterative solver
           269 MiB given to the printing process from OS
             0 MiB allocation reported by mallinfo(arena+hblkhd)
         10098 MiB available memory on the node where the printing process lives
------------------
     ethr =  1.00E-02,  avg # of iterations =  2.0

     total cpu time spent up to now is        5.4 secs

     total energy              =    -826.59613658 Ry
     estimated scf accuracy    <       2.73495264 Ry

     iteration #  2     ecut=    40.00 Ry     beta= 0.70
     Davidson diagonalization with overlap

---- Real-time Memory Report at c_bands before calling an iterative solver
           344 MiB given to the printing process from OS
             0 MiB allocation reported by mallinfo(arena+hblkhd)
          9855 MiB available memory on the node where the printing process lives
------------------
     ethr =  3.42E-03,  avg # of iterations =  3.0

     total cpu time spent up to now is        9.0 secs

     total energy              =    -827.49858098 Ry
     estimated scf accuracy    <       1.10092398 Ry

     iteration #  3     ecut=    40.00 Ry     beta= 0.70
     Davidson diagonalization with overlap

---- Real-time Memory Report at c_bands before calling an iterative solver
           364 MiB given to the printing process from OS
             0 MiB allocation reported by mallinfo(arena+hblkhd)
          9728 MiB available memory on the node where the printing process lives
------------------
     ethr =  1.38E-03,  avg # of iterations =  2.8

     total cpu time spent up to now is       12.4 secs

     total energy              =    -827.72666636 Ry
     estimated scf accuracy    <       0.01413355 Ry

     iteration #  4     ecut=    40.00 Ry     beta= 0.70
     Davidson diagonalization with overlap

---- Real-time Memory Report at c_bands before calling an iterative solver
           365 MiB given to the printing process from OS
             0 MiB allocation reported by mallinfo(arena+hblkhd)
          9724 MiB available memory on the node where the printing process lives
------------------
     ethr =  1.77E-05,  avg # of iterations =  4.9

     total cpu time spent up to now is       16.6 secs

     total energy              =    -827.73469149 Ry
     estimated scf accuracy    <       0.00587928 Ry

     iteration #  5     ecut=    40.00 Ry     beta= 0.70
     Davidson diagonalization with overlap

---- Real-time Memory Report at c_bands before calling an iterative solver
           366 MiB given to the printing process from OS
             0 MiB allocation reported by mallinfo(arena+hblkhd)
          9721 MiB available memory on the node where the printing process lives
------------------
     ethr =  7.35E-06,  avg # of iterations =  2.2

     total cpu time spent up to now is       19.8 secs

     total energy              =    -827.73569991 Ry
     estimated scf accuracy    <       0.00068301 Ry

     iteration #  6     ecut=    40.00 Ry     beta= 0.70
     Davidson diagonalization with overlap

---- Real-time Memory Report at c_bands before calling an iterative solver
           367 MiB given to the printing process from OS
             0 MiB allocation reported by mallinfo(arena+hblkhd)
          9718 MiB available memory on the node where the printing process lives
------------------
     ethr =  8.54E-07,  avg # of iterations =  4.3

     total cpu time spent up to now is       23.7 secs

     total energy              =    -827.73580815 Ry
     estimated scf accuracy    <       0.00103401 Ry

     iteration #  7     ecut=    40.00 Ry     beta= 0.70
     Davidson diagonalization with overlap

---- Real-time Memory Report at c_bands before calling an iterative solver
           370 MiB given to the printing process from OS
             0 MiB allocation reported by mallinfo(arena+hblkhd)
          9714 MiB available memory on the node where the printing process lives
------------------
     ethr =  8.54E-07,  avg # of iterations =  2.8

     total cpu time spent up to now is       27.1 secs

     total energy              =    -827.73595034 Ry
     estimated scf accuracy    <       0.00002568 Ry

     iteration #  8     ecut=    40.00 Ry     beta= 0.70
     Davidson diagonalization with overlap

---- Real-time Memory Report at c_bands before calling an iterative solver
           373 MiB given to the printing process from OS
             0 MiB allocation reported by mallinfo(arena+hblkhd)
          9711 MiB available memory on the node where the printing process lives
------------------
     ethr =  3.21E-08,  avg # of iterations =  5.1

     total cpu time spent up to now is       31.1 secs

     total energy              =    -827.73597093 Ry
     estimated scf accuracy    <       0.00002580 Ry

     iteration #  9     ecut=    40.00 Ry     beta= 0.70
     Davidson diagonalization with overlap

---- Real-time Memory Report at c_bands before calling an iterative solver
           373 MiB given to the printing process from OS
             0 MiB allocation reported by mallinfo(arena+hblkhd)
          9704 MiB available memory on the node where the printing process lives
------------------
     ethr =  3.21E-08,  avg # of iterations =  2.0

     total cpu time spent up to now is       34.3 secs

     total energy              =    -827.73597313 Ry
     estimated scf accuracy    <       0.00000201 Ry

     iteration # 10     ecut=    40.00 Ry     beta= 0.70
     Davidson diagonalization with overlap

---- Real-time Memory Report at c_bands before calling an iterative solver
           374 MiB given to the printing process from OS
             0 MiB allocation reported by mallinfo(arena+hblkhd)
          9704 MiB available memory on the node where the printing process lives
------------------
     ethr =  2.51E-09,  avg # of iterations =  5.1

     total cpu time spent up to now is       38.8 secs

     total energy              =    -827.73597444 Ry
     estimated scf accuracy    <       0.00000023 Ry

     iteration # 11     ecut=    40.00 Ry     beta= 0.70
     Davidson diagonalization with overlap

---- Real-time Memory Report at c_bands before calling an iterative solver
           374 MiB given to the printing process from OS
             0 MiB allocation reported by mallinfo(arena+hblkhd)
          9704 MiB available memory on the node where the printing process lives
------------------
     ethr =  2.93E-10,  avg # of iterations =  4.0

     total cpu time spent up to now is       42.8 secs

     total energy              =    -827.73597447 Ry
     estimated scf accuracy    <       0.00000011 Ry

     iteration # 12     ecut=    40.00 Ry     beta= 0.70
     Davidson diagonalization with overlap

---- Real-time Memory Report at c_bands before calling an iterative solver
           374 MiB given to the printing process from OS
             0 MiB allocation reported by mallinfo(arena+hblkhd)
          9703 MiB available memory on the node where the printing process lives
------------------
     ethr =  1.32E-10,  avg # of iterations =  3.2

     total cpu time spent up to now is       46.0 secs

     End of self-consistent calculation

          k = 0.1667 0.1811 0.1659 (  6603 PWs)   bands (ev):

   -14.3507 -14.3431 -14.3390 -14.3349 -14.3319 -14.3305 -14.3299 -14.3292
   -14.3214 -14.3143 -14.3122 -14.3115 -14.3091 -14.3053 -14.2929 -14.2890
   -14.2851 -14.2820 -14.2786 -14.2753  -6.2887  -6.0596  -5.4889  -5.1888
     0.0829   0.8030   1.4505   1.8821   2.6983   3.8441   4.0190   4.2376
     4.4479   4.5110   4.9782   5.2365   5.4402   5.7029   6.3259   6.6098

     occupation numbers 
     1.0000   1.0000   1.0000   1.0000   1.0000   1.0000   1.0000   1.0000
     1.0000   1.0000   1.0000   1.0000   1.0000   1.0000   1.0000   1.0000
     1.0000   1.0000   1.0000   1.0000   1.0000   1.0000   1.0000   1.0000
     1.0000   1.0000   1.0000   1.0000   1.0000   1.0000   1.0000   1.0000
     1.0000   1.0000   1.0000   1.0000   1.0000   1.0000   1.0000   1.0000

          k = 0.1667 0.1811 0.4976 (  6606 PWs)   bands (ev):

   -14.3497 -14.3430 -14.3391 -14.3353 -14.3318 -14.3314 -14.3301 -14.3299
   -14.3196 -14.3136 -14.3123 -14.3118 -14.3075 -14.3039 -14.2932 -14.2897
   -14.2848 -14.2821 -14.2785 -14.2757  -6.1814  -5.9617  -5.4736  -5.2016
    -0.2441   0.4967   0.9957   1.5134   2.7749   3.9141   4.1228   4.5181
     4.7750   5.0007   5.0358   5.3383   5.8076   6.1143   6.2475   6.5624

     occupation numbers 
     1.0000   1.0000   1.0000   1.0000   1.0000   1.0000   1.0000   1.0000
     1.0000   1.0000   1.0000   1.0000   1.0000   1.0000   1.0000   1.0000
     1.0000   1.0000   1.0000   1.0000   1.0000   1.0000   1.0000   1.0000
     1.0000   1.0000   1.0000   1.0000   1.0000   1.0000   1.0000   1.0000
     1.0000   1.0000   1.0000   1.0000   1.0000   1.0000   1.0000   1.0000

          k = 0.1667 0.1811 0.8294 (  6597 PWs)   bands (ev):

   -14.3480 -14.3431 -14.3391 -14.3362 -14.3324 -14.3320 -14.3311 -14.3302
   -14.3170 -14.3133 -14.3127 -14.3120 -14.3045 -14.3020 -14.2933 -14.2909
   -14.2841 -14.2824 -14.2782 -14.2763  -5.9916  -5.7897  -5.4807  -5.2534
    -0.5858  -0.0175   0.5708   1.0125   3.0678   4.1466   4.3580   4.8686
     4.9185   5.1580   5.3464   5.5762   5.9592   6.3991   6.4590   6.8036

     occupation numbers 
     1.0000   1.0000   1.0000   1.0000   1.0000   1.0000   1.0000   1.0000
     1.0000   1.0000   1.0000   1.0000   1.0000   1.0000   1.0000   1.0000
     1.0000   1.0000   1.0000   1.0000   1.0000   1.0000   1.0000   1.0000
     1.0000   1.0000   1.0000   1.0000   1.0000   1.0000   1.0000   1.0000
     1.0000   1.0000   1.0000   1.0000   1.0000   1.0000   1.0000   1.0000

          k = 0.1667 0.1811 1.1611 (  6603 PWs)   bands (ev):

   -14.3460 -14.3441 -14.3386 -14.3374 -14.3330 -14.3328 -14.3311 -14.3307
   -14.3148 -14.3138 -14.3126 -14.3121 -14.3019 -14.3010 -14.2930 -14.2922
   -14.2834 -14.2828 -14.2777 -14.2770  -5.7731  -5.6333  -5.5173  -5.3716
    -0.6962  -0.4858   0.4337   0.6021   3.5402   4.0572   4.7050   4.9090
     5.0956   5.1776   5.3410   5.6734   6.2460   6.6044   6.7374   6.8223

     occupation numbers 
     1.0000   1.0000   1.0000   1.0000   1.0000   1.0000   1.0000   1.0000
     1.0000   1.0000   1.0000   1.0000   1.0000   1.0000   1.0000   1.0000
     1.0000   1.0000   1.0000   1.0000   1.0000   1.0000   1.0000   1.0000
     1.0000   1.0000   1.0000   1.0000   1.0000   1.0000   1.0000   1.0000
     1.0000   1.0000   1.0000   1.0000   1.0000   1.0000   1.0000   1.0000

          k = 0.1667 0.5434 0.1659 (  6629 PWs)   bands (ev):

   -14.3455 -14.3400 -14.3360 -14.3341 -14.3331 -14.3323 -14.3304 -14.3298
   -14.3218 -14.3164 -14.3163 -14.3145 -14.3062 -14.3022 -14.2901 -14.2874
   -14.2861 -14.2850 -14.2781 -14.2756  -6.1362  -5.9261  -5.4133  -5.1583
    -0.0895   0.5225   1.1352   1.2867   2.8103   3.7555   4.0182   4.2519
     4.5867   4.8414   4.9775   5.2560   5.5906   6.1139   6.3615   6.4846

     occupation numbers 
     1.0000   1.0000   1.0000   1.0000   1.0000   1.0000   1.0000   1.0000
     1.0000   1.0000   1.0000   1.0000   1.0000   1.0000   1.0000   1.0000
     1.0000   1.0000   1.0000   1.0000   1.0000   1.0000   1.0000   1.0000
     1.0000   1.0000   1.0000   1.0000   1.0000   1.0000   1.0000   1.0000
     1.0000   1.0000   1.0000   1.0000   1.0000   1.0000   1.0000   1.0000

          k = 0.1667 0.5434 0.4976 (  6627 PWs)   bands (ev):

   -14.3450 -14.3399 -14.3365 -14.3354 -14.3334 -14.3327 -14.3304 -14.3301
   -14.3207 -14.3167 -14.3158 -14.3137 -14.3047 -14.3011 -14.2903 -14.2875
   -14.2863 -14.2849 -14.2780 -14.2759  -6.0345  -5.8340  -5.3968  -5.1650
    -0.2553   0.4219   0.8386   1.1823   2.9402   3.3602   3.5983   4.2372
     4.4468   4.9648   5.3640   5.4461   6.0737   6.1788   6.3928   6.5582

     occupation numbers 
     1.0000   1.0000   1.0000   1.0000   1.0000   1.0000   1.0000   1.0000
     1.0000   1.0000   1.0000   1.0000   1.0000   1.0000   1.0000   1.0000
     1.0000   1.0000   1.0000   1.0000   1.0000   1.0000   1.0000   1.0000
     1.0000   1.0000   1.0000   1.0000   1.0000   1.0000   1.0000   1.0000
     1.0000   1.0000   1.0000   1.0000   1.0000   1.0000   1.0000   1.0000

          k = 0.1667 0.5434 0.8294 (  6622 PWs)   bands (ev):

   -14.3440 -14.3397 -14.3382 -14.3370 -14.3338 -14.3333 -14.3307 -14.3304
   -14.3194 -14.3173 -14.3147 -14.3129 -14.3020 -14.2996 -14.2904 -14.2884
   -14.2858 -14.2848 -14.2777 -14.2763  -5.8567  -5.6741  -5.3989  -5.2032
    -0.4564   0.0818   0.5994   0.9405   3.1957   3.3108   3.5458   4.2018
     4.2790   5.0528   5.1767   5.7295   5.9282   6.1375   6.3119   6.5216

     occupation numbers 
     1.0000   1.0000   1.0000   1.0000   1.0000   1.0000   1.0000   1.0000
     1.0000   1.0000   1.0000   1.0000   1.0000   1.0000   1.0000   1.0000
     1.0000   1.0000   1.0000   1.0000   1.0000   1.0000   1.0000   1.0000
     1.0000   1.0000   1.0000   1.0000   1.0000   1.0000   1.0000   1.0000
     1.0000   1.0000   1.0000   1.0000   1.0000   1.0000   1.0000   1.0000

          k = 0.1667 0.5434 1.1611 (  6594 PWs)   bands (ev):

   -14.3426 -14.3406 -14.3391 -14.3382 -14.3340 -14.3339 -14.3309 -14.3308
   -14.3185 -14.3179 -14.3135 -14.3127 -14.2996 -14.2987 -14.2902 -14.2895
   -14.2852 -14.2848 -14.2773 -14.2769  -5.6559  -5.5308  -5.4283  -5.3011
    -0.5090  -0.3117   0.5477   0.6800   3.5015   3.5538   3.7785   4.0187
     4.2550   4.6189   5.2146   5.5025   5.7930   6.0159   6.2273   6.3944

     occupation numbers 
     1.0000   1.0000   1.0000   1.0000   1.0000   1.0000   1.0000   1.0000
     1.0000   1.0000   1.0000   1.0000   1.0000   1.0000   1.0000   1.0000
     1.0000   1.0000   1.0000   1.0000   1.0000   1.0000   1.0000   1.0000
     1.0000   1.0000   1.0000   1.0000   1.0000   1.0000   1.0000   1.0000
     1.0000   1.0000   1.0000   1.0000   1.0000   1.0000   1.0000   1.0000

          k = 0.1667 0.9057 0.1659 (  6648 PWs)   bands (ev):

   -14.3398 -14.3380 -14.3358 -14.3355 -14.3348 -14.3309 -14.3281 -14.3276
   -14.3230 -14.3205 -14.3199 -14.3160 -14.3028 -14.2993 -14.2903 -14.2903
   -14.2853 -14.2827 -14.2768 -14.2756  -5.8634  -5.6973  -5.3208  -5.1593
    -0.3352   0.1379   0.4796   0.6505   3.1401   3.8794   4.2193   4.4597
     4.8888   4.9696   5.1482   5.3273   5.7581   6.1705   6.2457   6.5315

     occupation numbers 
     1.0000   1.0000   1.0000   1.0000   1.0000   1.0000   1.0000   1.0000
     1.0000   1.0000   1.0000   1.0000   1.0000   1.0000   1.0000   1.0000
     1.0000   1.0000   1.0000   1.0000   1.0000   1.0000   1.0000   1.0000
     1.0000   1.0000   1.0000   1.0000   1.0000   1.0000   1.0000   1.0000
     1.0000   1.0000   1.0000   1.0000   1.0000   1.0000   1.0000   1.0000

          k = 0.1667 0.9057 0.4976 (  6634 PWs)   bands (ev):

   -14.3417 -14.3385 -14.3369 -14.3361 -14.3355 -14.3312 -14.3281 -14.3275
   -14.3225 -14.3207 -14.3186 -14.3154 -14.3015 -14.2984 -14.2899 -14.2898
   -14.2854 -14.2832 -14.2767 -14.2757  -5.7749  -5.6184  -5.2994  -5.1506
    -0.3003   0.2266   0.4887   0.6405   3.1367   3.2609   3.5423   4.0152
     4.4210   5.0232   5.2109   5.5493   5.6890   5.8599   6.1609   6.3497

     occupation numbers 
     1.0000   1.0000   1.0000   1.0000   1.0000   1.0000   1.0000   1.0000
     1.0000   1.0000   1.0000   1.0000   1.0000   1.0000   1.0000   1.0000
     1.0000   1.0000   1.0000   1.0000   1.0000   1.0000   1.0000   1.0000
     1.0000   1.0000   1.0000   1.0000   1.0000   1.0000   1.0000   1.0000
     1.0000   1.0000   1.0000   1.0000   1.0000   1.0000   1.0000   1.0000

          k = 0.1667 0.9057 0.8294 (  6616 PWs)   bands (ev):

   -14.3435 -14.3409 -14.3381 -14.3376 -14.3350 -14.3319 -14.3282 -14.3277
   -14.3216 -14.3208 -14.3170 -14.3148 -14.2992 -14.2971 -14.2891 -14.2891
   -14.2853 -14.2839 -14.2766 -14.2759  -5.6245  -5.4856  -5.2867  -5.1573
    -0.2539   0.1940   0.5305   0.6879   2.7391   3.0342   3.4826   3.6717
     3.8723   4.6068   4.9001   5.1855   5.4691   5.5821   5.7703   6.2495

     occupation numbers 
     1.0000   1.0000   1.0000   1.0000   1.0000   1.0000   1.0000   1.0000
     1.0000   1.0000   1.0000   1.0000   1.0000   1.0000   1.0000   1.0000
     1.0000   1.0000   1.0000   1.0000   1.0000   1.0000   1.0000   1.0000
     1.0000   1.0000   1.0000   1.0000   1.0000   1.0000   1.0000   1.0000
     1.0000   1.0000   1.0000   1.0000   1.0000   1.0000   1.0000   1.0000

          k = 0.1667 0.9057 1.1611 (  6628 PWs)   bands (ev):

   -14.3442 -14.3432 -14.3390 -14.3388 -14.3340 -14.3329 -14.3282 -14.3280
   -14.3210 -14.3208 -14.3156 -14.3148 -14.2972 -14.2965 -14.2885 -14.2885
   -14.2851 -14.2846 -14.2764 -14.2762  -5.4632  -5.3709  -5.2978  -5.2101
    -0.1779  -0.0155   0.6508   0.7068   2.7451   3.0607   3.0943   3.4453
     3.8937   4.3048   4.5199   4.9269   5.0662   5.2861   5.8024   5.9653

     occupation numbers 
     1.0000   1.0000   1.0000   1.0000   1.0000   1.0000   1.0000   1.0000
     1.0000   1.0000   1.0000   1.0000   1.0000   1.0000   1.0000   1.0000
     1.0000   1.0000   1.0000   1.0000   1.0000   1.0000   1.0000   1.0000
     1.0000   1.0000   1.0000   1.0000   1.0000   1.0000   1.0000   1.0000
     1.0000   1.0000   1.0000   1.0000   1.0000   1.0000   1.0000   1.0000

          k = 0.1667 1.2680 0.1659 (  6643 PWs)   bands (ev):

   -14.3402 -14.3388 -14.3379 -14.3372 -14.3305 -14.3276 -14.3271 -14.3259
   -14.3235 -14.3223 -14.3207 -14.3185 -14.2994 -14.2968 -14.2953 -14.2937
   -14.2803 -14.2787 -14.2768 -14.2765  -5.5421  -5.4565  -5.3137  -5.2799
    -0.4185  -0.1437  -0.0266   0.1756   3.6644   4.1224   4.4435   4.6938
     4.8659   4.9478   5.2932   5.5065   5.8925   6.0171   6.1076   6.2427

     occupation numbers 
     1.0000   1.0000   1.0000   1.0000   1.0000   1.0000   1.0000   1.0000
     1.0000   1.0000   1.0000   1.0000   1.0000   1.0000   1.0000   1.0000
     1.0000   1.0000   1.0000   1.0000   1.0000   1.0000   1.0000   1.0000
     1.0000   1.0000   1.0000   1.0000   1.0000   1.0000   1.0000   1.0000
     1.0000   1.0000   1.0000   1.0000   1.0000   1.0000   1.0000   1.0000

          k = 0.1667 1.2680 0.4976 (  6627 PWs)   bands (ev):

   -14.3421 -14.3405 -14.3396 -14.3388 -14.3305 -14.3279 -14.3270 -14.3261
   -14.3227 -14.3220 -14.3197 -14.3179 -14.2985 -14.2966 -14.2939 -14.2929
   -14.2804 -14.2791 -14.2767 -14.2765  -5.4768  -5.3985  -5.2782  -5.2446
    -0.2745  -0.0060   0.1117   0.2534   3.4101   3.6184   3.8430   4.1384
     4.1998   4.7064   5.0412   5.2114   5.3287   5.6165   5.9033   6.2165

     occupation numbers 
     1.0000   1.0000   1.0000   1.0000   1.0000   1.0000   1.0000   1.0000
     1.0000   1.0000   1.0000   1.0000   1.0000   1.0000   1.0000   1.0000
     1.0000   1.0000   1.0000   1.0000   1.0000   1.0000   1.0000   1.0000
     1.0000   1.0000   1.0000   1.0000   1.0000   1.0000   1.0000   1.0000
     1.0000   1.0000   1.0000   1.0000   1.0000   1.0000   1.0000   1.0000

          k = 0.1667 1.2680 0.8294 (  6626 PWs)   bands (ev):

   -14.3445 -14.3432 -14.3418 -14.3412 -14.3303 -14.3285 -14.3268 -14.3262
   -14.3218 -14.3215 -14.3185 -14.3173 -14.2969 -14.2959 -14.2920 -14.2916
   -14.2804 -14.2796 -14.2766 -14.2765  -5.3728  -5.3078  -5.2337  -5.1994
    -0.0327   0.2026   0.3374   0.3866   2.7604   3.1740   3.2662   3.6783
     3.7263   4.1641   4.3448   4.8134   4.8894   5.1877   5.7601   5.9206

     occupation numbers 
     1.0000   1.0000   1.0000   1.0000   1.0000   1.0000   1.0000   1.0000
     1.0000   1.0000   1.0000   1.0000   1.0000   1.0000   1.0000   1.0000
     1.0000   1.0000   1.0000   1.0000   1.0000   1.0000   1.0000   1.0000
     1.0000   1.0000   1.0000   1.0000   1.0000   1.0000   1.0000   1.0000
     1.0000   1.0000   1.0000   1.0000   1.0000   1.0000   1.0000   1.0000

          k = 0.1667 1.2680 1.1611 (  6637 PWs)   bands (ev):

   -14.3459 -14.3455 -14.3432 -14.3429 -14.3300 -14.3293 -14.3266 -14.3264
   -14.3212 -14.3211 -14.3176 -14.3171 -14.2956 -14.2952 -14.2907 -14.2906
   -14.2803 -14.2801 -14.2765 -14.2764  -5.2759  -5.2370  -5.2099  -5.1821
     0.1963   0.2911   0.5355   0.5562   2.4950   2.6909   3.0160   3.2396
     3.4555   3.6093   4.0306   4.3248   4.8897   5.0912   5.6898   5.7249

     occupation numbers 
     1.0000   1.0000   1.0000   1.0000   1.0000   1.0000   1.0000   1.0000
     1.0000   1.0000   1.0000   1.0000   1.0000   1.0000   1.0000   1.0000
     1.0000   1.0000   1.0000   1.0000   1.0000   1.0000   1.0000   1.0000
     1.0000   1.0000   1.0000   1.0000   1.0000   1.0000   1.0000   1.0000
     1.0000   1.0000   1.0000   1.0000   1.0000   1.0000   1.0000   1.0000

          k =-0.5000 0.1811 0.1659 (  6614 PWs)   bands (ev):

   -14.3477 -14.3477 -14.3364 -14.3364 -14.3310 -14.3310 -14.3297 -14.3297
   -14.3182 -14.3182 -14.3118 -14.3118 -14.3068 -14.3068 -14.2913 -14.2913
   -14.2833 -14.2833 -14.2769 -14.2769  -6.1939  -6.1939  -5.3192  -5.3192
     0.3360   0.3360   1.7722   1.7722   3.2444   3.2444   4.1576   4.1576
     4.5277   4.5277   5.0511   5.0511   5.3840   5.3840   6.5059   6.5059

     occupation numbers 
     1.0000   1.0000   1.0000   1.0000   1.0000   1.0000   1.0000   1.0000
     1.0000   1.0000   1.0000   1.0000   1.0000   1.0000   1.0000   1.0000
     1.0000   1.0000   1.0000   1.0000   1.0000   1.0000   1.0000   1.0000
     1.0000   1.0000   1.0000   1.0000   1.0000   1.0000   1.0000   1.0000
     1.0000   1.0000   1.0000   1.0000   1.0000   1.0000   1.0000   1.0000

          k =-0.5000 0.1811 0.4976 (  6608 PWs)   bands (ev):

   -14.3471 -14.3471 -14.3366 -14.3366 -14.3312 -14.3312 -14.3304 -14.3304
   -14.3168 -14.3168 -14.3121 -14.3121 -14.3054 -14.3054 -14.2916 -14.2916
   -14.2833 -14.2833 -14.2770 -14.2770  -6.0912  -6.0912  -5.3179  -5.3179
     0.0226   0.0226   1.3323   1.3323   3.4131   3.4131   4.2055   4.2055
     4.8738   4.8738   5.2137   5.2137   5.8794   5.8794   6.3788   6.3788

     occupation numbers 
     1.0000   1.0000   1.0000   1.0000   1.0000   1.0000   1.0000   1.0000
     1.0000   1.0000   1.0000   1.0000   1.0000   1.0000   1.0000   1.0000
     1.0000   1.0000   1.0000   1.0000   1.0000   1.0000   1.0000   1.0000
     1.0000   1.0000   1.0000   1.0000   1.0000   1.0000   1.0000   1.0000
     1.0000   1.0000   1.0000   1.0000   1.0000   1.0000   1.0000   1.0000

          k =-0.5000 0.1811 0.8294 (  6604 PWs)   bands (ev):

   -14.3460 -14.3460 -14.3373 -14.3373 -14.3318 -14.3318 -14.3311 -14.3311
   -14.3148 -14.3148 -14.3127 -14.3127 -14.3031 -14.3031 -14.2921 -14.2921
   -14.2832 -14.2832 -14.2772 -14.2772  -5.9116  -5.9116  -5.3461  -5.3461
    -0.3503  -0.3503   0.8051   0.8051   3.7184   3.7184   4.4786   4.4786
     5.0120   5.0120   5.4698   5.4698   6.0982   6.0982   6.6044   6.6044

     occupation numbers 
     1.0000   1.0000   1.0000   1.0000   1.0000   1.0000   1.0000   1.0000
     1.0000   1.0000   1.0000   1.0000   1.0000   1.0000   1.0000   1.0000
     1.0000   1.0000   1.0000   1.0000   1.0000   1.0000   1.0000   1.0000
     1.0000   1.0000   1.0000   1.0000   1.0000   1.0000   1.0000   1.0000
     1.0000   1.0000   1.0000   1.0000   1.0000   1.0000   1.0000   1.0000

          k =-0.5000 0.1811 1.1611 (  6608 PWs)   bands (ev):

   -14.3451 -14.3451 -14.3381 -14.3381 -14.3324 -14.3324 -14.3314 -14.3314
   -14.3134 -14.3134 -14.3131 -14.3131 -14.3015 -14.3015 -14.2925 -14.2925
   -14.2832 -14.2832 -14.2773 -14.2773  -5.7210  -5.7210  -5.4270  -5.4270
    -0.5726  -0.5726   0.4630   0.4630   4.1286   4.1286   4.7784   4.7784
     4.8463   4.8463   5.3059   5.3059   6.5097   6.5097   6.7774   6.7774

     occupation numbers 
     1.0000   1.0000   1.0000   1.0000   1.0000   1.0000   1.0000   1.0000
     1.0000   1.0000   1.0000   1.0000   1.0000   1.0000   1.0000   1.0000
     1.0000   1.0000   1.0000   1.0000   1.0000   1.0000   1.0000   1.0000
     1.0000   1.0000   1.0000   1.0000   1.0000   1.0000   1.0000   1.0000
     1.0000   1.0000   1.0000   1.0000   1.0000   1.0000   1.0000   1.0000

          k =-0.5000 0.5434 0.1659 (  6628 PWs)   bands (ev):

   -14.3432 -14.3432 -14.3347 -14.3347 -14.3327 -14.3327 -14.3303 -14.3303
   -14.3184 -14.3184 -14.3163 -14.3163 -14.3038 -14.3038 -14.2888 -14.2888
   -14.2855 -14.2855 -14.2767 -14.2767  -6.0487  -6.0487  -5.2680  -5.2680
     0.1416   0.1416   1.2691   1.2691   3.3725   3.3725   4.0177   4.0177
     4.8297   4.8297   4.9980   4.9980   5.6728   5.6728   6.5107   6.5107

     occupation numbers 
     1.0000   1.0000   1.0000   1.0000   1.0000   1.0000   1.0000   1.0000
     1.0000   1.0000   1.0000   1.0000   1.0000   1.0000   1.0000   1.0000
     1.0000   1.0000   1.0000   1.0000   1.0000   1.0000   1.0000   1.0000
     1.0000   1.0000   1.0000   1.0000   1.0000   1.0000   1.0000   1.0000
     1.0000   1.0000   1.0000   1.0000   1.0000   1.0000   1.0000   1.0000

          k =-0.5000 0.5434 0.4976 (  6634 PWs)   bands (ev):

   -14.3429 -14.3429 -14.3357 -14.3357 -14.3329 -14.3329 -14.3304 -14.3304
   -14.3174 -14.3174 -14.3162 -14.3162 -14.3026 -14.3026 -14.2890 -14.2890
   -14.2856 -14.2856 -14.2768 -14.2768  -5.9517  -5.9517  -5.2633  -5.2633
    -0.0042  -0.0042   1.0741   1.0741   3.3485   3.3485   3.8126   3.8126
     4.4575   4.4575   5.5162   5.5162   6.0823   6.0823   6.4756   6.4756

     occupation numbers 
     1.0000   1.0000   1.0000   1.0000   1.0000   1.0000   1.0000   1.0000
     1.0000   1.0000   1.0000   1.0000   1.0000   1.0000   1.0000   1.0000
     1.0000   1.0000   1.0000   1.0000   1.0000   1.0000   1.0000   1.0000
     1.0000   1.0000   1.0000   1.0000   1.0000   1.0000   1.0000   1.0000
     1.0000   1.0000   1.0000   1.0000   1.0000   1.0000   1.0000   1.0000

          k =-0.5000 0.5434 0.8294 (  6620 PWs)   bands (ev):

   -14.3422 -14.3422 -14.3376 -14.3376 -14.3334 -14.3334 -14.3305 -14.3305
   -14.3169 -14.3169 -14.3154 -14.3154 -14.3006 -14.3006 -14.2894 -14.2894
   -14.2855 -14.2855 -14.2769 -14.2769  -5.7840  -5.7840  -5.2825  -5.2825
    -0.2315  -0.2315   0.7867   0.7867   3.3481   3.3481   3.9802   3.9802
     4.3385   4.3385   5.5304   5.5304   5.9513   5.9513   6.4411   6.4411

     occupation numbers 
     1.0000   1.0000   1.0000   1.0000   1.0000   1.0000   1.0000   1.0000
     1.0000   1.0000   1.0000   1.0000   1.0000   1.0000   1.0000   1.0000
     1.0000   1.0000   1.0000   1.0000   1.0000   1.0000   1.0000   1.0000
     1.0000   1.0000   1.0000   1.0000   1.0000   1.0000   1.0000   1.0000
     1.0000   1.0000   1.0000   1.0000   1.0000   1.0000   1.0000   1.0000

          k =-0.5000 0.5434 1.1611 (  6602 PWs)   bands (ev):

   -14.3412 -14.3412 -14.3395 -14.3395 -14.3338 -14.3338 -14.3306 -14.3306
   -14.3171 -14.3171 -14.3143 -14.3143 -14.2990 -14.2990 -14.2897 -14.2897
   -14.2854 -14.2854 -14.2769 -14.2769  -5.6091  -5.6091  -5.3492  -5.3492
    -0.3945  -0.3945   0.5699   0.5699   3.5825   3.5825   3.9425   3.9425
     4.6031   4.6031   5.0992   5.0992   5.7761   5.7761   6.2471   6.2471

     occupation numbers 
     1.0000   1.0000   1.0000   1.0000   1.0000   1.0000   1.0000   1.0000
     1.0000   1.0000   1.0000   1.0000   1.0000   1.0000   1.0000   1.0000
     1.0000   1.0000   1.0000   1.0000   1.0000   1.0000   1.0000   1.0000
     1.0000   1.0000   1.0000   1.0000   1.0000   1.0000   1.0000   1.0000
     1.0000   1.0000   1.0000   1.0000   1.0000   1.0000   1.0000   1.0000

          k =-0.5000 0.9057 0.1659 (  6640 PWs)   bands (ev):

   -14.3392 -14.3392 -14.3354 -14.3354 -14.3329 -14.3329 -14.3283 -14.3283
   -14.3206 -14.3206 -14.3189 -14.3189 -14.3008 -14.3008 -14.2904 -14.2904
   -14.2840 -14.2840 -14.2761 -14.2761  -5.7933  -5.7933  -5.2269  -5.2269
    -0.1371  -0.1371   0.5796   0.5796   3.6636   3.6636   4.1923   4.1923
     4.9968   4.9968   5.2075   5.2075   5.7379   5.7379   6.4101   6.4101

     occupation numbers 
     1.0000   1.0000   1.0000   1.0000   1.0000   1.0000   1.0000   1.0000
     1.0000   1.0000   1.0000   1.0000   1.0000   1.0000   1.0000   1.0000
     1.0000   1.0000   1.0000   1.0000   1.0000   1.0000   1.0000   1.0000
     1.0000   1.0000   1.0000   1.0000   1.0000   1.0000   1.0000   1.0000
     1.0000   1.0000   1.0000   1.0000   1.0000   1.0000   1.0000   1.0000

          k =-0.5000 0.9057 0.4976 (  6638 PWs)   bands (ev):

   -14.3404 -14.3404 -14.3364 -14.3364 -14.3333 -14.3333 -14.3279 -14.3279
   -14.3202 -14.3202 -14.3182 -14.3182 -14.2996 -14.2996 -14.2900 -14.2900
   -14.2842 -14.2842 -14.2762 -14.2762  -5.7094  -5.7094  -5.2121  -5.2121
    -0.0873  -0.0873   0.5937   0.5937   3.2546   3.2546   3.9421   3.9421
     4.4043   4.4043   5.4575   5.4575   5.6427   5.6427   6.3094   6.3094

     occupation numbers 
     1.0000   1.0000   1.0000   1.0000   1.0000   1.0000   1.0000   1.0000
     1.0000   1.0000   1.0000   1.0000   1.0000   1.0000   1.0000   1.0000
     1.0000   1.0000   1.0000   1.0000   1.0000   1.0000   1.0000   1.0000
     1.0000   1.0000   1.0000   1.0000   1.0000   1.0000   1.0000   1.0000
     1.0000   1.0000   1.0000   1.0000   1.0000   1.0000   1.0000   1.0000

          k =-0.5000 0.9057 0.8294 (  6622 PWs)   bands (ev):

   -14.3422 -14.3422 -14.3380 -14.3380 -14.3337 -14.3337 -14.3277 -14.3277
   -14.3200 -14.3200 -14.3171 -14.3171 -14.2978 -14.2978 -14.2894 -14.2894
   -14.2846 -14.2846 -14.2762 -14.2762  -5.5684  -5.5684  -5.2086  -5.2086
    -0.0609  -0.0609   0.6223   0.6223   2.8911   2.8911   3.6145   3.6145
     4.2891   4.2891   4.9248   4.9248   5.3924   5.3924   6.0842   6.0842

     occupation numbers 
     1.0000   1.0000   1.0000   1.0000   1.0000   1.0000   1.0000   1.0000
     1.0000   1.0000   1.0000   1.0000   1.0000   1.0000   1.0000   1.0000
     1.0000   1.0000   1.0000   1.0000   1.0000   1.0000   1.0000   1.0000
     1.0000   1.0000   1.0000   1.0000   1.0000   1.0000   1.0000   1.0000
     1.0000   1.0000   1.0000   1.0000   1.0000   1.0000   1.0000   1.0000

          k =-0.5000 0.9057 1.1611 (  6630 PWs)   bands (ev):

   -14.3434 -14.3434 -14.3392 -14.3392 -14.3340 -14.3340 -14.3276 -14.3276
   -14.3200 -14.3200 -14.3163 -14.3163 -14.2964 -14.2964 -14.2889 -14.2889
   -14.2848 -14.2848 -14.2762 -14.2762  -5.4283  -5.4283  -5.2428  -5.2428
    -0.0865  -0.0865   0.6552   0.6552   2.8974   2.8974   3.2266   3.2266
     4.2713   4.2713   4.6066   4.6066   5.2609   5.2609   5.7194   5.7194

     occupation numbers 
     1.0000   1.0000   1.0000   1.0000   1.0000   1.0000   1.0000   1.0000
     1.0000   1.0000   1.0000   1.0000   1.0000   1.0000   1.0000   1.0000
     1.0000   1.0000   1.0000   1.0000   1.0000   1.0000   1.0000   1.0000
     1.0000   1.0000   1.0000   1.0000   1.0000   1.0000   1.0000   1.0000
     1.0000   1.0000   1.0000   1.0000   1.0000   1.0000   1.0000   1.0000

          k =-0.5000 1.2680 0.1659 (  6642 PWs)   bands (ev):

   -14.3392 -14.3392 -14.3380 -14.3380 -14.3287 -14.3287 -14.3272 -14.3272
   -14.3218 -14.3218 -14.3204 -14.3204 -14.2979 -14.2979 -14.2946 -14.2946
   -14.2795 -14.2795 -14.2766 -14.2766  -5.5043  -5.5043  -5.2919  -5.2919
    -0.2413  -0.2413   0.0108   0.0108   4.1359   4.1359   4.4760   4.4760
     4.9529   4.9529   5.1589   5.1589   5.8489   5.8489   6.1465   6.1465

     occupation numbers 
     1.0000   1.0000   1.0000   1.0000   1.0000   1.0000   1.0000   1.0000
     1.0000   1.0000   1.0000   1.0000   1.0000   1.0000   1.0000   1.0000
     1.0000   1.0000   1.0000   1.0000   1.0000   1.0000   1.0000   1.0000
     1.0000   1.0000   1.0000   1.0000   1.0000   1.0000   1.0000   1.0000
     1.0000   1.0000   1.0000   1.0000   1.0000   1.0000   1.0000   1.0000

          k =-0.5000 1.2680 0.4976 (  6632 PWs)   bands (ev):

   -14.3410 -14.3410 -14.3396 -14.3396 -14.3291 -14.3291 -14.3271 -14.3271
   -14.3210 -14.3210 -14.3198 -14.3198 -14.2969 -14.2969 -14.2939 -14.2939
   -14.2796 -14.2796 -14.2767 -14.2767  -5.4425  -5.4425  -5.2566  -5.2566
    -0.1053  -0.1053   0.1281   0.1281   3.5472   3.5472   4.0322   4.0322
     4.5452   4.5452   4.9828   4.9828   5.4565   5.4565   5.8819   5.8819

     occupation numbers 
     1.0000   1.0000   1.0000   1.0000   1.0000   1.0000   1.0000   1.0000
     1.0000   1.0000   1.0000   1.0000   1.0000   1.0000   1.0000   1.0000
     1.0000   1.0000   1.0000   1.0000   1.0000   1.0000   1.0000   1.0000
     1.0000   1.0000   1.0000   1.0000   1.0000   1.0000   1.0000   1.0000
     1.0000   1.0000   1.0000   1.0000   1.0000   1.0000   1.0000   1.0000

          k =-0.5000 1.2680 0.8294 (  6632 PWs)   bands (ev):

   -14.3434 -14.3434 -14.3418 -14.3418 -14.3296 -14.3296 -14.3272 -14.3272
   -14.3201 -14.3201 -14.3189 -14.3189 -14.2954 -14.2954 -14.2928 -14.2928
   -14.2797 -14.2797 -14.2767 -14.2767  -5.3453  -5.3453  -5.2116  -5.2116
     0.1030   0.1030   0.3317   0.3317   2.9591   2.9591   3.4507   3.4507
     3.9959   3.9959   4.4419   4.4419   5.2934   5.2934   5.6585   5.6585

     occupation numbers 
     1.0000   1.0000   1.0000   1.0000   1.0000   1.0000   1.0000   1.0000
     1.0000   1.0000   1.0000   1.0000   1.0000   1.0000   1.0000   1.0000
     1.0000   1.0000   1.0000   1.0000   1.0000   1.0000   1.0000   1.0000
     1.0000   1.0000   1.0000   1.0000   1.0000   1.0000   1.0000   1.0000
     1.0000   1.0000   1.0000   1.0000   1.0000   1.0000   1.0000   1.0000

          k =-0.5000 1.2680 1.1611 (  6646 PWs)   bands (ev):

   -14.3451 -14.3451 -14.3434 -14.3434 -14.3300 -14.3300 -14.3274 -14.3274
   -14.3196 -14.3196 -14.3182 -14.3182 -14.2942 -14.2942 -14.2919 -14.2919
   -14.2798 -14.2798 -14.2767 -14.2767  -5.2606  -5.2606  -5.1919  -5.1919
     0.2508   0.2508   0.5308   0.5308   2.7291   2.7291   2.9789   2.9789
     3.5993   3.5993   3.9276   3.9276   5.3917   5.3917   5.5698   5.5698

     occupation numbers 
     1.0000   1.0000   1.0000   1.0000   1.0000   1.0000   1.0000   1.0000
     1.0000   1.0000   1.0000   1.0000   1.0000   1.0000   1.0000   1.0000
     1.0000   1.0000   1.0000   1.0000   1.0000   1.0000   1.0000   1.0000
     1.0000   1.0000   1.0000   1.0000   1.0000   1.0000   1.0000   1.0000
     1.0000   1.0000   1.0000   1.0000   1.0000   1.0000   1.0000   1.0000

     highest occupied level (ev):     6.8223

!    total energy              =    -827.73597449 Ry
     estimated scf accuracy    <          4.6E-10 Ry

     The total energy is the sum of the following terms:
     one-electron contribution =    -276.51780310 Ry
     hartree contribution      =     185.78910902 Ry
     xc contribution           =    -308.81129500 Ry
     ewald contribution        =    -428.07929112 Ry
     DFT-D3 Dispersion         =      -0.11669429 Ry

     convergence has been achieved in  12 iterations

     Forces acting on atoms (cartesian axes, Ry/au):

     atom    1 type  2   force =    -0.00993407    0.00000000   -0.00007367
     atom    2 type  1   force =     0.01135430   -0.00000000    0.00230394
     atom    3 type  2   force =     0.00993407    0.00000000   -0.00007367
     atom    4 type  1   force =    -0.01135430    0.00000000    0.00230394
     atom    5 type  2   force =    -0.00993407    0.00000000    0.00007367
     atom    6 type  1   force =     0.01135430    0.00000000   -0.00230394
     atom    7 type  2   force =     0.00993407    0.00000000    0.00007367
     atom    8 type  1   force =    -0.01135430    0.00000000   -0.00230394
     The non-local contrib.  to forces
     atom    1 type  2   force =    -0.09113854    0.00000000    0.11725314
     atom    2 type  1   force =     0.33277340    0.00000000    0.30229579
     atom    3 type  2   force =     0.09113854    0.00000000    0.11725314
     atom    4 type  1   force =    -0.33277340    0.00000000    0.30229579
     atom    5 type  2   force =    -0.09113854    0.00000000   -0.11725314
     atom    6 type  1   force =     0.33277340    0.00000000   -0.30229579
     atom    7 type  2   force =     0.09113854    0.00000000   -0.11725314
     atom    8 type  1   force =    -0.33277340    0.00000000   -0.30229579
     The ionic contribution  to forces
     atom    1 type  2   force =     0.83680137   -0.00000000   -1.46199222
     atom    2 type  1   force =    -0.56581482   -0.00000000   -0.93896146
     atom    3 type  2   force =    -0.83680137    0.00000000   -1.46199222
     atom    4 type  1   force =     0.56581482    0.00000000   -0.93896146
     atom    5 type  2   force =     0.83680137   -0.00000000    1.46199222
     atom    6 type  1   force =    -0.56581482   -0.00000000    0.93896146
     atom    7 type  2   force =    -0.83680137    0.00000000    1.46199222
     atom    8 type  1   force =     0.56581482    0.00000000    0.93896146
     The local contribution  to forces
     atom    1 type  2   force =    -0.76596207    0.00000000    1.35538537
     atom    2 type  1   force =     0.25201354   -0.00000000    0.64202151
     atom    3 type  2   force =     0.76596207    0.00000000    1.35538537
     atom    4 type  1   force =    -0.25201354    0.00000000    0.64202151
     atom    5 type  2   force =    -0.76596207   -0.00000000   -1.35538537
     atom    6 type  1   force =     0.25201354   -0.00000000   -0.64202151
     atom    7 type  2   force =     0.76596207    0.00000000   -1.35538537
     atom    8 type  1   force =    -0.25201354    0.00000000   -0.64202151
     The core correction contribution to forces
     atom    1 type  2   force =     0.01057456    0.00000000   -0.01293311
     atom    2 type  1   force =    -0.00769356   -0.00000000   -0.00458261
     atom    3 type  2   force =    -0.01057456   -0.00000000   -0.01293311
     atom    4 type  1   force =     0.00769356    0.00000000   -0.00458261
     atom    5 type  2   force =     0.01057456    0.00000000    0.01293311
     atom    6 type  1   force =    -0.00769356    0.00000000    0.00458261
     atom    7 type  2   force =    -0.01057456   -0.00000000    0.01293311
     atom    8 type  1   force =     0.00769356   -0.00000000    0.00458261
     The Hubbard contrib.    to forces
     atom    1 type  2   force =     0.00000000    0.00000000    0.00000000
     atom    2 type  1   force =     0.00000000    0.00000000    0.00000000
     atom    3 type  2   force =     0.00000000    0.00000000    0.00000000
     atom    4 type  1   force =     0.00000000    0.00000000    0.00000000
     atom    5 type  2   force =     0.00000000    0.00000000    0.00000000
     atom    6 type  1   force =     0.00000000    0.00000000    0.00000000
     atom    7 type  2   force =     0.00000000    0.00000000    0.00000000
     atom    8 type  1   force =     0.00000000    0.00000000    0.00000000
     The SCF correction term to forces
     atom    1 type  2   force =     0.00000146   -0.00000000   -0.00000165
     atom    2 type  1   force =     0.00000398    0.00000000    0.00000242
     atom    3 type  2   force =    -0.00000146    0.00000000   -0.00000165
     atom    4 type  1   force =    -0.00000398   -0.00000000    0.00000242
     atom    5 type  2   force =     0.00000146   -0.00000000    0.00000165
     atom    6 type  1   force =     0.00000398   -0.00000000   -0.00000242
     atom    7 type  2   force =    -0.00000146   -0.00000000    0.00000165
     atom    8 type  1   force =    -0.00000398   -0.00000000   -0.00000242

     DFT-D3 dispersion contribution to forces:
     atom    1 type  2   force =    -0.00021085   -0.00000000    0.00221479
     atom    2 type  1   force =     0.00007177    0.00000000    0.00152829
     atom    3 type  2   force =     0.00021085   -0.00000000    0.00221479
     atom    4 type  1   force =    -0.00007177   -0.00000000    0.00152829
     atom    5 type  2   force =    -0.00021085    0.00000000   -0.00221479
     atom    6 type  1   force =     0.00007177    0.00000000   -0.00152829
     atom    7 type  2   force =     0.00021085   -0.00000000   -0.00221479
     atom    8 type  1   force =    -0.00007177   -0.00000000   -0.00152829

     Total force =     0.030523     Total SCF correction =     0.000010

     DFT-D3 dispersion Force =     0.005400

     Writing all to output data dir ./tmp/SnSe_pnma.save/ :
     XML data file, charge density, pseudopotentials, collected wavefunctions
 
     init_run     :      1.61s CPU      1.82s WALL (       1 calls)
     electrons    :     41.06s CPU     44.02s WALL (       1 calls)
     forces       :      0.73s CPU      0.85s WALL (       1 calls)
     force_dftd3  :      0.05s CPU      0.05s WALL (       1 calls)

     Called by init_run:
     wfcinit      :      0.92s CPU      0.94s WALL (       1 calls)
     wfcinit:atom :      0.02s CPU      0.02s WALL (      11 calls)
     wfcinit:wfcr :      0.79s CPU      0.80s WALL (      11 calls)
     potinit      :      0.19s CPU      0.24s WALL (       1 calls)
     hinit0       :      0.16s CPU      0.17s WALL (       1 calls)

     Called by electrons:
     c_bands      :     29.70s CPU     30.09s WALL (      12 calls)
     sum_band     :      7.38s CPU      8.69s WALL (      12 calls)
     v_of_rho     :      1.37s CPU      1.43s WALL (      13 calls)
     v_h          :      0.10s CPU      0.10s WALL (      13 calls)
     v_xc         :      1.37s CPU      1.42s WALL (      14 calls)
     newd         :      2.59s CPU      3.90s WALL (      13 calls)
     mix_rho      :      0.16s CPU      0.16s WALL (      12 calls)
     energy_dftd3 :      0.04s CPU      0.05s WALL (       1 calls)

     Called by c_bands:
     init_us_2    :      0.95s CPU      0.96s WALL (     286 calls)
     cegterg      :     26.17s CPU     26.43s WALL (     132 calls)

     Called by sum_band:
     sum_band:wei :      0.00s CPU      0.00s WALL (      12 calls)
     sum_band:loo :      4.33s CPU      4.38s WALL (      12 calls)
     sum_band:buf :      0.06s CPU      0.06s WALL (     132 calls)
     sum_band:ini :      0.41s CPU      0.41s WALL (     132 calls)
     sum_band:cal :      0.58s CPU      0.59s WALL (     132 calls)
     sum_band:bec :      0.01s CPU      0.01s WALL (     132 calls)
     addusdens    :      2.44s CPU      3.61s WALL (      12 calls)
                                        0.00s GPU  (      12 calls)
     addusd:skk   :      0.01s CPU      0.01s WALL (      24 calls)
                                        0.00s GPU  (      24 calls)

     Called by *egterg:
     cdiaghg      :      0.97s CPU      0.97s WALL (     608 calls)
     cegterg:over :      1.43s CPU      1.44s WALL (     476 calls)
     cegterg:upda :      0.81s CPU      0.82s WALL (     476 calls)
     cegterg:last :      2.06s CPU      2.06s WALL (     332 calls)
     h_psi        :     18.69s CPU     18.89s WALL (     619 calls)
     s_psi        :      2.07s CPU      2.09s WALL (     619 calls)
     g_psi        :      0.08s CPU      0.08s WALL (     476 calls)

     Called by h_psi:
     h_psi:calbec :      1.95s CPU      1.96s WALL (     619 calls)
     vloc_psi     :     14.45s CPU     14.63s WALL (     619 calls)
     add_vuspsi   :      2.11s CPU      2.11s WALL (     619 calls)

     General routines
     calbec       :      2.72s CPU      2.74s WALL (     795 calls)
     fft          :      0.68s CPU      0.69s WALL (     178 calls)
     ffts         :      0.02s CPU      0.02s WALL (      25 calls)
     fftw         :      9.66s CPU      9.77s WALL (   37440 calls)
     interpolate  :      0.07s CPU      0.07s WALL (      13 calls)
 
     Parallel routines
 
     PWSCF        :     43.65s CPU     47.53s WALL

 
   This run was terminated on:  15: 8:37  20May2026            

=------------------------------------------------------------------------------=
   JOB DONE.
=------------------------------------------------------------------------------=
