
     Program PWSCF v.7.3.1 starts on 20May2026 at 16: 9:19 

     This program is part of the open-source Quantum ESPRESSO suite
     for quantum simulation of materials; please cite
         "P. Giannozzi et al., J. Phys.:Condens. Matter 21 395502 (2009);
         "P. Giannozzi et al., J. Phys.:Condens. Matter 29 465901 (2017);
         "P. Giannozzi et al., J. Chem. Phys. 152 154105 (2020);
          URL http://www.quantum-espresso.org", 
     in publications or presentations arising from this work. More details at
     http://www.quantum-espresso.org/quote

     Parallel version (MPI & OpenMP), running on       6 processor cores
     Number of MPI processes:                 6
     Threads/MPI process:                     1

     MPI processes distributed on     1 nodes
     10700 MiB available memory on the printing compute node when the environment starts
 
     Waiting for input...
     Reading input from standard input

     Current dimensions of program PWSCF are:
     Max number of different atomic species (ntypx) = 10
     Max number of k-points (npk) =  40000
     Max angular momentum in pseudopotentials (lmaxx) =  4
 
     K-points division:     npool     =       3
     R & G space division:  proc/nbgrp/npool/nimage =       2
     Subspace diagonalization in iterative solution of the eigenvalue problem:
     a serial algorithm will be used

 
     Parallelization info
     --------------------
     sticks:   dense  smooth     PW     G-vecs:    dense   smooth      PW
     Min        2633    1047    310                95982    24278    3823
     Max        2634    1048    311                95983    24279    3824
     Sum        5267    2095    621               191965    48557    7647
 
     Using Slab Decomposition
 


     bravais-lattice index     =            8
     lattice parameter (alat)  =      20.9382  a.u.
     unit-cell volume          =    1420.8697 (a.u.)^3
     number of atoms/cell      =            8
     number of atomic types    =            2
     number of electrons       =        80.00
     number of Kohn-Sham states=           40
     kinetic-energy cutoff     =      40.0000  Ry
     charge density cutoff     =     400.0000  Ry
     scf convergence threshold =      1.0E-08
     mixing beta               =       0.7000
     number of iterations used =            8  plain     mixing
     Exchange-correlation= SLA  PW   PBE  PBE
                           (   1   4   3   4   0   0   0)

     celldm(1)=  20.938165  celldm(2)=   0.376480  celldm(3)=   0.411146
     celldm(4)=   0.000000  celldm(5)=   0.000000  celldm(6)=   0.000000

     crystal axes: (cart. coord. in units of alat)
               a(1) = (   1.000000   0.000000   0.000000 )  
               a(2) = (   0.000000   0.376480   0.000000 )  
               a(3) = (   0.000000   0.000000   0.411146 )  

     reciprocal axes: (cart. coord. in units 2 pi/alat)
               b(1) = (  1.000000  0.000000  0.000000 )  
               b(2) = (  0.000000  2.656183  0.000000 )  
               b(3) = (  0.000000  0.000000  2.432225 )  


     PseudoPot. # 1 for Sn read from file:
     ../pseudo/Sn_pbe_v1.uspp.F.UPF
     MD5 check sum: 4cf58ce39ec5d5d420df3dd08604eb00
     Pseudo is Ultrasoft + core correction, Zval = 14.0
     Generated by new atomic code, or converted to UPF format
     Using radial grid of  891 points,  6 beta functions with: 
                l(1) =   0
                l(2) =   0
                l(3) =   1
                l(4) =   1
                l(5) =   2
                l(6) =   2
     Q(r) pseudized with  6 coefficients,  rinner =    1.200   1.200   1.200
                                                       1.200   1.200

     PseudoPot. # 2 for Se read from file:
     ../pseudo/Se_pbe_v1.uspp.F.UPF
     MD5 check sum: 1b3568f3a8ae88f9a2a0ad0698632c85
     Pseudo is Ultrasoft + core correction, Zval =  6.0
     Generated by new atomic code, or converted to UPF format
     Using radial grid of  877 points,  6 beta functions with: 
                l(1) =   0
                l(2) =   0
                l(3) =   1
                l(4) =   1
                l(5) =   2
                l(6) =   2
     Q(r) pseudized with  8 coefficients,  rinner =    1.300   1.300   1.300
                                                       1.300   1.300

     atomic species   valence    mass     pseudopotential
     Sn               14.00   118.71000     Sn( 1.00)
     Se                6.00    78.97100     Se( 1.00)

      8 Sym. Ops., with inversion, found ( 6 have fractional translation)


                                    s                        frac. trans.

      isym =  1     identity                                     

 cryst.   s( 1) = (     1          0          0      )
                  (     0          1          0      )
                  (     0          0          1      )

 cart.    s( 1) = (  1.0000000  0.0000000  0.0000000 )
                  (  0.0000000  1.0000000  0.0000000 )
                  (  0.0000000  0.0000000  1.0000000 )


      isym =  2     180 deg rotation - cart. axis [0,0,1]        

 cryst.   s( 2) = (    -1          0          0      )    f =(  0.5000000 )
                  (     0         -1          0      )       (  0.0000000 )
                  (     0          0          1      )       ( -0.5000000 )

 cart.    s( 2) = ( -1.0000000  0.0000000  0.0000000 )    f =(  0.5000000 )
                  (  0.0000000 -1.0000000  0.0000000 )       (  0.0000000 )
                  (  0.0000000  0.0000000  1.0000000 )       ( -0.2055731 )


      isym =  3     180 deg rotation - cart. axis [0,1,0]        

 cryst.   s( 3) = (    -1          0          0      )    f =(  0.0000000 )
                  (     0          1          0      )       ( -0.5000000 )
                  (     0          0         -1      )       (  0.0000000 )

 cart.    s( 3) = ( -1.0000000  0.0000000  0.0000000 )    f =(  0.0000000 )
                  (  0.0000000  1.0000000  0.0000000 )       ( -0.1882401 )
                  (  0.0000000  0.0000000 -1.0000000 )       (  0.0000000 )


      isym =  4     180 deg rotation - cart. axis [1,0,0]        

 cryst.   s( 4) = (     1          0          0      )    f =(  0.5000000 )
                  (     0         -1          0      )       (  0.5000000 )
                  (     0          0         -1      )       (  0.5000000 )

 cart.    s( 4) = (  1.0000000  0.0000000  0.0000000 )    f =(  0.5000000 )
                  (  0.0000000 -1.0000000  0.0000000 )       (  0.1882401 )
                  (  0.0000000  0.0000000 -1.0000000 )       (  0.2055731 )


      isym =  5     inversion                                    

 cryst.   s( 5) = (    -1          0          0      )
                  (     0         -1          0      )
                  (     0          0         -1      )

 cart.    s( 5) = ( -1.0000000  0.0000000  0.0000000 )
                  (  0.0000000 -1.0000000  0.0000000 )
                  (  0.0000000  0.0000000 -1.0000000 )


      isym =  6     inv. 180 deg rotation - cart. axis [0,0,1]   

 cryst.   s( 6) = (     1          0          0      )    f =(  0.5000000 )
                  (     0          1          0      )       (  0.0000000 )
                  (     0          0         -1      )       (  0.5000000 )

 cart.    s( 6) = (  1.0000000  0.0000000  0.0000000 )    f =(  0.5000000 )
                  (  0.0000000  1.0000000  0.0000000 )       (  0.0000000 )
                  (  0.0000000  0.0000000 -1.0000000 )       (  0.2055731 )


      isym =  7     inv. 180 deg rotation - cart. axis [0,1,0]   

 cryst.   s( 7) = (     1          0          0      )    f =(  0.0000000 )
                  (     0         -1          0      )       (  0.5000000 )
                  (     0          0          1      )       (  0.0000000 )

 cart.    s( 7) = (  1.0000000  0.0000000  0.0000000 )    f =(  0.0000000 )
                  (  0.0000000 -1.0000000  0.0000000 )       (  0.1882401 )
                  (  0.0000000  0.0000000  1.0000000 )       (  0.0000000 )


      isym =  8     inv. 180 deg rotation - cart. axis [1,0,0]   

 cryst.   s( 8) = (    -1          0          0      )    f =(  0.5000000 )
                  (     0          1          0      )       ( -0.5000000 )
                  (     0          0          1      )       ( -0.5000000 )

 cart.    s( 8) = ( -1.0000000  0.0000000  0.0000000 )    f =(  0.5000000 )
                  (  0.0000000  1.0000000  0.0000000 )       ( -0.1882401 )
                  (  0.0000000  0.0000000  1.0000000 )       ( -0.2055731 )


     point group D_2h (mmm) 
     there are  8 classes
     the character table:

       E     C2    C2'   C2''  i     s_v   s_v'  s_v''
A_g    1.00  1.00  1.00  1.00  1.00  1.00  1.00  1.00
B_1g   1.00  1.00 -1.00 -1.00  1.00  1.00 -1.00 -1.00
B_2g   1.00 -1.00  1.00 -1.00  1.00 -1.00  1.00 -1.00
B_3g   1.00 -1.00 -1.00  1.00  1.00 -1.00 -1.00  1.00
A_u    1.00  1.00  1.00  1.00 -1.00 -1.00 -1.00 -1.00
B_1u   1.00  1.00 -1.00 -1.00 -1.00 -1.00  1.00  1.00
B_2u   1.00 -1.00  1.00 -1.00 -1.00  1.00 -1.00  1.00
B_3u   1.00 -1.00 -1.00  1.00 -1.00  1.00  1.00 -1.00

     the symmetry operations in each class and the name of the first element:

     E        1
          identity                                               
     C2       2
          180 deg rotation - cart. axis [0,0,1]                  
     C2'      4
          180 deg rotation - cart. axis [1,0,0]                  
     C2''     3
          180 deg rotation - cart. axis [0,1,0]                  
     i        5
          inversion                                              
     s_v      6
          inv. 180 deg rotation - cart. axis [0,0,1]             
     s_v'     8
          inv. 180 deg rotation - cart. axis [1,0,0]             
     s_v''    7
          inv. 180 deg rotation - cart. axis [0,1,0]             

   Cartesian axes

     site n.     atom                  positions (alat units)
         1        Se     tau(   1) = (   0.8549563   0.0941200   0.1986856  )
         2        Sn     tau(   2) = (   0.1165395   0.0941200   0.0461664  )
         3        Se     tau(   3) = (   0.6450437   0.2823601   0.4042587  )
         4        Sn     tau(   4) = (   0.3834605   0.2823601   0.2517395  )
         5        Se     tau(   5) = (   0.3549563   0.0941200   0.0068875  )
         6        Sn     tau(   6) = (   0.6165395   0.0941200   0.1594067  )
         7        Se     tau(   7) = (   0.1450437   0.2823601   0.2124606  )
         8        Sn     tau(   8) = (   0.8834605   0.2823601   0.3649798  )

     --------------------------------------------
     DFT-D3 Dispersion Correction (3-body terms):
     --------------------------------------------
       Reference C6 values for interpolation: 

         atom   Coordination number   C6
         Se         0.000           427.35
         Se         0.990           427.57
         Se         1.981           421.05
         Sn         0.000          1255.14
         Sn         0.951          1084.09
         Sn         1.950          1010.83
         Sn         2.926           818.29
         Sn         3.912           672.20

       Values used:

         atom   Coordination number  R0_AB[au]  C6      C8
         Se         3.589            3.332    421.05  29958.36
         Sn         4.444            3.957    672.25  84374.31
         Se         3.589            3.332    421.05  29958.36
         Sn         4.444            3.957    672.25  84374.31
         Se         3.589            3.332    421.05  29958.36
         Sn         4.444            3.957    672.25  84374.31
         Se         3.589            3.332    421.05  29958.36
         Sn         4.444            3.957    672.25  84374.31

         Molecular C6 ( Ry / a.u.^6 ) =     34497.41


   Crystallographic axes

     site n.     atom                  positions (cryst. coord.)
         1        Se     tau(   1) = (  0.8549563  0.2500000  0.4832481  )
         2        Sn     tau(   2) = (  0.1165395  0.2500000  0.1122870  )
         3        Se     tau(   3) = (  0.6450437  0.7500000  0.9832481  )
         4        Sn     tau(   4) = (  0.3834605  0.7500000  0.6122870  )
         5        Se     tau(   5) = (  0.3549563  0.2500000  0.0167519  )
         6        Sn     tau(   6) = (  0.6165395  0.2500000  0.3877130  )
         7        Se     tau(   7) = (  0.1450437  0.7500000  0.5167519  )
         8        Sn     tau(   8) = (  0.8834605  0.7500000  0.8877130  )

     number of k points=    32
                       cart. coord. in units 2pi/alat
        k(    1) = (   0.1666667   0.1660114   0.1520140), wk =   0.0833333
        k(    2) = (   0.1666667   0.1660114   0.4560421), wk =   0.0833333
        k(    3) = (   0.1666667   0.1660114   0.7600702), wk =   0.0833333
        k(    4) = (   0.1666667   0.1660114   1.0640983), wk =   0.0833333
        k(    5) = (   0.1666667   0.4980342   0.1520140), wk =   0.0833333
        k(    6) = (   0.1666667   0.4980342   0.4560421), wk =   0.0833333
        k(    7) = (   0.1666667   0.4980342   0.7600702), wk =   0.0833333
        k(    8) = (   0.1666667   0.4980342   1.0640983), wk =   0.0833333
        k(    9) = (   0.1666667   0.8300571   0.1520140), wk =   0.0833333
        k(   10) = (   0.1666667   0.8300571   0.4560421), wk =   0.0833333
        k(   11) = (   0.1666667   0.8300571   0.7600702), wk =   0.0833333
        k(   12) = (   0.1666667   0.8300571   1.0640983), wk =   0.0833333
        k(   13) = (   0.1666667   1.1620799   0.1520140), wk =   0.0833333
        k(   14) = (   0.1666667   1.1620799   0.4560421), wk =   0.0833333
        k(   15) = (   0.1666667   1.1620799   0.7600702), wk =   0.0833333
        k(   16) = (   0.1666667   1.1620799   1.0640983), wk =   0.0833333
        k(   17) = (  -0.5000000   0.1660114   0.1520140), wk =   0.0416667
        k(   18) = (  -0.5000000   0.1660114   0.4560421), wk =   0.0416667
        k(   19) = (  -0.5000000   0.1660114   0.7600702), wk =   0.0416667
        k(   20) = (  -0.5000000   0.1660114   1.0640983), wk =   0.0416667
        k(   21) = (  -0.5000000   0.4980342   0.1520140), wk =   0.0416667
        k(   22) = (  -0.5000000   0.4980342   0.4560421), wk =   0.0416667
        k(   23) = (  -0.5000000   0.4980342   0.7600702), wk =   0.0416667
        k(   24) = (  -0.5000000   0.4980342   1.0640983), wk =   0.0416667
        k(   25) = (  -0.5000000   0.8300571   0.1520140), wk =   0.0416667
        k(   26) = (  -0.5000000   0.8300571   0.4560421), wk =   0.0416667
        k(   27) = (  -0.5000000   0.8300571   0.7600702), wk =   0.0416667
        k(   28) = (  -0.5000000   0.8300571   1.0640983), wk =   0.0416667
        k(   29) = (  -0.5000000   1.1620799   0.1520140), wk =   0.0416667
        k(   30) = (  -0.5000000   1.1620799   0.4560421), wk =   0.0416667
        k(   31) = (  -0.5000000   1.1620799   0.7600702), wk =   0.0416667
        k(   32) = (  -0.5000000   1.1620799   1.0640983), wk =   0.0416667

                       cryst. coord.
        k(    1) = (   0.1666667   0.0625000   0.0625000), wk =   0.0833333
        k(    2) = (   0.1666667   0.0625000   0.1875000), wk =   0.0833333
        k(    3) = (   0.1666667   0.0625000   0.3125000), wk =   0.0833333
        k(    4) = (   0.1666667   0.0625000   0.4375000), wk =   0.0833333
        k(    5) = (   0.1666667   0.1875000   0.0625000), wk =   0.0833333
        k(    6) = (   0.1666667   0.1875000   0.1875000), wk =   0.0833333
        k(    7) = (   0.1666667   0.1875000   0.3125000), wk =   0.0833333
        k(    8) = (   0.1666667   0.1875000   0.4375000), wk =   0.0833333
        k(    9) = (   0.1666667   0.3125000   0.0625000), wk =   0.0833333
        k(   10) = (   0.1666667   0.3125000   0.1875000), wk =   0.0833333
        k(   11) = (   0.1666667   0.3125000   0.3125000), wk =   0.0833333
        k(   12) = (   0.1666667   0.3125000   0.4375000), wk =   0.0833333
        k(   13) = (   0.1666667   0.4375000   0.0625000), wk =   0.0833333
        k(   14) = (   0.1666667   0.4375000   0.1875000), wk =   0.0833333
        k(   15) = (   0.1666667   0.4375000   0.3125000), wk =   0.0833333
        k(   16) = (   0.1666667   0.4375000   0.4375000), wk =   0.0833333
        k(   17) = (  -0.5000000   0.0625000   0.0625000), wk =   0.0416667
        k(   18) = (  -0.5000000   0.0625000   0.1875000), wk =   0.0416667
        k(   19) = (  -0.5000000   0.0625000   0.3125000), wk =   0.0416667
        k(   20) = (  -0.5000000   0.0625000   0.4375000), wk =   0.0416667
        k(   21) = (  -0.5000000   0.1875000   0.0625000), wk =   0.0416667
        k(   22) = (  -0.5000000   0.1875000   0.1875000), wk =   0.0416667
        k(   23) = (  -0.5000000   0.1875000   0.3125000), wk =   0.0416667
        k(   24) = (  -0.5000000   0.1875000   0.4375000), wk =   0.0416667
        k(   25) = (  -0.5000000   0.3125000   0.0625000), wk =   0.0416667
        k(   26) = (  -0.5000000   0.3125000   0.1875000), wk =   0.0416667
        k(   27) = (  -0.5000000   0.3125000   0.3125000), wk =   0.0416667
        k(   28) = (  -0.5000000   0.3125000   0.4375000), wk =   0.0416667
        k(   29) = (  -0.5000000   0.4375000   0.0625000), wk =   0.0416667
        k(   30) = (  -0.5000000   0.4375000   0.1875000), wk =   0.0416667
        k(   31) = (  -0.5000000   0.4375000   0.3125000), wk =   0.0416667
        k(   32) = (  -0.5000000   0.4375000   0.4375000), wk =   0.0416667

     Dense  grid:   191965 G-vectors     FFT dimensions: ( 144,  54,  60)

     Smooth grid:    48557 G-vectors     FFT dimensions: (  90,  32,  36)

     Dynamical RAM for                 wfc:       1.85 MB

     Dynamical RAM for     wfc (w. buffer):      22.23 MB

     Dynamical RAM for           str. fact:       2.93 MB

     Dynamical RAM for           local pot:       0.00 MB

     Dynamical RAM for          nlocal pot:       6.67 MB

     Dynamical RAM for                qrad:       3.21 MB

     Dynamical RAM for          rho,v,vnew:       9.73 MB

     Dynamical RAM for               rhoin:       3.24 MB

     Dynamical RAM for            rho*nmix:      23.43 MB

     Dynamical RAM for           G-vectors:       5.68 MB

     Dynamical RAM for          h,s,v(r/c):       0.29 MB

     Dynamical RAM for          <psi|beta>:       0.09 MB

     Dynamical RAM for                 psi:       3.70 MB

     Dynamical RAM for                hpsi:       3.70 MB

     Dynamical RAM for                spsi:       3.70 MB

     Dynamical RAM for      wfcinit/wfcrot:       4.88 MB

     Dynamical RAM for           addusdens:      93.73 MB

     Dynamical RAM for          addusforce:      96.43 MB

     Estimated static dynamical RAM per process >      66.99 MB

     Estimated max dynamical RAM per process >     186.85 MB

     Estimated total dynamical RAM >       1.00 GB

     Initial potential from superposition of free atoms

     starting charge      75.9995, renormalised to      80.0000
     Starting wfcs are   52 randomized atomic wfcs

     total cpu time spent up to now is        2.3 secs

     Self-consistent Calculation

     iteration #  1     ecut=    40.00 Ry     beta= 0.70
     Davidson diagonalization with overlap

---- Real-time Memory Report at c_bands before calling an iterative solver
           255 MiB given to the printing process from OS
             0 MiB allocation reported by mallinfo(arena+hblkhd)
         10094 MiB available memory on the node where the printing process lives
------------------
     ethr =  1.00E-02,  avg # of iterations =  2.0

     total cpu time spent up to now is        5.7 secs

     total energy              =    -826.63267737 Ry
     estimated scf accuracy    <       2.65521132 Ry

     iteration #  2     ecut=    40.00 Ry     beta= 0.70
     Davidson diagonalization with overlap

---- Real-time Memory Report at c_bands before calling an iterative solver
           319 MiB given to the printing process from OS
             0 MiB allocation reported by mallinfo(arena+hblkhd)
          9884 MiB available memory on the node where the printing process lives
------------------
     ethr =  3.32E-03,  avg # of iterations =  3.0

     total cpu time spent up to now is        9.3 secs

     total energy              =    -827.54343339 Ry
     estimated scf accuracy    <       0.91677708 Ry

     iteration #  3     ecut=    40.00 Ry     beta= 0.70
     Davidson diagonalization with overlap

---- Real-time Memory Report at c_bands before calling an iterative solver
           342 MiB given to the printing process from OS
             0 MiB allocation reported by mallinfo(arena+hblkhd)
          9739 MiB available memory on the node where the printing process lives
------------------
     ethr =  1.15E-03,  avg # of iterations =  2.5

     total cpu time spent up to now is       12.7 secs

     total energy              =    -827.72607274 Ry
     estimated scf accuracy    <       0.00903164 Ry

     iteration #  4     ecut=    40.00 Ry     beta= 0.70
     Davidson diagonalization with overlap

---- Real-time Memory Report at c_bands before calling an iterative solver
           348 MiB given to the printing process from OS
             0 MiB allocation reported by mallinfo(arena+hblkhd)
          9735 MiB available memory on the node where the printing process lives
------------------
     ethr =  1.13E-05,  avg # of iterations =  5.0

     total cpu time spent up to now is       16.7 secs

     total energy              =    -827.73186092 Ry
     estimated scf accuracy    <       0.00418883 Ry

     iteration #  5     ecut=    40.00 Ry     beta= 0.70
     Davidson diagonalization with overlap

---- Real-time Memory Report at c_bands before calling an iterative solver
           350 MiB given to the printing process from OS
             0 MiB allocation reported by mallinfo(arena+hblkhd)
          9727 MiB available memory on the node where the printing process lives
------------------
     ethr =  5.24E-06,  avg # of iterations =  3.3

     total cpu time spent up to now is       19.8 secs

     total energy              =    -827.73319238 Ry
     estimated scf accuracy    <       0.00117789 Ry

     iteration #  6     ecut=    40.00 Ry     beta= 0.70
     Davidson diagonalization with overlap

---- Real-time Memory Report at c_bands before calling an iterative solver
           352 MiB given to the printing process from OS
             0 MiB allocation reported by mallinfo(arena+hblkhd)
          9732 MiB available memory on the node where the printing process lives
------------------
     ethr =  1.47E-06,  avg # of iterations =  2.3

     total cpu time spent up to now is       22.7 secs

     total energy              =    -827.73337993 Ry
     estimated scf accuracy    <       0.00002504 Ry

     iteration #  7     ecut=    40.00 Ry     beta= 0.70
     Davidson diagonalization with overlap

---- Real-time Memory Report at c_bands before calling an iterative solver
           356 MiB given to the printing process from OS
             0 MiB allocation reported by mallinfo(arena+hblkhd)
          9729 MiB available memory on the node where the printing process lives
------------------
     ethr =  3.13E-08,  avg # of iterations =  5.6

     total cpu time spent up to now is       27.1 secs

     total energy              =    -827.73340343 Ry
     estimated scf accuracy    <       0.00000422 Ry

     iteration #  8     ecut=    40.00 Ry     beta= 0.70
     Davidson diagonalization with overlap

---- Real-time Memory Report at c_bands before calling an iterative solver
           358 MiB given to the printing process from OS
             0 MiB allocation reported by mallinfo(arena+hblkhd)
          9727 MiB available memory on the node where the printing process lives
------------------
     ethr =  5.27E-09,  avg # of iterations =  3.0

     total cpu time spent up to now is       30.7 secs

     total energy              =    -827.73340509 Ry
     estimated scf accuracy    <       0.00000122 Ry

     iteration #  9     ecut=    40.00 Ry     beta= 0.70
     Davidson diagonalization with overlap

---- Real-time Memory Report at c_bands before calling an iterative solver
           358 MiB given to the printing process from OS
             0 MiB allocation reported by mallinfo(arena+hblkhd)
          9725 MiB available memory on the node where the printing process lives
------------------
     ethr =  1.53E-09,  avg # of iterations =  3.5

     total cpu time spent up to now is       34.0 secs

     total energy              =    -827.73340548 Ry
     estimated scf accuracy    <       0.00000003 Ry

     iteration # 10     ecut=    40.00 Ry     beta= 0.70
     Davidson diagonalization with overlap

---- Real-time Memory Report at c_bands before calling an iterative solver
           359 MiB given to the printing process from OS
             0 MiB allocation reported by mallinfo(arena+hblkhd)
          9725 MiB available memory on the node where the printing process lives
------------------
     ethr =  4.09E-11,  avg # of iterations =  6.6

     total cpu time spent up to now is       40.0 secs

     End of self-consistent calculation

          k = 0.1667 0.1660 0.1520 (  6059 PWs)   bands (ev):

   -13.2136 -13.2013 -13.1969 -13.1953 -13.1929 -13.1922 -13.1888 -13.1855
   -13.1785 -13.1765 -13.1732 -13.1718 -13.1612 -13.1530 -13.1338 -13.1329
   -13.1252 -13.1243 -13.1121 -13.1045  -5.7121  -5.3850  -4.5869  -4.1329
     0.6202   1.5637   2.5762   2.8853   3.3162   4.5642   4.6891   4.9713
     5.2524   5.4164   5.9894   6.3534   6.6231   7.1301   7.3585   7.6481

     occupation numbers 
     1.0000   1.0000   1.0000   1.0000   1.0000   1.0000   1.0000   1.0000
     1.0000   1.0000   1.0000   1.0000   1.0000   1.0000   1.0000   1.0000
     1.0000   1.0000   1.0000   1.0000   1.0000   1.0000   1.0000   1.0000
     1.0000   1.0000   1.0000   1.0000   1.0000   1.0000   1.0000   1.0000
     1.0000   1.0000   1.0000   1.0000   1.0000   1.0000   1.0000   1.0000

          k = 0.1667 0.1660 0.4560 (  6054 PWs)   bands (ev):

   -13.2118 -13.2007 -13.1969 -13.1963 -13.1935 -13.1927 -13.1896 -13.1864
   -13.1777 -13.1739 -13.1719 -13.1706 -13.1609 -13.1540 -13.1342 -13.1318
   -13.1259 -13.1255 -13.1114 -13.1050  -5.5906  -5.2732  -4.5953  -4.1855
     0.3162   1.3450   1.9762   2.5957   3.4290   4.5941   4.8116   5.4024
     5.5710   5.9603   6.0034   6.4521   6.7979   7.1025   7.5125   7.7410

     occupation numbers 
     1.0000   1.0000   1.0000   1.0000   1.0000   1.0000   1.0000   1.0000
     1.0000   1.0000   1.0000   1.0000   1.0000   1.0000   1.0000   1.0000
     1.0000   1.0000   1.0000   1.0000   1.0000   1.0000   1.0000   1.0000
     1.0000   1.0000   1.0000   1.0000   1.0000   1.0000   1.0000   1.0000
     1.0000   1.0000   1.0000   1.0000   1.0000   1.0000   1.0000   1.0000

          k = 0.1667 0.1660 0.7601 (  6063 PWs)   bands (ev):

   -13.2087 -13.2005 -13.1981 -13.1968 -13.1950 -13.1929 -13.1902 -13.1879
   -13.1762 -13.1723 -13.1696 -13.1668 -13.1610 -13.1558 -13.1337 -13.1306
   -13.1276 -13.1269 -13.1103 -13.1060  -5.3699  -5.0723  -4.6512  -4.3095
     0.0323   0.8550   1.5276   2.1303   3.7355   4.8240   5.0194   5.6540
     5.9769   6.0755   6.3688   6.4591   6.9726   7.4257   7.5232   7.9713

     occupation numbers 
     1.0000   1.0000   1.0000   1.0000   1.0000   1.0000   1.0000   1.0000
     1.0000   1.0000   1.0000   1.0000   1.0000   1.0000   1.0000   1.0000
     1.0000   1.0000   1.0000   1.0000   1.0000   1.0000   1.0000   1.0000
     1.0000   1.0000   1.0000   1.0000   1.0000   1.0000   1.0000   1.0000
     1.0000   1.0000   1.0000   1.0000   1.0000   1.0000   1.0000   1.0000

          k = 0.1667 0.1660 1.0641 (  6058 PWs)   bands (ev):

   -13.2051 -13.2021 -13.1986 -13.1980 -13.1947 -13.1937 -13.1901 -13.1893
   -13.1746 -13.1733 -13.1654 -13.1634 -13.1615 -13.1586 -13.1323 -13.1301
   -13.1292 -13.1281 -13.1088 -13.1074  -5.1009  -4.9013  -4.7217  -4.5119
     0.0086   0.3123   1.4693   1.7009   4.1998   4.6944   5.4105   5.7244
     5.9602   6.1126   6.4446   6.6755   7.2656   7.5504   7.7567   7.8368

     occupation numbers 
     1.0000   1.0000   1.0000   1.0000   1.0000   1.0000   1.0000   1.0000
     1.0000   1.0000   1.0000   1.0000   1.0000   1.0000   1.0000   1.0000
     1.0000   1.0000   1.0000   1.0000   1.0000   1.0000   1.0000   1.0000
     1.0000   1.0000   1.0000   1.0000   1.0000   1.0000   1.0000   1.0000
     1.0000   1.0000   1.0000   1.0000   1.0000   1.0000   1.0000   1.0000

          k = 0.1667 0.4980 0.1520 (  6065 PWs)   bands (ev):

   -13.2075 -13.1999 -13.1979 -13.1952 -13.1921 -13.1918 -13.1897 -13.1883
   -13.1793 -13.1738 -13.1725 -13.1704 -13.1587 -13.1544 -13.1360 -13.1317
   -13.1285 -13.1226 -13.1122 -13.1064  -5.5461  -5.2433  -4.5279  -4.1520
     0.4879   1.3366   2.1984   2.3573   3.4285   4.4129   4.7467   5.1071
     5.3992   5.5705   6.0382   6.4092   6.5694   7.2420   7.5429   7.7080

     occupation numbers 
     1.0000   1.0000   1.0000   1.0000   1.0000   1.0000   1.0000   1.0000
     1.0000   1.0000   1.0000   1.0000   1.0000   1.0000   1.0000   1.0000
     1.0000   1.0000   1.0000   1.0000   1.0000   1.0000   1.0000   1.0000
     1.0000   1.0000   1.0000   1.0000   1.0000   1.0000   1.0000   1.0000
     1.0000   1.0000   1.0000   1.0000   1.0000   1.0000   1.0000   1.0000

          k = 0.1667 0.4980 0.4560 (  6076 PWs)   bands (ev):

   -13.2072 -13.2000 -13.1994 -13.1959 -13.1924 -13.1916 -13.1900 -13.1887
   -13.1785 -13.1740 -13.1702 -13.1679 -13.1591 -13.1545 -13.1356 -13.1317
   -13.1287 -13.1237 -13.1116 -13.1066  -5.4306  -5.1384  -4.5326  -4.1906
     0.3363   1.2934   1.8395   2.2213   3.5648   4.0114   4.3414   5.2820
     5.4664   6.0102   6.1029   6.3760   6.9586   7.1267   7.5313   7.7135

     occupation numbers 
     1.0000   1.0000   1.0000   1.0000   1.0000   1.0000   1.0000   1.0000
     1.0000   1.0000   1.0000   1.0000   1.0000   1.0000   1.0000   1.0000
     1.0000   1.0000   1.0000   1.0000   1.0000   1.0000   1.0000   1.0000
     1.0000   1.0000   1.0000   1.0000   1.0000   1.0000   1.0000   1.0000
     1.0000   1.0000   1.0000   1.0000   1.0000   1.0000   1.0000   1.0000

          k = 0.1667 0.4980 0.7601 (  6066 PWs)   bands (ev):

   -13.2069 -13.2021 -13.1998 -13.1972 -13.1935 -13.1912 -13.1906 -13.1883
   -13.1774 -13.1746 -13.1664 -13.1643 -13.1595 -13.1554 -13.1347 -13.1319
   -13.1288 -13.1253 -13.1106 -13.1072  -5.2230  -4.9521  -4.5776  -4.2872
     0.1802   0.9669   1.5619   1.9996   3.8174   3.9671   4.2929   5.1515
     5.2929   5.9740   6.0978   6.6121   6.8561   7.1595   7.3850   7.7312

     occupation numbers 
     1.0000   1.0000   1.0000   1.0000   1.0000   1.0000   1.0000   1.0000
     1.0000   1.0000   1.0000   1.0000   1.0000   1.0000   1.0000   1.0000
     1.0000   1.0000   1.0000   1.0000   1.0000   1.0000   1.0000   1.0000
     1.0000   1.0000   1.0000   1.0000   1.0000   1.0000   1.0000   1.0000
     1.0000   1.0000   1.0000   1.0000   1.0000   1.0000   1.0000   1.0000

          k = 0.1667 0.4980 1.0641 (  6044 PWs)   bands (ev):

   -13.2062 -13.2046 -13.1994 -13.1985 -13.1935 -13.1924 -13.1894 -13.1885
   -13.1763 -13.1753 -13.1628 -13.1606 -13.1605 -13.1574 -13.1336 -13.1325
   -13.1282 -13.1269 -13.1093 -13.1081  -4.9748  -4.7954  -4.6369  -4.4548
     0.2040   0.4915   1.5679   1.7399   4.1305   4.2040   4.5066   4.8114
     5.1617   5.4655   6.1544   6.4343   6.8711   7.1460   7.4394   7.6489

     occupation numbers 
     1.0000   1.0000   1.0000   1.0000   1.0000   1.0000   1.0000   1.0000
     1.0000   1.0000   1.0000   1.0000   1.0000   1.0000   1.0000   1.0000
     1.0000   1.0000   1.0000   1.0000   1.0000   1.0000   1.0000   1.0000
     1.0000   1.0000   1.0000   1.0000   1.0000   1.0000   1.0000   1.0000
     1.0000   1.0000   1.0000   1.0000   1.0000   1.0000   1.0000   1.0000

          k = 0.1667 0.8301 0.1520 (  6085 PWs)   bands (ev):

   -13.2046 -13.2023 -13.2012 -13.2001 -13.1891 -13.1873 -13.1855 -13.1840
   -13.1784 -13.1755 -13.1687 -13.1663 -13.1580 -13.1551 -13.1410 -13.1389
   -13.1246 -13.1196 -13.1124 -13.1093  -5.2408  -4.9951  -4.4725  -4.2511
     0.3182   1.0633   1.3804   1.8407   3.7716   4.5250   4.9137   5.3188
     5.6193   5.7454   6.1484   6.3457   6.6648   7.2083   7.3337   7.7467

     occupation numbers 
     1.0000   1.0000   1.0000   1.0000   1.0000   1.0000   1.0000   1.0000
     1.0000   1.0000   1.0000   1.0000   1.0000   1.0000   1.0000   1.0000
     1.0000   1.0000   1.0000   1.0000   1.0000   1.0000   1.0000   1.0000
     1.0000   1.0000   1.0000   1.0000   1.0000   1.0000   1.0000   1.0000
     1.0000   1.0000   1.0000   1.0000   1.0000   1.0000   1.0000   1.0000

          k = 0.1667 0.8301 0.4560 (  6082 PWs)   bands (ev):

   -13.2077 -13.2043 -13.2026 -13.2007 -13.1894 -13.1863 -13.1851 -13.1838
   -13.1773 -13.1755 -13.1670 -13.1646 -13.1585 -13.1545 -13.1405 -13.1387
   -13.1247 -13.1204 -13.1119 -13.1092  -5.1397  -4.9059  -4.4657  -4.2591
     0.3602   1.1560   1.4200   1.7244   3.7613   3.8798   4.2841   4.9647
     5.3974   5.9174   5.9674   6.4718   6.5405   7.0501   7.2014   7.5133

     occupation numbers 
     1.0000   1.0000   1.0000   1.0000   1.0000   1.0000   1.0000   1.0000
     1.0000   1.0000   1.0000   1.0000   1.0000   1.0000   1.0000   1.0000
     1.0000   1.0000   1.0000   1.0000   1.0000   1.0000   1.0000   1.0000
     1.0000   1.0000   1.0000   1.0000   1.0000   1.0000   1.0000   1.0000
     1.0000   1.0000   1.0000   1.0000   1.0000   1.0000   1.0000   1.0000

          k = 0.1667 0.8301 0.7601 (  6057 PWs)   bands (ev):

   -13.2108 -13.2081 -13.2039 -13.2025 -13.1890 -13.1854 -13.1849 -13.1836
   -13.1761 -13.1755 -13.1642 -13.1621 -13.1585 -13.1547 -13.1396 -13.1384
   -13.1244 -13.1216 -13.1111 -13.1092  -4.9631  -4.7527  -4.4828  -4.2979
     0.4296   1.0973   1.4937   1.6683   3.3830   3.7477   4.1744   4.4980
     4.8887   5.3766   5.7075   6.1051   6.4276   6.7777   7.0734   7.4878

     occupation numbers 
     1.0000   1.0000   1.0000   1.0000   1.0000   1.0000   1.0000   1.0000
     1.0000   1.0000   1.0000   1.0000   1.0000   1.0000   1.0000   1.0000
     1.0000   1.0000   1.0000   1.0000   1.0000   1.0000   1.0000   1.0000
     1.0000   1.0000   1.0000   1.0000   1.0000   1.0000   1.0000   1.0000
     1.0000   1.0000   1.0000   1.0000   1.0000   1.0000   1.0000   1.0000

          k = 0.1667 0.8301 1.0641 (  6061 PWs)   bands (ev):

   -13.2122 -13.2112 -13.2048 -13.2042 -13.1878 -13.1864 -13.1841 -13.1835
   -13.1754 -13.1753 -13.1617 -13.1607 -13.1575 -13.1559 -13.1388 -13.1383
   -13.1238 -13.1228 -13.1102 -13.1095  -4.7624  -4.6282  -4.5152  -4.3921
     0.5572   0.7996   1.6265   1.6812   3.4041   3.7506   3.8902   4.2440
     4.6761   5.0274   5.4887   5.8652   6.1350   6.4252   7.1683   7.2861

     occupation numbers 
     1.0000   1.0000   1.0000   1.0000   1.0000   1.0000   1.0000   1.0000
     1.0000   1.0000   1.0000   1.0000   1.0000   1.0000   1.0000   1.0000
     1.0000   1.0000   1.0000   1.0000   1.0000   1.0000   1.0000   1.0000
     1.0000   1.0000   1.0000   1.0000   1.0000   1.0000   1.0000   1.0000
     1.0000   1.0000   1.0000   1.0000   1.0000   1.0000   1.0000   1.0000

          k = 0.1667 1.1621 0.1520 (  6086 PWs)   bands (ev):

   -13.2072 -13.2060 -13.2035 -13.2024 -13.1848 -13.1834 -13.1824 -13.1804
   -13.1735 -13.1731 -13.1697 -13.1654 -13.1572 -13.1515 -13.1482 -13.1464
   -13.1189 -13.1163 -13.1135 -13.1133  -4.8570  -4.7176  -4.5205  -4.4934
     0.3281   0.6889   1.0285   1.3270   4.2780   4.7052   5.1230   5.4952
     5.6939   5.7196   6.1576   6.4951   6.7808   7.0506   7.0957   7.2790

     occupation numbers 
     1.0000   1.0000   1.0000   1.0000   1.0000   1.0000   1.0000   1.0000
     1.0000   1.0000   1.0000   1.0000   1.0000   1.0000   1.0000   1.0000
     1.0000   1.0000   1.0000   1.0000   1.0000   1.0000   1.0000   1.0000
     1.0000   1.0000   1.0000   1.0000   1.0000   1.0000   1.0000   1.0000
     1.0000   1.0000   1.0000   1.0000   1.0000   1.0000   1.0000   1.0000

          k = 0.1667 1.1621 0.4560 (  6071 PWs)   bands (ev):

   -13.2103 -13.2091 -13.2049 -13.2040 -13.1854 -13.1836 -13.1812 -13.1799
   -13.1729 -13.1720 -13.1684 -13.1648 -13.1566 -13.1525 -13.1463 -13.1453
   -13.1192 -13.1172 -13.1129 -13.1125  -4.7828  -4.6547  -4.4897  -4.4587
     0.4745   0.8261   1.1413   1.3522   4.0296   4.2126   4.5099   4.7879
     5.0678   5.4885   6.0237   6.2163   6.3454   6.6233   7.2241   7.4609

     occupation numbers 
     1.0000   1.0000   1.0000   1.0000   1.0000   1.0000   1.0000   1.0000
     1.0000   1.0000   1.0000   1.0000   1.0000   1.0000   1.0000   1.0000
     1.0000   1.0000   1.0000   1.0000   1.0000   1.0000   1.0000   1.0000
     1.0000   1.0000   1.0000   1.0000   1.0000   1.0000   1.0000   1.0000
     1.0000   1.0000   1.0000   1.0000   1.0000   1.0000   1.0000   1.0000

          k = 0.1667 1.1621 0.7601 (  6077 PWs)   bands (ev):

   -13.2143 -13.2133 -13.2070 -13.2065 -13.1856 -13.1841 -13.1799 -13.1793
   -13.1721 -13.1711 -13.1665 -13.1640 -13.1554 -13.1530 -13.1444 -13.1439
   -13.1194 -13.1182 -13.1122 -13.1118  -4.6617  -4.5555  -4.4554  -4.4160
     0.7239   1.0397   1.3109   1.3796   3.3900   3.8487   3.9678   4.2421
     4.6612   4.9589   5.3880   5.8405   5.9656   6.2111   7.1188   7.2418

     occupation numbers 
     1.0000   1.0000   1.0000   1.0000   1.0000   1.0000   1.0000   1.0000
     1.0000   1.0000   1.0000   1.0000   1.0000   1.0000   1.0000   1.0000
     1.0000   1.0000   1.0000   1.0000   1.0000   1.0000   1.0000   1.0000
     1.0000   1.0000   1.0000   1.0000   1.0000   1.0000   1.0000   1.0000
     1.0000   1.0000   1.0000   1.0000   1.0000   1.0000   1.0000   1.0000

          k = 0.1667 1.1621 1.0641 (  6081 PWs)   bands (ev):

   -13.2167 -13.2164 -13.2085 -13.2083 -13.1854 -13.1848 -13.1792 -13.1790
   -13.1712 -13.1708 -13.1648 -13.1639 -13.1541 -13.1534 -13.1432 -13.1430
   -13.1193 -13.1188 -13.1116 -13.1115  -4.5423  -4.4826  -4.4406  -4.4049
     0.9749   1.1180   1.4289   1.4691   3.1410   3.3484   3.7549   3.8649
     4.4897   4.5218   5.0402   5.3733   5.9280   6.1128   6.9512   7.0089

     occupation numbers 
     1.0000   1.0000   1.0000   1.0000   1.0000   1.0000   1.0000   1.0000
     1.0000   1.0000   1.0000   1.0000   1.0000   1.0000   1.0000   1.0000
     1.0000   1.0000   1.0000   1.0000   1.0000   1.0000   1.0000   1.0000
     1.0000   1.0000   1.0000   1.0000   1.0000   1.0000   1.0000   1.0000
     1.0000   1.0000   1.0000   1.0000   1.0000   1.0000   1.0000   1.0000

          k =-0.5000 0.1660 0.1520 (  6048 PWs)   bands (ev):

   -13.2081 -13.2081 -13.1948 -13.1948 -13.1943 -13.1943 -13.1863 -13.1863
   -13.1757 -13.1757 -13.1749 -13.1749 -13.1565 -13.1565 -13.1329 -13.1329
   -13.1250 -13.1250 -13.1081 -13.1081  -5.5784  -5.5784  -4.3298  -4.3298
     0.9534   0.9534   2.8125   2.8125   4.0328   4.0328   4.8900   4.8900
     5.4571   5.4571   6.0747   6.0747   6.4397   6.4397   7.5711   7.5711

     occupation numbers 
     1.0000   1.0000   1.0000   1.0000   1.0000   1.0000   1.0000   1.0000
     1.0000   1.0000   1.0000   1.0000   1.0000   1.0000   1.0000   1.0000
     1.0000   1.0000   1.0000   1.0000   1.0000   1.0000   1.0000   1.0000
     1.0000   1.0000   1.0000   1.0000   1.0000   1.0000   1.0000   1.0000
     1.0000   1.0000   1.0000   1.0000   1.0000   1.0000   1.0000   1.0000

          k =-0.5000 0.1660 0.4560 (  6070 PWs)   bands (ev):

   -13.2070 -13.2070 -13.1954 -13.1954 -13.1942 -13.1942 -13.1877 -13.1877
   -13.1749 -13.1749 -13.1725 -13.1725 -13.1570 -13.1570 -13.1326 -13.1326
   -13.1259 -13.1259 -13.1081 -13.1081  -5.4621  -5.4621  -4.3600  -4.3600
     0.6851   0.6851   2.3364   2.3364   4.2932   4.2932   4.9766   4.9766
     5.6703   5.6703   6.2326   6.2326   6.8676   6.8676   7.4913   7.4913

     occupation numbers 
     1.0000   1.0000   1.0000   1.0000   1.0000   1.0000   1.0000   1.0000
     1.0000   1.0000   1.0000   1.0000   1.0000   1.0000   1.0000   1.0000
     1.0000   1.0000   1.0000   1.0000   1.0000   1.0000   1.0000   1.0000
     1.0000   1.0000   1.0000   1.0000   1.0000   1.0000   1.0000   1.0000
     1.0000   1.0000   1.0000   1.0000   1.0000   1.0000   1.0000   1.0000

          k =-0.5000 0.1660 0.7601 (  6038 PWs)   bands (ev):

   -13.2051 -13.2051 -13.1971 -13.1971 -13.1937 -13.1937 -13.1894 -13.1894
   -13.1741 -13.1741 -13.1685 -13.1685 -13.1581 -13.1581 -13.1319 -13.1319
   -13.1274 -13.1274 -13.1081 -13.1081  -5.2540  -5.2540  -4.4479  -4.4479
     0.3812   0.3812   1.7852   1.7852   4.6209   4.6209   5.2664   5.2664
     5.8048   5.8048   6.4273   6.4273   7.0861   7.0861   7.6274   7.6274

     occupation numbers 
     1.0000   1.0000   1.0000   1.0000   1.0000   1.0000   1.0000   1.0000
     1.0000   1.0000   1.0000   1.0000   1.0000   1.0000   1.0000   1.0000
     1.0000   1.0000   1.0000   1.0000   1.0000   1.0000   1.0000   1.0000
     1.0000   1.0000   1.0000   1.0000   1.0000   1.0000   1.0000   1.0000
     1.0000   1.0000   1.0000   1.0000   1.0000   1.0000   1.0000   1.0000

          k =-0.5000 0.1660 1.0641 (  6048 PWs)   bands (ev):

   -13.2034 -13.2034 -13.1984 -13.1984 -13.1936 -13.1936 -13.1907 -13.1907
   -13.1735 -13.1735 -13.1647 -13.1647 -13.1598 -13.1598 -13.1310 -13.1310
   -13.1289 -13.1289 -13.1080 -13.1080  -5.0248  -5.0248  -4.5944  -4.5944
     0.2179   0.2179   1.4208   1.4208   5.0301   5.0301   5.5667   5.5667
     5.6523   5.6523   6.2869   6.2869   7.4253   7.4253   7.7193   7.7193

     occupation numbers 
     1.0000   1.0000   1.0000   1.0000   1.0000   1.0000   1.0000   1.0000
     1.0000   1.0000   1.0000   1.0000   1.0000   1.0000   1.0000   1.0000
     1.0000   1.0000   1.0000   1.0000   1.0000   1.0000   1.0000   1.0000
     1.0000   1.0000   1.0000   1.0000   1.0000   1.0000   1.0000   1.0000
     1.0000   1.0000   1.0000   1.0000   1.0000   1.0000   1.0000   1.0000

          k =-0.5000 0.4980 0.1520 (  6074 PWs)   bands (ev):

   -13.2037 -13.2037 -13.1970 -13.1970 -13.1914 -13.1914 -13.1892 -13.1892
   -13.1766 -13.1766 -13.1716 -13.1716 -13.1563 -13.1563 -13.1343 -13.1343
   -13.1250 -13.1250 -13.1092 -13.1092  -5.4216  -5.4216  -4.3120  -4.3120
     0.8051   0.8051   2.3099   2.3099   4.1563   4.1563   4.8040   4.8040
     5.7361   5.7361   5.9415   5.9415   6.5971   6.5971   7.7021   7.7021

     occupation numbers 
     1.0000   1.0000   1.0000   1.0000   1.0000   1.0000   1.0000   1.0000
     1.0000   1.0000   1.0000   1.0000   1.0000   1.0000   1.0000   1.0000
     1.0000   1.0000   1.0000   1.0000   1.0000   1.0000   1.0000   1.0000
     1.0000   1.0000   1.0000   1.0000   1.0000   1.0000   1.0000   1.0000
     1.0000   1.0000   1.0000   1.0000   1.0000   1.0000   1.0000   1.0000

          k =-0.5000 0.4980 0.4560 (  6082 PWs)   bands (ev):

   -13.2038 -13.2038 -13.1981 -13.1981 -13.1918 -13.1918 -13.1890 -13.1890
   -13.1763 -13.1763 -13.1691 -13.1691 -13.1567 -13.1567 -13.1341 -13.1341
   -13.1257 -13.1257 -13.1089 -13.1089  -5.3115  -5.3115  -4.3338  -4.3338
     0.6915   0.6915   2.0706   2.0706   4.0802   4.0802   4.7473   4.7473
     5.4257   5.4257   6.3463   6.3463   6.9540   6.9540   7.6035   7.6035

     occupation numbers 
     1.0000   1.0000   1.0000   1.0000   1.0000   1.0000   1.0000   1.0000
     1.0000   1.0000   1.0000   1.0000   1.0000   1.0000   1.0000   1.0000
     1.0000   1.0000   1.0000   1.0000   1.0000   1.0000   1.0000   1.0000
     1.0000   1.0000   1.0000   1.0000   1.0000   1.0000   1.0000   1.0000
     1.0000   1.0000   1.0000   1.0000   1.0000   1.0000   1.0000   1.0000

          k =-0.5000 0.4980 0.7601 (  6060 PWs)   bands (ev):

   -13.2041 -13.2041 -13.2001 -13.2001 -13.1916 -13.1916 -13.1888 -13.1888
   -13.1760 -13.1760 -13.1654 -13.1654 -13.1576 -13.1576 -13.1338 -13.1338
   -13.1267 -13.1267 -13.1087 -13.1087  -5.1167  -5.1167  -4.4034  -4.4034
     0.5165   0.5165   1.7535   1.7535   4.0654   4.0654   4.9084   4.9084
     5.2627   5.2627   6.4603   6.4603   6.8144   6.8144   7.5518   7.5518

     occupation numbers 
     1.0000   1.0000   1.0000   1.0000   1.0000   1.0000   1.0000   1.0000
     1.0000   1.0000   1.0000   1.0000   1.0000   1.0000   1.0000   1.0000
     1.0000   1.0000   1.0000   1.0000   1.0000   1.0000   1.0000   1.0000
     1.0000   1.0000   1.0000   1.0000   1.0000   1.0000   1.0000   1.0000
     1.0000   1.0000   1.0000   1.0000   1.0000   1.0000   1.0000   1.0000

          k =-0.5000 0.4980 1.0641 (  6052 PWs)   bands (ev):

   -13.2042 -13.2042 -13.2018 -13.2018 -13.1911 -13.1911 -13.1890 -13.1890
   -13.1758 -13.1758 -13.1617 -13.1617 -13.1591 -13.1591 -13.1336 -13.1336
   -13.1274 -13.1274 -13.1085 -13.1085  -4.9061  -4.9061  -4.5258  -4.5258
     0.3970   0.3970   1.5214   1.5214   4.3036   4.3036   4.7325   4.7325
     5.4787   5.4787   6.1183   6.1183   6.7673   6.7673   7.3897   7.3897

     occupation numbers 
     1.0000   1.0000   1.0000   1.0000   1.0000   1.0000   1.0000   1.0000
     1.0000   1.0000   1.0000   1.0000   1.0000   1.0000   1.0000   1.0000
     1.0000   1.0000   1.0000   1.0000   1.0000   1.0000   1.0000   1.0000
     1.0000   1.0000   1.0000   1.0000   1.0000   1.0000   1.0000   1.0000
     1.0000   1.0000   1.0000   1.0000   1.0000   1.0000   1.0000   1.0000

          k =-0.5000 0.8301 0.1520 (  6094 PWs)   bands (ev):

   -13.2041 -13.2041 -13.2000 -13.2000 -13.1875 -13.1875 -13.1858 -13.1858
   -13.1766 -13.1766 -13.1677 -13.1677 -13.1563 -13.1563 -13.1402 -13.1402
   -13.1219 -13.1219 -13.1108 -13.1108  -5.1380  -5.1380  -4.3406  -4.3406
     0.6200   0.6200   1.6019   1.6019   4.4350   4.4350   4.9894   4.9894
     5.8858   5.8858   6.0489   6.0489   6.5850   6.5850   7.5337   7.5337

     occupation numbers 
     1.0000   1.0000   1.0000   1.0000   1.0000   1.0000   1.0000   1.0000
     1.0000   1.0000   1.0000   1.0000   1.0000   1.0000   1.0000   1.0000
     1.0000   1.0000   1.0000   1.0000   1.0000   1.0000   1.0000   1.0000
     1.0000   1.0000   1.0000   1.0000   1.0000   1.0000   1.0000   1.0000
     1.0000   1.0000   1.0000   1.0000   1.0000   1.0000   1.0000   1.0000

          k =-0.5000 0.8301 0.4560 (  6090 PWs)   bands (ev):

   -13.2059 -13.2059 -13.2020 -13.2020 -13.1874 -13.1874 -13.1848 -13.1848
   -13.1763 -13.1763 -13.1659 -13.1659 -13.1563 -13.1563 -13.1400 -13.1400
   -13.1222 -13.1222 -13.1105 -13.1105  -5.0428  -5.0428  -4.3419  -4.3419
     0.6823   0.6823   1.5781   1.5781   3.9536   3.9536   4.8373   4.8373
     5.3147   5.3147   6.2899   6.2899   6.5348   6.5348   7.4452   7.4452

     occupation numbers 
     1.0000   1.0000   1.0000   1.0000   1.0000   1.0000   1.0000   1.0000
     1.0000   1.0000   1.0000   1.0000   1.0000   1.0000   1.0000   1.0000
     1.0000   1.0000   1.0000   1.0000   1.0000   1.0000   1.0000   1.0000
     1.0000   1.0000   1.0000   1.0000   1.0000   1.0000   1.0000   1.0000
     1.0000   1.0000   1.0000   1.0000   1.0000   1.0000   1.0000   1.0000

          k =-0.5000 0.8301 0.7601 (  6070 PWs)   bands (ev):

   -13.2084 -13.2084 -13.2048 -13.2048 -13.1867 -13.1867 -13.1840 -13.1840
   -13.1759 -13.1759 -13.1635 -13.1635 -13.1560 -13.1560 -13.1398 -13.1398
   -13.1225 -13.1225 -13.1101 -13.1101  -4.8790  -4.8790  -4.3693  -4.3693
     0.7273   0.7273   1.5600   1.5600   3.6197   3.6197   4.4862   4.4862
     5.0595   5.0595   5.7833   5.7833   6.4857   6.4857   7.3483   7.3483

     occupation numbers 
     1.0000   1.0000   1.0000   1.0000   1.0000   1.0000   1.0000   1.0000
     1.0000   1.0000   1.0000   1.0000   1.0000   1.0000   1.0000   1.0000
     1.0000   1.0000   1.0000   1.0000   1.0000   1.0000   1.0000   1.0000
     1.0000   1.0000   1.0000   1.0000   1.0000   1.0000   1.0000   1.0000
     1.0000   1.0000   1.0000   1.0000   1.0000   1.0000   1.0000   1.0000

          k =-0.5000 0.8301 1.0641 (  6076 PWs)   bands (ev):

   -13.2100 -13.2100 -13.2068 -13.2068 -13.1858 -13.1858 -13.1840 -13.1840
   -13.1757 -13.1757 -13.1620 -13.1620 -13.1557 -13.1557 -13.1396 -13.1396
   -13.1226 -13.1226 -13.1098 -13.1098  -4.7103  -4.7103  -4.4392  -4.4392
     0.7101   0.7101   1.5801   1.5801   3.6328   3.6328   4.0080   4.0080
     5.0686   5.0686   5.3918   5.3918   6.5102   6.5102   7.0399   7.0399

     occupation numbers 
     1.0000   1.0000   1.0000   1.0000   1.0000   1.0000   1.0000   1.0000
     1.0000   1.0000   1.0000   1.0000   1.0000   1.0000   1.0000   1.0000
     1.0000   1.0000   1.0000   1.0000   1.0000   1.0000   1.0000   1.0000
     1.0000   1.0000   1.0000   1.0000   1.0000   1.0000   1.0000   1.0000
     1.0000   1.0000   1.0000   1.0000   1.0000   1.0000   1.0000   1.0000

          k =-0.5000 1.1621 0.1520 (  6090 PWs)   bands (ev):

   -13.2057 -13.2057 -13.2042 -13.2042 -13.1832 -13.1832 -13.1825 -13.1825
   -13.1726 -13.1726 -13.1677 -13.1677 -13.1539 -13.1539 -13.1477 -13.1477
   -13.1175 -13.1175 -13.1135 -13.1135  -4.7956  -4.7956  -4.4994  -4.4994
     0.6311   0.6311   0.9788   0.9788   4.8925   4.8925   5.2497   5.2497
     5.7611   5.7611   6.0195   6.0195   6.7053   6.7053   7.1050   7.1050

     occupation numbers 
     1.0000   1.0000   1.0000   1.0000   1.0000   1.0000   1.0000   1.0000
     1.0000   1.0000   1.0000   1.0000   1.0000   1.0000   1.0000   1.0000
     1.0000   1.0000   1.0000   1.0000   1.0000   1.0000   1.0000   1.0000
     1.0000   1.0000   1.0000   1.0000   1.0000   1.0000   1.0000   1.0000
     1.0000   1.0000   1.0000   1.0000   1.0000   1.0000   1.0000   1.0000

          k =-0.5000 1.1621 0.4560 (  6072 PWs)   bands (ev):

   -13.2080 -13.2080 -13.2065 -13.2065 -13.1831 -13.1831 -13.1821 -13.1821
   -13.1720 -13.1720 -13.1670 -13.1670 -13.1531 -13.1531 -13.1471 -13.1471
   -13.1175 -13.1175 -13.1133 -13.1133  -4.7268  -4.7268  -4.4668  -4.4668
     0.7611   0.7611   1.0736   1.0736   4.2284   4.2284   4.7741   4.7741
     5.3504   5.3504   5.7932   5.7932   6.6167   6.6167   7.0613   7.0613

     occupation numbers 
     1.0000   1.0000   1.0000   1.0000   1.0000   1.0000   1.0000   1.0000
     1.0000   1.0000   1.0000   1.0000   1.0000   1.0000   1.0000   1.0000
     1.0000   1.0000   1.0000   1.0000   1.0000   1.0000   1.0000   1.0000
     1.0000   1.0000   1.0000   1.0000   1.0000   1.0000   1.0000   1.0000
     1.0000   1.0000   1.0000   1.0000   1.0000   1.0000   1.0000   1.0000

          k =-0.5000 1.1621 0.7601 (  6082 PWs)   bands (ev):

   -13.2111 -13.2111 -13.2097 -13.2097 -13.1829 -13.1829 -13.1818 -13.1818
   -13.1710 -13.1710 -13.1661 -13.1661 -13.1518 -13.1518 -13.1461 -13.1461
   -13.1174 -13.1174 -13.1130 -13.1130  -4.6167  -4.6167  -4.4280  -4.4280
     0.9518   0.9518   1.2339   1.2339   3.6765   3.6765   4.1946   4.1946
     4.7764   4.7764   5.2417   5.2417   6.5789   6.5789   6.9558   6.9558

     occupation numbers 
     1.0000   1.0000   1.0000   1.0000   1.0000   1.0000   1.0000   1.0000
     1.0000   1.0000   1.0000   1.0000   1.0000   1.0000   1.0000   1.0000
     1.0000   1.0000   1.0000   1.0000   1.0000   1.0000   1.0000   1.0000
     1.0000   1.0000   1.0000   1.0000   1.0000   1.0000   1.0000   1.0000
     1.0000   1.0000   1.0000   1.0000   1.0000   1.0000   1.0000   1.0000

          k =-0.5000 1.1621 1.0641 (  6084 PWs)   bands (ev):

   -13.2133 -13.2133 -13.2120 -13.2120 -13.1828 -13.1828 -13.1818 -13.1818
   -13.1704 -13.1704 -13.1655 -13.1655 -13.1507 -13.1507 -13.1454 -13.1454
   -13.1173 -13.1173 -13.1128 -13.1128  -4.5178  -4.5178  -4.4175  -4.4175
     1.0680   1.0680   1.3972   1.3972   3.5011   3.5011   3.7451   3.7451
     4.4312   4.4312   4.7067   4.7067   6.6862   6.6862   6.8771   6.8771

     occupation numbers 
     1.0000   1.0000   1.0000   1.0000   1.0000   1.0000   1.0000   1.0000
     1.0000   1.0000   1.0000   1.0000   1.0000   1.0000   1.0000   1.0000
     1.0000   1.0000   1.0000   1.0000   1.0000   1.0000   1.0000   1.0000
     1.0000   1.0000   1.0000   1.0000   1.0000   1.0000   1.0000   1.0000
     1.0000   1.0000   1.0000   1.0000   1.0000   1.0000   1.0000   1.0000

     highest occupied level (ev):     7.9713

!    total energy              =    -827.73340552 Ry
     estimated scf accuracy    <          9.7E-09 Ry

     The total energy is the sum of the following terms:
     one-electron contribution =    -257.78530306 Ry
     hartree contribution      =     179.63864558 Ry
     xc contribution           =    -309.17176957 Ry
     ewald contribution        =    -440.29170795 Ry
     DFT-D3 Dispersion         =      -0.12327052 Ry

     convergence has been achieved in  10 iterations

     Forces acting on atoms (cartesian axes, Ry/au):

     atom    1 type  2   force =     0.01576894    0.00000000    0.00180023
     atom    2 type  1   force =    -0.01601287    0.00000000   -0.00037082
     atom    3 type  2   force =    -0.01576894    0.00000000    0.00180023
     atom    4 type  1   force =     0.01601287    0.00000000   -0.00037082
     atom    5 type  2   force =     0.01576894    0.00000000   -0.00180023
     atom    6 type  1   force =    -0.01601287    0.00000000    0.00037082
     atom    7 type  2   force =    -0.01576894    0.00000000   -0.00180023
     atom    8 type  1   force =     0.01601287   -0.00000000    0.00037082
     The non-local contrib.  to forces
     atom    1 type  2   force =    -0.10715619    0.00000000    0.11226592
     atom    2 type  1   force =     0.35466473    0.00000000    0.30464697
     atom    3 type  2   force =     0.10715619    0.00000000    0.11226592
     atom    4 type  1   force =    -0.35466473    0.00000000    0.30464697
     atom    5 type  2   force =    -0.10715619    0.00000000   -0.11226592
     atom    6 type  1   force =     0.35466473    0.00000000   -0.30464697
     atom    7 type  2   force =     0.10715619    0.00000000   -0.11226592
     atom    8 type  1   force =    -0.35466473    0.00000000   -0.30464697
     The ionic contribution  to forces
     atom    1 type  2   force =     1.45462333   -0.00000000   -1.15120232
     atom    2 type  1   force =    -0.68537438    0.00000000   -0.55562569
     atom    3 type  2   force =    -1.45462333    0.00000000   -1.15120232
     atom    4 type  1   force =     0.68537438    0.00000000   -0.55562569
     atom    5 type  2   force =     1.45462333    0.00000000    1.15120232
     atom    6 type  1   force =    -0.68537438    0.00000000    0.55562569
     atom    7 type  2   force =    -1.45462333    0.00000000    1.15120232
     atom    8 type  1   force =     0.68537438    0.00000000    0.55562569
     The local contribution  to forces
     atom    1 type  2   force =    -1.34228280    0.00000000    1.05185594
     atom    2 type  1   force =     0.31980521   -0.00000000    0.25519690
     atom    3 type  2   force =     1.34228280    0.00000000    1.05185594
     atom    4 type  1   force =    -0.31980521    0.00000000    0.25519690
     atom    5 type  2   force =    -1.34228280    0.00000000   -1.05185594
     atom    6 type  1   force =     0.31980521   -0.00000000   -0.25519690
     atom    7 type  2   force =     1.34228280    0.00000000   -1.05185594
     atom    8 type  1   force =    -0.31980521    0.00000000   -0.25519690
     The core correction contribution to forces
     atom    1 type  2   force =     0.01149613    0.00000000   -0.01252868
     atom    2 type  1   force =    -0.00435287    0.00000000   -0.00558321
     atom    3 type  2   force =    -0.01149613   -0.00000000   -0.01252868
     atom    4 type  1   force =     0.00435287   -0.00000000   -0.00558321
     atom    5 type  2   force =     0.01149613   -0.00000000    0.01252868
     atom    6 type  1   force =    -0.00435287    0.00000000    0.00558321
     atom    7 type  2   force =    -0.01149613   -0.00000000    0.01252868
     atom    8 type  1   force =     0.00435287   -0.00000000    0.00558321
     The Hubbard contrib.    to forces
     atom    1 type  2   force =     0.00000000    0.00000000    0.00000000
     atom    2 type  1   force =     0.00000000    0.00000000    0.00000000
     atom    3 type  2   force =     0.00000000    0.00000000    0.00000000
     atom    4 type  1   force =     0.00000000    0.00000000    0.00000000
     atom    5 type  2   force =     0.00000000    0.00000000    0.00000000
     atom    6 type  1   force =     0.00000000    0.00000000    0.00000000
     atom    7 type  2   force =     0.00000000    0.00000000    0.00000000
     atom    8 type  1   force =     0.00000000    0.00000000    0.00000000
     The SCF correction term to forces
     atom    1 type  2   force =    -0.00000353   -0.00000000    0.00000469
     atom    2 type  1   force =    -0.00006500    0.00000000   -0.00004766
     atom    3 type  2   force =     0.00000353   -0.00000000    0.00000469
     atom    4 type  1   force =     0.00006500   -0.00000000   -0.00004766
     atom    5 type  2   force =    -0.00000353   -0.00000000   -0.00000469
     atom    6 type  1   force =    -0.00006500    0.00000000    0.00004766
     atom    7 type  2   force =     0.00000353    0.00000000   -0.00000469
     atom    8 type  1   force =     0.00006500   -0.00000000    0.00004766

     DFT-D3 dispersion contribution to forces:
     atom    1 type  2   force =    -0.00090801   -0.00000000    0.00140467
     atom    2 type  1   force =    -0.00069056    0.00000000    0.00104187
     atom    3 type  2   force =     0.00090801   -0.00000000    0.00140467
     atom    4 type  1   force =     0.00069056    0.00000000    0.00104187
     atom    5 type  2   force =    -0.00090801   -0.00000000   -0.00140467
     atom    6 type  1   force =    -0.00069056    0.00000000   -0.00104187
     atom    7 type  2   force =     0.00090801   -0.00000000   -0.00140467
     atom    8 type  1   force =     0.00069056    0.00000000   -0.00104187

     Total force =     0.045098     Total SCF correction =     0.000162

     DFT-D3 dispersion Force =     0.004176

     Writing all to output data dir ./tmp/SnSe_pnma.save/ :
     XML data file, charge density, pseudopotentials, collected wavefunctions
 
     init_run     :      1.92s CPU      2.10s WALL (       1 calls)
     electrons    :     35.59s CPU     37.73s WALL (       1 calls)
     forces       :      0.72s CPU      0.83s WALL (       1 calls)
     force_dftd3  :      0.06s CPU      0.06s WALL (       1 calls)

     Called by init_run:
     wfcinit      :      1.20s CPU      1.21s WALL (       1 calls)
     wfcinit:atom :      0.02s CPU      0.02s WALL (      11 calls)
     wfcinit:wfcr :      1.02s CPU      1.04s WALL (      11 calls)
     potinit      :      0.19s CPU      0.22s WALL (       1 calls)
     hinit0       :      0.23s CPU      0.24s WALL (       1 calls)

     Called by electrons:
     c_bands      :     27.04s CPU     27.27s WALL (      10 calls)
     sum_band     :      5.59s CPU      6.49s WALL (      10 calls)
     v_of_rho     :      1.17s CPU      1.25s WALL (      11 calls)
     v_h          :      0.08s CPU      0.09s WALL (      11 calls)
     v_xc         :      1.17s CPU      1.27s WALL (      12 calls)
     newd         :      1.91s CPU      2.90s WALL (      11 calls)
     mix_rho      :      0.11s CPU      0.11s WALL (      10 calls)
     energy_dftd3 :      0.07s CPU      0.07s WALL (       1 calls)

     Called by c_bands:
     init_us_2    :      0.75s CPU      0.76s WALL (     242 calls)
     cegterg      :     24.30s CPU     24.46s WALL (     110 calls)

     Called by sum_band:
     sum_band:wei :      0.00s CPU      0.00s WALL (      10 calls)
     sum_band:loo :      3.47s CPU      3.49s WALL (      10 calls)
     sum_band:buf :      0.05s CPU      0.05s WALL (     110 calls)
     sum_band:ini :      0.32s CPU      0.32s WALL (     110 calls)
     sum_band:cal :      0.45s CPU      0.45s WALL (     110 calls)
     sum_band:bec :      0.01s CPU      0.01s WALL (     110 calls)
     addusdens    :      1.91s CPU      2.77s WALL (      10 calls)
                                        0.00s GPU  (      10 calls)
     addusd:skk   :      0.01s CPU      0.01s WALL (      20 calls)
                                        0.00s GPU  (      20 calls)

     Called by *egterg:
     cdiaghg      :      0.95s CPU      0.95s WALL (     525 calls)
     cegterg:over :      1.31s CPU      1.32s WALL (     415 calls)
     cegterg:upda :      0.76s CPU      0.76s WALL (     415 calls)
     cegterg:last :      1.89s CPU      1.90s WALL (     319 calls)
     h_psi        :     17.85s CPU     17.99s WALL (     536 calls)
     s_psi        :      1.80s CPU      1.81s WALL (     536 calls)
     g_psi        :      0.08s CPU      0.08s WALL (     415 calls)

     Called by h_psi:
     h_psi:calbec :      1.72s CPU      1.72s WALL (     536 calls)
     vloc_psi     :     14.14s CPU     14.27s WALL (     536 calls)
     add_vuspsi   :      1.84s CPU      1.84s WALL (     536 calls)

     General routines
     calbec       :      2.35s CPU      2.36s WALL (     690 calls)
     fft          :      0.54s CPU      0.55s WALL (     152 calls)
     ffts         :      0.01s CPU      0.01s WALL (      21 calls)
     fftw         :      9.93s CPU     10.02s WALL (   34914 calls)
     interpolate  :      0.05s CPU      0.06s WALL (      11 calls)
 
     Parallel routines
 
     PWSCF        :     38.48s CPU     41.46s WALL

 
   This run was terminated on:  16:10: 1  20May2026            

=------------------------------------------------------------------------------=
   JOB DONE.
=------------------------------------------------------------------------------=
