
     Program PWSCF v.7.3.1 starts on 19May2026 at 21:32: 0 

     This program is part of the open-source Quantum ESPRESSO suite
     for quantum simulation of materials; please cite
         "P. Giannozzi et al., J. Phys.:Condens. Matter 21 395502 (2009);
         "P. Giannozzi et al., J. Phys.:Condens. Matter 29 465901 (2017);
         "P. Giannozzi et al., J. Chem. Phys. 152 154105 (2020);
          URL http://www.quantum-espresso.org", 
     in publications or presentations arising from this work. More details at
     http://www.quantum-espresso.org/quote

     Parallel version (MPI & OpenMP), running on       6 processor cores
     Number of MPI processes:                 6
     Threads/MPI process:                     1

     MPI processes distributed on     1 nodes
     12241 MiB available memory on the printing compute node when the environment starts
 
     Waiting for input...
     Reading input from standard input

     Current dimensions of program PWSCF are:
     Max number of different atomic species (ntypx) = 10
     Max number of k-points (npk) =  40000
     Max angular momentum in pseudopotentials (lmaxx) =  4
 
     K-points division:     npool     =       3
     R & G space division:  proc/nbgrp/npool/nimage =       2
     Subspace diagonalization in iterative solution of the eigenvalue problem:
     a serial algorithm will be used

 
     Parallelization info
     --------------------
     sticks:   dense  smooth     PW     G-vecs:    dense   smooth      PW
     Min        2007     806    243                63582    16071    2601
     Max        2008     807    244                63583    16072    2602
     Sum        4015    1613    487               127165    32143    5203
 
     Using Slab Decomposition
 


     bravais-lattice index     =            8
     lattice parameter (alat)  =      21.3539  a.u.
     unit-cell volume          =    1449.0819 (a.u.)^3
     number of atoms/cell      =            8
     number of atomic types    =            2
     number of electrons       =        80.00
     number of Kohn-Sham states=           40
     kinetic-energy cutoff     =      30.0000  Ry
     charge density cutoff     =     300.0000  Ry
     scf convergence threshold =      1.0E-08
     mixing beta               =       0.7000
     number of iterations used =            8  plain     mixing
     Exchange-correlation= SLA  PW   PBE  PBE
                           (   1   4   3   4   0   0   0)

     celldm(1)=  21.353905  celldm(2)=   0.369150  celldm(3)=   0.403142
     celldm(4)=   0.000000  celldm(5)=   0.000000  celldm(6)=   0.000000

     crystal axes: (cart. coord. in units of alat)
               a(1) = (   1.000000   0.000000   0.000000 )  
               a(2) = (   0.000000   0.369150   0.000000 )  
               a(3) = (   0.000000   0.000000   0.403142 )  

     reciprocal axes: (cart. coord. in units 2 pi/alat)
               b(1) = (  1.000000  0.000000  0.000000 )  
               b(2) = (  0.000000  2.708923  0.000000 )  
               b(3) = (  0.000000  0.000000  2.480518 )  


     PseudoPot. # 1 for Sn read from file:
     ../pseudo/Sn_pbe_v1.uspp.F.UPF
     MD5 check sum: 4cf58ce39ec5d5d420df3dd08604eb00
     Pseudo is Ultrasoft + core correction, Zval = 14.0
     Generated by new atomic code, or converted to UPF format
     Using radial grid of  891 points,  6 beta functions with: 
                l(1) =   0
                l(2) =   0
                l(3) =   1
                l(4) =   1
                l(5) =   2
                l(6) =   2
     Q(r) pseudized with  6 coefficients,  rinner =    1.200   1.200   1.200
                                                       1.200   1.200

     PseudoPot. # 2 for Se read from file:
     ../pseudo/Se_pbe_v1.uspp.F.UPF
     MD5 check sum: 1b3568f3a8ae88f9a2a0ad0698632c85
     Pseudo is Ultrasoft + core correction, Zval =  6.0
     Generated by new atomic code, or converted to UPF format
     Using radial grid of  877 points,  6 beta functions with: 
                l(1) =   0
                l(2) =   0
                l(3) =   1
                l(4) =   1
                l(5) =   2
                l(6) =   2
     Q(r) pseudized with  8 coefficients,  rinner =    1.300   1.300   1.300
                                                       1.300   1.300

     atomic species   valence    mass     pseudopotential
     Sn               14.00   118.71000     Sn( 1.00)
     Se                6.00    78.97100     Se( 1.00)

      8 Sym. Ops., with inversion, found ( 6 have fractional translation)


                                    s                        frac. trans.

      isym =  1     identity                                     

 cryst.   s( 1) = (     1          0          0      )
                  (     0          1          0      )
                  (     0          0          1      )

 cart.    s( 1) = (  1.0000000  0.0000000  0.0000000 )
                  (  0.0000000  1.0000000  0.0000000 )
                  (  0.0000000  0.0000000  1.0000000 )


      isym =  2     180 deg rotation - cart. axis [0,0,1]        

 cryst.   s( 2) = (    -1          0          0      )    f =(  0.5000000 )
                  (     0         -1          0      )       (  0.0000000 )
                  (     0          0          1      )       ( -0.5000000 )

 cart.    s( 2) = ( -1.0000000  0.0000000  0.0000000 )    f =(  0.5000000 )
                  (  0.0000000 -1.0000000  0.0000000 )       (  0.0000000 )
                  (  0.0000000  0.0000000  1.0000000 )       ( -0.2015708 )


      isym =  3     180 deg rotation - cart. axis [0,1,0]        

 cryst.   s( 3) = (    -1          0          0      )    f =(  0.0000000 )
                  (     0          1          0      )       (  0.5000000 )
                  (     0          0         -1      )       (  0.0000000 )

 cart.    s( 3) = ( -1.0000000  0.0000000  0.0000000 )    f =(  0.0000000 )
                  (  0.0000000  1.0000000  0.0000000 )       (  0.1845752 )
                  (  0.0000000  0.0000000 -1.0000000 )       (  0.0000000 )


      isym =  4     180 deg rotation - cart. axis [1,0,0]        

 cryst.   s( 4) = (     1          0          0      )    f =(  0.5000000 )
                  (     0         -1          0      )       ( -0.5000000 )
                  (     0          0         -1      )       (  0.5000000 )

 cart.    s( 4) = (  1.0000000  0.0000000  0.0000000 )    f =(  0.5000000 )
                  (  0.0000000 -1.0000000  0.0000000 )       ( -0.1845752 )
                  (  0.0000000  0.0000000 -1.0000000 )       (  0.2015708 )


      isym =  5     inversion                                    

 cryst.   s( 5) = (    -1          0          0      )
                  (     0         -1          0      )
                  (     0          0         -1      )

 cart.    s( 5) = ( -1.0000000  0.0000000  0.0000000 )
                  (  0.0000000 -1.0000000  0.0000000 )
                  (  0.0000000  0.0000000 -1.0000000 )


      isym =  6     inv. 180 deg rotation - cart. axis [0,0,1]   

 cryst.   s( 6) = (     1          0          0      )    f =(  0.5000000 )
                  (     0          1          0      )       (  0.0000000 )
                  (     0          0         -1      )       (  0.5000000 )

 cart.    s( 6) = (  1.0000000  0.0000000  0.0000000 )    f =(  0.5000000 )
                  (  0.0000000  1.0000000  0.0000000 )       (  0.0000000 )
                  (  0.0000000  0.0000000 -1.0000000 )       (  0.2015708 )


      isym =  7     inv. 180 deg rotation - cart. axis [0,1,0]   

 cryst.   s( 7) = (     1          0          0      )    f =(  0.0000000 )
                  (     0         -1          0      )       ( -0.5000000 )
                  (     0          0          1      )       (  0.0000000 )

 cart.    s( 7) = (  1.0000000  0.0000000  0.0000000 )    f =(  0.0000000 )
                  (  0.0000000 -1.0000000  0.0000000 )       ( -0.1845752 )
                  (  0.0000000  0.0000000  1.0000000 )       (  0.0000000 )


      isym =  8     inv. 180 deg rotation - cart. axis [1,0,0]   

 cryst.   s( 8) = (    -1          0          0      )    f =(  0.5000000 )
                  (     0          1          0      )       (  0.5000000 )
                  (     0          0          1      )       ( -0.5000000 )

 cart.    s( 8) = ( -1.0000000  0.0000000  0.0000000 )    f =(  0.5000000 )
                  (  0.0000000  1.0000000  0.0000000 )       (  0.1845752 )
                  (  0.0000000  0.0000000  1.0000000 )       ( -0.2015708 )


     point group D_2h (mmm) 
     there are  8 classes
     the character table:

       E     C2    C2'   C2''  i     s_v   s_v'  s_v''
A_g    1.00  1.00  1.00  1.00  1.00  1.00  1.00  1.00
B_1g   1.00  1.00 -1.00 -1.00  1.00  1.00 -1.00 -1.00
B_2g   1.00 -1.00  1.00 -1.00  1.00 -1.00  1.00 -1.00
B_3g   1.00 -1.00 -1.00  1.00  1.00 -1.00 -1.00  1.00
A_u    1.00  1.00  1.00  1.00 -1.00 -1.00 -1.00 -1.00
B_1u   1.00  1.00 -1.00 -1.00 -1.00 -1.00  1.00  1.00
B_2u   1.00 -1.00  1.00 -1.00 -1.00  1.00 -1.00  1.00
B_3u   1.00 -1.00 -1.00  1.00 -1.00  1.00  1.00 -1.00

     the symmetry operations in each class and the name of the first element:

     E        1
          identity                                               
     C2       2
          180 deg rotation - cart. axis [0,0,1]                  
     C2'      4
          180 deg rotation - cart. axis [1,0,0]                  
     C2''     3
          180 deg rotation - cart. axis [0,1,0]                  
     i        5
          inversion                                              
     s_v      6
          inv. 180 deg rotation - cart. axis [0,0,1]             
     s_v'     8
          inv. 180 deg rotation - cart. axis [1,0,0]             
     s_v''    7
          inv. 180 deg rotation - cart. axis [0,1,0]             

   Cartesian axes

     site n.     atom                  positions (alat units)
         1        Se     tau(   1) = (   0.8549563   0.0922876   0.1948174  )
         2        Sn     tau(   2) = (   0.1165395   0.0922876   0.0452676  )
         3        Se     tau(   3) = (   0.6450437   0.2768628   0.3963882  )
         4        Sn     tau(   4) = (   0.3834605   0.2768628   0.2468384  )
         5        Se     tau(   5) = (   0.3549563   0.0922876   0.0067534  )
         6        Sn     tau(   6) = (   0.6165395   0.0922876   0.1563032  )
         7        Se     tau(   7) = (   0.1450437   0.2768628   0.2083242  )
         8        Sn     tau(   8) = (   0.8834605   0.2768628   0.3578740  )

     --------------------------------------------
     DFT-D3 Dispersion Correction (3-body terms):
     --------------------------------------------
       Reference C6 values for interpolation: 

         atom   Coordination number   C6
         Se         0.000           427.35
         Se         0.990           427.57
         Se         1.981           421.05
         Sn         0.000          1255.14
         Sn         0.951          1084.09
         Sn         1.950          1010.83
         Sn         2.926           818.29
         Sn         3.912           672.20

       Values used:

         atom   Coordination number  R0_AB[au]  C6      C8
         Se         3.505            3.332    421.05  29958.36
         Sn         4.282            3.957    672.35  84387.88
         Se         3.505            3.332    421.05  29958.36
         Sn         4.282            3.957    672.35  84387.88
         Se         3.505            3.332    421.05  29958.36
         Sn         4.282            3.957    672.35  84387.88
         Se         3.505            3.332    421.05  29958.36
         Sn         4.282            3.957    672.35  84387.88

         Molecular C6 ( Ry / a.u.^6 ) =     34500.48


   Crystallographic axes

     site n.     atom                  positions (cryst. coord.)
         1        Se     tau(   1) = (  0.8549563  0.2500000  0.4832481  )
         2        Sn     tau(   2) = (  0.1165395  0.2500000  0.1122870  )
         3        Se     tau(   3) = (  0.6450437  0.7500000  0.9832481  )
         4        Sn     tau(   4) = (  0.3834605  0.7500000  0.6122870  )
         5        Se     tau(   5) = (  0.3549563  0.2500000  0.0167519  )
         6        Sn     tau(   6) = (  0.6165395  0.2500000  0.3877130  )
         7        Se     tau(   7) = (  0.1450437  0.7500000  0.5167519  )
         8        Sn     tau(   8) = (  0.8834605  0.7500000  0.8877130  )

     number of k points=    32
                       cart. coord. in units 2pi/alat
        k(    1) = (   0.1666667   0.1693077   0.1550324), wk =   0.0833333
        k(    2) = (   0.1666667   0.1693077   0.4650971), wk =   0.0833333
        k(    3) = (   0.1666667   0.1693077   0.7751619), wk =   0.0833333
        k(    4) = (   0.1666667   0.1693077   1.0852266), wk =   0.0833333
        k(    5) = (   0.1666667   0.5079230   0.1550324), wk =   0.0833333
        k(    6) = (   0.1666667   0.5079230   0.4650971), wk =   0.0833333
        k(    7) = (   0.1666667   0.5079230   0.7751619), wk =   0.0833333
        k(    8) = (   0.1666667   0.5079230   1.0852266), wk =   0.0833333
        k(    9) = (   0.1666667   0.8465383   0.1550324), wk =   0.0833333
        k(   10) = (   0.1666667   0.8465383   0.4650971), wk =   0.0833333
        k(   11) = (   0.1666667   0.8465383   0.7751619), wk =   0.0833333
        k(   12) = (   0.1666667   0.8465383   1.0852266), wk =   0.0833333
        k(   13) = (   0.1666667   1.1851537   0.1550324), wk =   0.0833333
        k(   14) = (   0.1666667   1.1851537   0.4650971), wk =   0.0833333
        k(   15) = (   0.1666667   1.1851537   0.7751619), wk =   0.0833333
        k(   16) = (   0.1666667   1.1851537   1.0852266), wk =   0.0833333
        k(   17) = (  -0.5000000   0.1693077   0.1550324), wk =   0.0416667
        k(   18) = (  -0.5000000   0.1693077   0.4650971), wk =   0.0416667
        k(   19) = (  -0.5000000   0.1693077   0.7751619), wk =   0.0416667
        k(   20) = (  -0.5000000   0.1693077   1.0852266), wk =   0.0416667
        k(   21) = (  -0.5000000   0.5079230   0.1550324), wk =   0.0416667
        k(   22) = (  -0.5000000   0.5079230   0.4650971), wk =   0.0416667
        k(   23) = (  -0.5000000   0.5079230   0.7751619), wk =   0.0416667
        k(   24) = (  -0.5000000   0.5079230   1.0852266), wk =   0.0416667
        k(   25) = (  -0.5000000   0.8465383   0.1550324), wk =   0.0416667
        k(   26) = (  -0.5000000   0.8465383   0.4650971), wk =   0.0416667
        k(   27) = (  -0.5000000   0.8465383   0.7751619), wk =   0.0416667
        k(   28) = (  -0.5000000   0.8465383   1.0852266), wk =   0.0416667
        k(   29) = (  -0.5000000   1.1851537   0.1550324), wk =   0.0416667
        k(   30) = (  -0.5000000   1.1851537   0.4650971), wk =   0.0416667
        k(   31) = (  -0.5000000   1.1851537   0.7751619), wk =   0.0416667
        k(   32) = (  -0.5000000   1.1851537   1.0852266), wk =   0.0416667

                       cryst. coord.
        k(    1) = (   0.1666667   0.0625000   0.0625000), wk =   0.0833333
        k(    2) = (   0.1666667   0.0625000   0.1875000), wk =   0.0833333
        k(    3) = (   0.1666667   0.0625000   0.3125000), wk =   0.0833333
        k(    4) = (   0.1666667   0.0625000   0.4375000), wk =   0.0833333
        k(    5) = (   0.1666667   0.1875000   0.0625000), wk =   0.0833333
        k(    6) = (   0.1666667   0.1875000   0.1875000), wk =   0.0833333
        k(    7) = (   0.1666667   0.1875000   0.3125000), wk =   0.0833333
        k(    8) = (   0.1666667   0.1875000   0.4375000), wk =   0.0833333
        k(    9) = (   0.1666667   0.3125000   0.0625000), wk =   0.0833333
        k(   10) = (   0.1666667   0.3125000   0.1875000), wk =   0.0833333
        k(   11) = (   0.1666667   0.3125000   0.3125000), wk =   0.0833333
        k(   12) = (   0.1666667   0.3125000   0.4375000), wk =   0.0833333
        k(   13) = (   0.1666667   0.4375000   0.0625000), wk =   0.0833333
        k(   14) = (   0.1666667   0.4375000   0.1875000), wk =   0.0833333
        k(   15) = (   0.1666667   0.4375000   0.3125000), wk =   0.0833333
        k(   16) = (   0.1666667   0.4375000   0.4375000), wk =   0.0833333
        k(   17) = (  -0.5000000   0.0625000   0.0625000), wk =   0.0416667
        k(   18) = (  -0.5000000   0.0625000   0.1875000), wk =   0.0416667
        k(   19) = (  -0.5000000   0.0625000   0.3125000), wk =   0.0416667
        k(   20) = (  -0.5000000   0.0625000   0.4375000), wk =   0.0416667
        k(   21) = (  -0.5000000   0.1875000   0.0625000), wk =   0.0416667
        k(   22) = (  -0.5000000   0.1875000   0.1875000), wk =   0.0416667
        k(   23) = (  -0.5000000   0.1875000   0.3125000), wk =   0.0416667
        k(   24) = (  -0.5000000   0.1875000   0.4375000), wk =   0.0416667
        k(   25) = (  -0.5000000   0.3125000   0.0625000), wk =   0.0416667
        k(   26) = (  -0.5000000   0.3125000   0.1875000), wk =   0.0416667
        k(   27) = (  -0.5000000   0.3125000   0.3125000), wk =   0.0416667
        k(   28) = (  -0.5000000   0.3125000   0.4375000), wk =   0.0416667
        k(   29) = (  -0.5000000   0.4375000   0.0625000), wk =   0.0416667
        k(   30) = (  -0.5000000   0.4375000   0.1875000), wk =   0.0416667
        k(   31) = (  -0.5000000   0.4375000   0.3125000), wk =   0.0416667
        k(   32) = (  -0.5000000   0.4375000   0.4375000), wk =   0.0416667

     Dense  grid:   127165 G-vectors     FFT dimensions: ( 120,  48,  48)

     Smooth grid:    32143 G-vectors     FFT dimensions: (  80,  30,  32)

     Dynamical RAM for                 wfc:       1.23 MB

     Dynamical RAM for     wfc (w. buffer):      14.72 MB

     Dynamical RAM for           str. fact:       1.94 MB

     Dynamical RAM for           local pot:       0.00 MB

     Dynamical RAM for          nlocal pot:       4.42 MB

     Dynamical RAM for                qrad:       2.78 MB

     Dynamical RAM for          rho,v,vnew:       6.07 MB

     Dynamical RAM for               rhoin:       2.02 MB

     Dynamical RAM for            rho*nmix:      15.52 MB

     Dynamical RAM for           G-vectors:       3.76 MB

     Dynamical RAM for          h,s,v(r/c):       0.29 MB

     Dynamical RAM for          <psi|beta>:       0.09 MB

     Dynamical RAM for                 psi:       2.45 MB

     Dynamical RAM for                hpsi:       2.45 MB

     Dynamical RAM for                spsi:       2.45 MB

     Dynamical RAM for      wfcinit/wfcrot:       3.25 MB

     Dynamical RAM for           addusdens:      62.09 MB

     Dynamical RAM for          addusforce:      63.89 MB

     Estimated static dynamical RAM per process >      43.90 MB

     Estimated max dynamical RAM per process >     123.31 MB

     Estimated total dynamical RAM >     677.79 MB

     Initial potential from superposition of free atoms

     starting charge      75.9995, renormalised to      80.0000
     Starting wfcs are   52 randomized atomic wfcs

     total cpu time spent up to now is        1.4 secs

     Self-consistent Calculation

     iteration #  1     ecut=    30.00 Ry     beta= 0.70
     Davidson diagonalization with overlap

---- Real-time Memory Report at c_bands before calling an iterative solver
           207 MiB given to the printing process from OS
             0 MiB allocation reported by mallinfo(arena+hblkhd)
         11791 MiB available memory on the node where the printing process lives
------------------
     ethr =  1.00E-02,  avg # of iterations =  2.0

     total cpu time spent up to now is        3.6 secs

     total energy              =    -826.61664512 Ry
     estimated scf accuracy    <       2.68544611 Ry

     iteration #  2     ecut=    30.00 Ry     beta= 0.70
     Davidson diagonalization with overlap

---- Real-time Memory Report at c_bands before calling an iterative solver
           256 MiB given to the printing process from OS
             0 MiB allocation reported by mallinfo(arena+hblkhd)
         11304 MiB available memory on the node where the printing process lives
------------------
     ethr =  3.36E-03,  avg # of iterations =  3.0

     total cpu time spent up to now is        6.0 secs

     total energy              =    -827.53234544 Ry
     estimated scf accuracy    <       0.97337189 Ry

     iteration #  3     ecut=    30.00 Ry     beta= 0.70
     Davidson diagonalization with overlap

---- Real-time Memory Report at c_bands before calling an iterative solver
           274 MiB given to the printing process from OS
             0 MiB allocation reported by mallinfo(arena+hblkhd)
         11220 MiB available memory on the node where the printing process lives
------------------
     ethr =  1.22E-03,  avg # of iterations =  2.5

     total cpu time spent up to now is        7.8 secs

     total energy              =    -827.72977461 Ry
     estimated scf accuracy    <       0.00911363 Ry

     iteration #  4     ecut=    30.00 Ry     beta= 0.70
     Davidson diagonalization with overlap

---- Real-time Memory Report at c_bands before calling an iterative solver
           276 MiB given to the printing process from OS
             0 MiB allocation reported by mallinfo(arena+hblkhd)
         11218 MiB available memory on the node where the printing process lives
------------------
     ethr =  1.14E-05,  avg # of iterations =  5.0

     total cpu time spent up to now is       10.4 secs

     total energy              =    -827.73567974 Ry
     estimated scf accuracy    <       0.00493826 Ry

     iteration #  5     ecut=    30.00 Ry     beta= 0.70
     Davidson diagonalization with overlap

---- Real-time Memory Report at c_bands before calling an iterative solver
           278 MiB given to the printing process from OS
             0 MiB allocation reported by mallinfo(arena+hblkhd)
         11213 MiB available memory on the node where the printing process lives
------------------
     ethr =  6.17E-06,  avg # of iterations =  3.1

     total cpu time spent up to now is       12.4 secs

     total energy              =    -827.73727110 Ry
     estimated scf accuracy    <       0.00087097 Ry

     iteration #  6     ecut=    30.00 Ry     beta= 0.70
     Davidson diagonalization with overlap

---- Real-time Memory Report at c_bands before calling an iterative solver
           280 MiB given to the printing process from OS
             0 MiB allocation reported by mallinfo(arena+hblkhd)
         11213 MiB available memory on the node where the printing process lives
------------------
     ethr =  1.09E-06,  avg # of iterations =  2.0

     total cpu time spent up to now is       14.2 secs

     total energy              =    -827.73732777 Ry
     estimated scf accuracy    <       0.00011763 Ry

     iteration #  7     ecut=    30.00 Ry     beta= 0.70
     Davidson diagonalization with overlap

---- Real-time Memory Report at c_bands before calling an iterative solver
           281 MiB given to the printing process from OS
             0 MiB allocation reported by mallinfo(arena+hblkhd)
         11212 MiB available memory on the node where the printing process lives
------------------
     ethr =  1.47E-07,  avg # of iterations =  3.9

     total cpu time spent up to now is       16.3 secs

     total energy              =    -827.73735941 Ry
     estimated scf accuracy    <       0.00000243 Ry

     iteration #  8     ecut=    30.00 Ry     beta= 0.70
     Davidson diagonalization with overlap

---- Real-time Memory Report at c_bands before calling an iterative solver
           284 MiB given to the printing process from OS
             0 MiB allocation reported by mallinfo(arena+hblkhd)
         11204 MiB available memory on the node where the printing process lives
------------------
     ethr =  3.04E-09,  avg # of iterations =  6.2

     total cpu time spent up to now is       19.3 secs

     total energy              =    -827.73736255 Ry
     estimated scf accuracy    <       0.00000148 Ry

     iteration #  9     ecut=    30.00 Ry     beta= 0.70
     Davidson diagonalization with overlap

---- Real-time Memory Report at c_bands before calling an iterative solver
           286 MiB given to the printing process from OS
             0 MiB allocation reported by mallinfo(arena+hblkhd)
         11202 MiB available memory on the node where the printing process lives
------------------
     ethr =  1.85E-09,  avg # of iterations =  3.1

     total cpu time spent up to now is       21.3 secs

     total energy              =    -827.73736286 Ry
     estimated scf accuracy    <       0.00000001 Ry

     iteration # 10     ecut=    30.00 Ry     beta= 0.70
     Davidson diagonalization with overlap

---- Real-time Memory Report at c_bands before calling an iterative solver
           288 MiB given to the printing process from OS
             0 MiB allocation reported by mallinfo(arena+hblkhd)
         11202 MiB available memory on the node where the printing process lives
------------------
     ethr =  1.78E-11,  avg # of iterations =  5.0

     total cpu time spent up to now is       23.7 secs

     End of self-consistent calculation

          k = 0.1667 0.1693 0.1550 (  4018 PWs)   bands (ev):

   -13.4707 -13.4605 -13.4564 -13.4542 -13.4530 -13.4514 -13.4474 -13.4438
   -13.4402 -13.4347 -13.4335 -13.4328 -13.4216 -13.4155 -13.3979 -13.3966
   -13.3898 -13.3897 -13.3790 -13.3725  -5.8391  -5.5353  -4.7917  -4.3749
     0.5032   1.3921   2.3160   2.6605   3.1657   4.4047   4.5360   4.8144
     5.0801   5.1850   5.7576   6.0931   6.3473   6.7947   7.1041   7.4033

     occupation numbers 
     1.0000   1.0000   1.0000   1.0000   1.0000   1.0000   1.0000   1.0000
     1.0000   1.0000   1.0000   1.0000   1.0000   1.0000   1.0000   1.0000
     1.0000   1.0000   1.0000   1.0000   1.0000   1.0000   1.0000   1.0000
     1.0000   1.0000   1.0000   1.0000   1.0000   1.0000   1.0000   1.0000
     1.0000   1.0000   1.0000   1.0000   1.0000   1.0000   1.0000   1.0000

          k = 0.1667 0.1693 0.4651 (  4011 PWs)   bands (ev):

   -13.4692 -13.4599 -13.4564 -13.4553 -13.4528 -13.4526 -13.4480 -13.4449
   -13.4393 -13.4337 -13.4321 -13.4303 -13.4212 -13.4161 -13.3982 -13.3956
   -13.3909 -13.3903 -13.3784 -13.3729  -5.7208  -5.4268  -4.7940  -4.4174
     0.1923   1.1512   1.7545   2.3489   3.2693   4.4425   4.6562   5.2171
     5.4076   5.7160   5.7642   6.1989   6.5648   6.8691   7.2174   7.4486

     occupation numbers 
     1.0000   1.0000   1.0000   1.0000   1.0000   1.0000   1.0000   1.0000
     1.0000   1.0000   1.0000   1.0000   1.0000   1.0000   1.0000   1.0000
     1.0000   1.0000   1.0000   1.0000   1.0000   1.0000   1.0000   1.0000
     1.0000   1.0000   1.0000   1.0000   1.0000   1.0000   1.0000   1.0000
     1.0000   1.0000   1.0000   1.0000   1.0000   1.0000   1.0000   1.0000

          k = 0.1667 0.1693 0.7752 (  4011 PWs)   bands (ev):

   -13.4665 -13.4595 -13.4571 -13.4562 -13.4542 -13.4527 -13.4487 -13.4465
   -13.4379 -13.4342 -13.4280 -13.4267 -13.4210 -13.4174 -13.3979 -13.3946
   -13.3926 -13.3912 -13.3775 -13.3738  -5.5071  -5.2326  -4.8377  -4.5235
    -0.1068   0.6538   1.3105   1.8740   3.5739   4.6729   4.8709   5.4756
     5.7509   5.8635   6.1351   6.2338   6.7374   7.1997   7.2554   7.6941

     occupation numbers 
     1.0000   1.0000   1.0000   1.0000   1.0000   1.0000   1.0000   1.0000
     1.0000   1.0000   1.0000   1.0000   1.0000   1.0000   1.0000   1.0000
     1.0000   1.0000   1.0000   1.0000   1.0000   1.0000   1.0000   1.0000
     1.0000   1.0000   1.0000   1.0000   1.0000   1.0000   1.0000   1.0000
     1.0000   1.0000   1.0000   1.0000   1.0000   1.0000   1.0000   1.0000

          k = 0.1667 0.1693 1.0852 (  4003 PWs)   bands (ev):

   -13.4635 -13.4608 -13.4576 -13.4571 -13.4542 -13.4533 -13.4488 -13.4480
   -13.4364 -13.4351 -13.4240 -13.4230 -13.4216 -13.4196 -13.3967 -13.3949
   -13.3932 -13.3922 -13.3763 -13.3750  -5.2497  -5.0643  -4.9003  -4.7056
    -0.1521   0.1292   1.2315   1.4481   4.0421   4.5458   5.2518   5.5394
     5.7633   5.9010   6.1920   6.4513   7.0283   7.3262   7.5125   7.5948

     occupation numbers 
     1.0000   1.0000   1.0000   1.0000   1.0000   1.0000   1.0000   1.0000
     1.0000   1.0000   1.0000   1.0000   1.0000   1.0000   1.0000   1.0000
     1.0000   1.0000   1.0000   1.0000   1.0000   1.0000   1.0000   1.0000
     1.0000   1.0000   1.0000   1.0000   1.0000   1.0000   1.0000   1.0000
     1.0000   1.0000   1.0000   1.0000   1.0000   1.0000   1.0000   1.0000

          k = 0.1667 0.5079 0.1550 (  4017 PWs)   bands (ev):

   -13.4649 -13.4589 -13.4567 -13.4535 -13.4516 -13.4510 -13.4498 -13.4472
   -13.4405 -13.4356 -13.4312 -13.4308 -13.4194 -13.4166 -13.3991 -13.3957
   -13.3931 -13.3882 -13.3788 -13.3740  -5.6762  -5.3955  -4.7285  -4.3811
     0.3614   1.1494   1.9725   2.0941   3.2802   4.2649   4.5813   4.9234
     5.2230   5.3842   5.7906   6.1453   6.3420   6.9924   7.2698   7.3857

     occupation numbers 
     1.0000   1.0000   1.0000   1.0000   1.0000   1.0000   1.0000   1.0000
     1.0000   1.0000   1.0000   1.0000   1.0000   1.0000   1.0000   1.0000
     1.0000   1.0000   1.0000   1.0000   1.0000   1.0000   1.0000   1.0000
     1.0000   1.0000   1.0000   1.0000   1.0000   1.0000   1.0000   1.0000
     1.0000   1.0000   1.0000   1.0000   1.0000   1.0000   1.0000   1.0000

          k = 0.1667 0.5079 0.4651 (  4028 PWs)   bands (ev):

   -13.4648 -13.4590 -13.4581 -13.4541 -13.4518 -13.4512 -13.4492 -13.4485
   -13.4399 -13.4358 -13.4289 -13.4285 -13.4196 -13.4165 -13.3987 -13.3956
   -13.3934 -13.3891 -13.3783 -13.3742  -5.5638  -5.2936  -4.7278  -4.4118
     0.2053   1.0931   1.6133   1.9834   3.4144   3.8638   4.1701   5.0416
     5.2336   5.7861   5.9348   6.1497   6.7558   6.9025   7.2545   7.4346

     occupation numbers 
     1.0000   1.0000   1.0000   1.0000   1.0000   1.0000   1.0000   1.0000
     1.0000   1.0000   1.0000   1.0000   1.0000   1.0000   1.0000   1.0000
     1.0000   1.0000   1.0000   1.0000   1.0000   1.0000   1.0000   1.0000
     1.0000   1.0000   1.0000   1.0000   1.0000   1.0000   1.0000   1.0000
     1.0000   1.0000   1.0000   1.0000   1.0000   1.0000   1.0000   1.0000

          k = 0.1667 0.5079 0.7752 (  4017 PWs)   bands (ev):

   -13.4648 -13.4608 -13.4583 -13.4553 -13.4527 -13.4505 -13.4503 -13.4484
   -13.4388 -13.4362 -13.4254 -13.4249 -13.4197 -13.4169 -13.3980 -13.3956
   -13.3936 -13.3905 -13.3775 -13.3747  -5.3630  -5.1134  -4.7621  -4.4942
     0.0371   0.7631   1.3432   1.7587   3.6707   3.8173   4.1206   4.9356
     5.0608   5.7813   5.8691   6.4079   6.6373   6.9149   7.1266   7.4422

     occupation numbers 
     1.0000   1.0000   1.0000   1.0000   1.0000   1.0000   1.0000   1.0000
     1.0000   1.0000   1.0000   1.0000   1.0000   1.0000   1.0000   1.0000
     1.0000   1.0000   1.0000   1.0000   1.0000   1.0000   1.0000   1.0000
     1.0000   1.0000   1.0000   1.0000   1.0000   1.0000   1.0000   1.0000
     1.0000   1.0000   1.0000   1.0000   1.0000   1.0000   1.0000   1.0000

          k = 0.1667 0.5079 1.0852 (  4011 PWs)   bands (ev):

   -13.4644 -13.4631 -13.4576 -13.4566 -13.4527 -13.4518 -13.4494 -13.4486
   -13.4377 -13.4369 -13.4223 -13.4214 -13.4202 -13.4184 -13.3970 -13.3961
   -13.3931 -13.3919 -13.3765 -13.3755  -5.1257  -4.9592  -4.8144  -4.6452
     0.0418   0.3075   1.3348   1.4979   3.9876   4.0553   4.3408   4.6311
     4.9517   5.2663   5.9338   6.2168   6.6152   6.8748   7.1545   7.3514

     occupation numbers 
     1.0000   1.0000   1.0000   1.0000   1.0000   1.0000   1.0000   1.0000
     1.0000   1.0000   1.0000   1.0000   1.0000   1.0000   1.0000   1.0000
     1.0000   1.0000   1.0000   1.0000   1.0000   1.0000   1.0000   1.0000
     1.0000   1.0000   1.0000   1.0000   1.0000   1.0000   1.0000   1.0000
     1.0000   1.0000   1.0000   1.0000   1.0000   1.0000   1.0000   1.0000

          k = 0.1667 0.8465 0.1550 (  4034 PWs)   bands (ev):

   -13.4629 -13.4607 -13.4590 -13.4582 -13.4491 -13.4471 -13.4459 -13.4441
   -13.4390 -13.4373 -13.4301 -13.4259 -13.4194 -13.4160 -13.4035 -13.4020
   -13.3897 -13.3851 -13.3785 -13.3762  -5.3782  -5.1518  -4.6639  -4.4554
     0.1733   0.8466   1.1776   1.5619   3.6212   4.3802   4.7576   5.1323
     5.4579   5.5536   5.9216   6.1088   6.4539   6.9616   7.0784   7.4684

     occupation numbers 
     1.0000   1.0000   1.0000   1.0000   1.0000   1.0000   1.0000   1.0000
     1.0000   1.0000   1.0000   1.0000   1.0000   1.0000   1.0000   1.0000
     1.0000   1.0000   1.0000   1.0000   1.0000   1.0000   1.0000   1.0000
     1.0000   1.0000   1.0000   1.0000   1.0000   1.0000   1.0000   1.0000
     1.0000   1.0000   1.0000   1.0000   1.0000   1.0000   1.0000   1.0000

          k = 0.1667 0.8465 0.4651 (  4029 PWs)   bands (ev):

   -13.4656 -13.4626 -13.4605 -13.4588 -13.4496 -13.4461 -13.4454 -13.4440
   -13.4382 -13.4372 -13.4283 -13.4243 -13.4196 -13.4155 -13.4029 -13.4016
   -13.3897 -13.3858 -13.3782 -13.3762  -5.2800  -5.0650  -4.6535  -4.4596
     0.2132   0.9404   1.2117   1.4711   3.6195   3.7354   4.1124   4.7468
     5.1816   5.7167   5.7816   6.2626   6.3427   6.7675   6.9576   7.2264

     occupation numbers 
     1.0000   1.0000   1.0000   1.0000   1.0000   1.0000   1.0000   1.0000
     1.0000   1.0000   1.0000   1.0000   1.0000   1.0000   1.0000   1.0000
     1.0000   1.0000   1.0000   1.0000   1.0000   1.0000   1.0000   1.0000
     1.0000   1.0000   1.0000   1.0000   1.0000   1.0000   1.0000   1.0000
     1.0000   1.0000   1.0000   1.0000   1.0000   1.0000   1.0000   1.0000

          k = 0.1667 0.8465 0.7752 (  4027 PWs)   bands (ev):

   -13.4685 -13.4660 -13.4620 -13.4607 -13.4493 -13.4458 -13.4449 -13.4437
   -13.4372 -13.4369 -13.4257 -13.4223 -13.4190 -13.4155 -13.4021 -13.4011
   -13.3895 -13.3869 -13.3776 -13.3762  -5.1095  -4.9165  -4.6632  -4.4909
     0.2761   0.8908   1.2741   1.4451   3.2371   3.5885   4.0161   4.3084
     4.6539   5.1919   5.5111   5.8882   6.1994   6.5038   6.7521   7.1995

     occupation numbers 
     1.0000   1.0000   1.0000   1.0000   1.0000   1.0000   1.0000   1.0000
     1.0000   1.0000   1.0000   1.0000   1.0000   1.0000   1.0000   1.0000
     1.0000   1.0000   1.0000   1.0000   1.0000   1.0000   1.0000   1.0000
     1.0000   1.0000   1.0000   1.0000   1.0000   1.0000   1.0000   1.0000
     1.0000   1.0000   1.0000   1.0000   1.0000   1.0000   1.0000   1.0000

          k = 0.1667 0.8465 1.0852 (  4023 PWs)   bands (ev):

   -13.4698 -13.4689 -13.4629 -13.4624 -13.4482 -13.4468 -13.4441 -13.4437
   -13.4366 -13.4366 -13.4233 -13.4219 -13.4173 -13.4160 -13.4013 -13.4009
   -13.3889 -13.3880 -13.3769 -13.3764  -4.9179  -4.7938  -4.6906  -4.5757
     0.3906   0.6137   1.4055   1.4613   3.2554   3.6005   3.7065   4.0784
     4.4726   4.8560   5.2541   5.6401   5.8805   6.1539   6.8421   6.9717

     occupation numbers 
     1.0000   1.0000   1.0000   1.0000   1.0000   1.0000   1.0000   1.0000
     1.0000   1.0000   1.0000   1.0000   1.0000   1.0000   1.0000   1.0000
     1.0000   1.0000   1.0000   1.0000   1.0000   1.0000   1.0000   1.0000
     1.0000   1.0000   1.0000   1.0000   1.0000   1.0000   1.0000   1.0000
     1.0000   1.0000   1.0000   1.0000   1.0000   1.0000   1.0000   1.0000

          k = 0.1667 1.1852 0.1550 (  4047 PWs)   bands (ev):

   -13.4651 -13.4637 -13.4620 -13.4607 -13.4455 -13.4441 -13.4428 -13.4412
   -13.4351 -13.4334 -13.4314 -13.4262 -13.4179 -13.4127 -13.4101 -13.4081
   -13.3844 -13.3819 -13.3795 -13.3793  -5.0086  -4.8828  -4.6985  -4.6684
     0.1608   0.5014   0.7797   1.0560   4.1336   4.5723   4.9700   5.3143
     5.5062   5.5432   5.9661   6.2650   6.5750   6.8091   6.8608   7.0358

     occupation numbers 
     1.0000   1.0000   1.0000   1.0000   1.0000   1.0000   1.0000   1.0000
     1.0000   1.0000   1.0000   1.0000   1.0000   1.0000   1.0000   1.0000
     1.0000   1.0000   1.0000   1.0000   1.0000   1.0000   1.0000   1.0000
     1.0000   1.0000   1.0000   1.0000   1.0000   1.0000   1.0000   1.0000
     1.0000   1.0000   1.0000   1.0000   1.0000   1.0000   1.0000   1.0000

          k = 0.1667 1.1852 0.4651 (  4037 PWs)   bands (ev):

   -13.4679 -13.4666 -13.4635 -13.4625 -13.4459 -13.4442 -13.4416 -13.4405
   -13.4346 -13.4331 -13.4298 -13.4257 -13.4171 -13.4135 -13.4081 -13.4071
   -13.3847 -13.3827 -13.3790 -13.3788  -4.9365  -4.8211  -4.6666  -4.6338
     0.3067   0.6392   0.8999   1.0954   3.8901   4.0779   4.3597   4.6414
     4.8668   5.3007   5.7906   5.9806   6.1042   6.3873   6.9214   7.1691

     occupation numbers 
     1.0000   1.0000   1.0000   1.0000   1.0000   1.0000   1.0000   1.0000
     1.0000   1.0000   1.0000   1.0000   1.0000   1.0000   1.0000   1.0000
     1.0000   1.0000   1.0000   1.0000   1.0000   1.0000   1.0000   1.0000
     1.0000   1.0000   1.0000   1.0000   1.0000   1.0000   1.0000   1.0000
     1.0000   1.0000   1.0000   1.0000   1.0000   1.0000   1.0000   1.0000

          k = 0.1667 1.1852 0.7752 (  4029 PWs)   bands (ev):

   -13.4715 -13.4705 -13.4657 -13.4651 -13.4460 -13.4446 -13.4404 -13.4398
   -13.4337 -13.4326 -13.4279 -13.4252 -13.4156 -13.4137 -13.4061 -13.4056
   -13.3848 -13.3835 -13.3785 -13.3783  -4.8195  -4.7238  -4.6297  -4.5908
     0.5544   0.8529   1.0851   1.1508   3.2475   3.7012   3.8100   4.1154
     4.4414   4.7657   5.1408   5.5995   5.7088   5.9641   6.7922   6.9266

     occupation numbers 
     1.0000   1.0000   1.0000   1.0000   1.0000   1.0000   1.0000   1.0000
     1.0000   1.0000   1.0000   1.0000   1.0000   1.0000   1.0000   1.0000
     1.0000   1.0000   1.0000   1.0000   1.0000   1.0000   1.0000   1.0000
     1.0000   1.0000   1.0000   1.0000   1.0000   1.0000   1.0000   1.0000
     1.0000   1.0000   1.0000   1.0000   1.0000   1.0000   1.0000   1.0000

          k = 0.1667 1.1852 1.0852 (  4019 PWs)   bands (ev):

   -13.4737 -13.4734 -13.4672 -13.4670 -13.4458 -13.4452 -13.4397 -13.4395
   -13.4329 -13.4325 -13.4263 -13.4253 -13.4142 -13.4136 -13.4048 -13.4047
   -13.3846 -13.3841 -13.3781 -13.3780  -4.7056  -4.6510  -4.6127  -4.5786
     0.8000   0.9322   1.2261   1.2622   2.9947   3.2001   3.5958   3.7251
     4.2650   4.2826   4.8013   5.1286   5.6741   5.8613   6.6459   6.6979

     occupation numbers 
     1.0000   1.0000   1.0000   1.0000   1.0000   1.0000   1.0000   1.0000
     1.0000   1.0000   1.0000   1.0000   1.0000   1.0000   1.0000   1.0000
     1.0000   1.0000   1.0000   1.0000   1.0000   1.0000   1.0000   1.0000
     1.0000   1.0000   1.0000   1.0000   1.0000   1.0000   1.0000   1.0000
     1.0000   1.0000   1.0000   1.0000   1.0000   1.0000   1.0000   1.0000

          k =-0.5000 0.1693 0.1550 (  4026 PWs)   bands (ev):

   -13.4661 -13.4661 -13.4546 -13.4546 -13.4532 -13.4532 -13.4452 -13.4452
   -13.4370 -13.4370 -13.4337 -13.4337 -13.4184 -13.4184 -13.3968 -13.3968
   -13.3901 -13.3901 -13.3756 -13.3756  -5.7146  -5.7146  -4.5558  -4.5558
     0.8170   0.8170   2.5807   2.5807   3.8483   3.8483   4.7258   4.7258
     5.2262   5.2262   5.8404   5.8404   6.1947   6.1947   7.3179   7.3179

     occupation numbers 
     1.0000   1.0000   1.0000   1.0000   1.0000   1.0000   1.0000   1.0000
     1.0000   1.0000   1.0000   1.0000   1.0000   1.0000   1.0000   1.0000
     1.0000   1.0000   1.0000   1.0000   1.0000   1.0000   1.0000   1.0000
     1.0000   1.0000   1.0000   1.0000   1.0000   1.0000   1.0000   1.0000
     1.0000   1.0000   1.0000   1.0000   1.0000   1.0000   1.0000   1.0000

          k =-0.5000 0.1693 0.4651 (  4008 PWs)   bands (ev):

   -13.4651 -13.4651 -13.4547 -13.4547 -13.4537 -13.4537 -13.4464 -13.4464
   -13.4364 -13.4364 -13.4312 -13.4312 -13.4185 -13.4185 -13.3966 -13.3966
   -13.3908 -13.3908 -13.3756 -13.3756  -5.6014  -5.6014  -4.5780  -4.5780
     0.5363   0.5363   2.1129   2.1129   4.0861   4.0861   4.7973   4.7973
     5.4863   5.4863   5.9929   5.9929   6.6362   6.6362   7.2284   7.2284

     occupation numbers 
     1.0000   1.0000   1.0000   1.0000   1.0000   1.0000   1.0000   1.0000
     1.0000   1.0000   1.0000   1.0000   1.0000   1.0000   1.0000   1.0000
     1.0000   1.0000   1.0000   1.0000   1.0000   1.0000   1.0000   1.0000
     1.0000   1.0000   1.0000   1.0000   1.0000   1.0000   1.0000   1.0000
     1.0000   1.0000   1.0000   1.0000   1.0000   1.0000   1.0000   1.0000

          k =-0.5000 0.1693 0.7752 (  4020 PWs)   bands (ev):

   -13.4635 -13.4635 -13.4562 -13.4562 -13.4535 -13.4535 -13.4480 -13.4480
   -13.4358 -13.4358 -13.4274 -13.4274 -13.4192 -13.4192 -13.3961 -13.3961
   -13.3920 -13.3920 -13.3756 -13.3756  -5.3998  -5.3998  -4.6510  -4.6510
     0.2135   0.2135   1.5669   1.5669   4.4087   4.4087   5.0813   5.0813
     5.6248   5.6248   6.2043   6.2043   6.8504   6.8504   7.3912   7.3912

     occupation numbers 
     1.0000   1.0000   1.0000   1.0000   1.0000   1.0000   1.0000   1.0000
     1.0000   1.0000   1.0000   1.0000   1.0000   1.0000   1.0000   1.0000
     1.0000   1.0000   1.0000   1.0000   1.0000   1.0000   1.0000   1.0000
     1.0000   1.0000   1.0000   1.0000   1.0000   1.0000   1.0000   1.0000
     1.0000   1.0000   1.0000   1.0000   1.0000   1.0000   1.0000   1.0000

          k =-0.5000 0.1693 1.0852 (  4010 PWs)   bands (ev):

   -13.4620 -13.4620 -13.4575 -13.4575 -13.4534 -13.4534 -13.4491 -13.4491
   -13.4354 -13.4354 -13.4237 -13.4237 -13.4205 -13.4205 -13.3955 -13.3955
   -13.3930 -13.3930 -13.3756 -13.3756  -5.1794  -5.1794  -4.7815  -4.7815
     0.0342   0.0342   1.2081   1.2081   4.8181   4.8181   5.3822   5.3822
     5.4656   5.4656   6.0588   6.0588   7.2156   7.2156   7.4997   7.4997

     occupation numbers 
     1.0000   1.0000   1.0000   1.0000   1.0000   1.0000   1.0000   1.0000
     1.0000   1.0000   1.0000   1.0000   1.0000   1.0000   1.0000   1.0000
     1.0000   1.0000   1.0000   1.0000   1.0000   1.0000   1.0000   1.0000
     1.0000   1.0000   1.0000   1.0000   1.0000   1.0000   1.0000   1.0000
     1.0000   1.0000   1.0000   1.0000   1.0000   1.0000   1.0000   1.0000

          k =-0.5000 0.5079 0.1550 (  4022 PWs)   bands (ev):

   -13.4619 -13.4619 -13.4556 -13.4556 -13.4513 -13.4513 -13.4484 -13.4484
   -13.4380 -13.4380 -13.4309 -13.4309 -13.4180 -13.4180 -13.3977 -13.3977
   -13.3903 -13.3903 -13.3763 -13.3763  -5.5605  -5.5605  -4.5295  -4.5295
     0.6571   0.6571   2.0752   2.0752   3.9743   3.9743   4.6212   4.6212
     5.5250   5.5250   5.7200   5.7200   6.3828   6.3828   7.4188   7.4188

     occupation numbers 
     1.0000   1.0000   1.0000   1.0000   1.0000   1.0000   1.0000   1.0000
     1.0000   1.0000   1.0000   1.0000   1.0000   1.0000   1.0000   1.0000
     1.0000   1.0000   1.0000   1.0000   1.0000   1.0000   1.0000   1.0000
     1.0000   1.0000   1.0000   1.0000   1.0000   1.0000   1.0000   1.0000
     1.0000   1.0000   1.0000   1.0000   1.0000   1.0000   1.0000   1.0000

          k =-0.5000 0.5079 0.4651 (  4012 PWs)   bands (ev):

   -13.4620 -13.4620 -13.4566 -13.4566 -13.4513 -13.4513 -13.4486 -13.4486
   -13.4378 -13.4378 -13.4286 -13.4286 -13.4181 -13.4181 -13.3975 -13.3975
   -13.3909 -13.3909 -13.3761 -13.3761  -5.4534  -5.4534  -4.5446  -4.5446
     0.5348   0.5348   1.8478   1.8478   3.9094   3.9094   4.5257   4.5257
     5.2044   5.2044   6.1516   6.1516   6.7535   6.7535   7.3345   7.3345

     occupation numbers 
     1.0000   1.0000   1.0000   1.0000   1.0000   1.0000   1.0000   1.0000
     1.0000   1.0000   1.0000   1.0000   1.0000   1.0000   1.0000   1.0000
     1.0000   1.0000   1.0000   1.0000   1.0000   1.0000   1.0000   1.0000
     1.0000   1.0000   1.0000   1.0000   1.0000   1.0000   1.0000   1.0000
     1.0000   1.0000   1.0000   1.0000   1.0000   1.0000   1.0000   1.0000

          k =-0.5000 0.5079 0.7752 (  4010 PWs)   bands (ev):

   -13.4625 -13.4625 -13.4583 -13.4583 -13.4511 -13.4511 -13.4487 -13.4487
   -13.4375 -13.4375 -13.4251 -13.4251 -13.4185 -13.4185 -13.3972 -13.3972
   -13.3918 -13.3918 -13.3759 -13.3759  -5.2648  -5.2648  -4.6018  -4.6018
     0.3454   0.3454   1.5383   1.5383   3.8987   3.8987   4.6937   4.6937
     5.0477   5.0477   6.2405   6.2405   6.6118   6.6118   7.2884   7.2884

     occupation numbers 
     1.0000   1.0000   1.0000   1.0000   1.0000   1.0000   1.0000   1.0000
     1.0000   1.0000   1.0000   1.0000   1.0000   1.0000   1.0000   1.0000
     1.0000   1.0000   1.0000   1.0000   1.0000   1.0000   1.0000   1.0000
     1.0000   1.0000   1.0000   1.0000   1.0000   1.0000   1.0000   1.0000
     1.0000   1.0000   1.0000   1.0000   1.0000   1.0000   1.0000   1.0000

          k =-0.5000 0.5079 1.0852 (  4004 PWs)   bands (ev):

   -13.4629 -13.4629 -13.4595 -13.4595 -13.4507 -13.4507 -13.4488 -13.4488
   -13.4373 -13.4373 -13.4220 -13.4220 -13.4193 -13.4193 -13.3969 -13.3969
   -13.3924 -13.3924 -13.3757 -13.3757  -5.0623  -5.0623  -4.7107  -4.7107
     0.2138   0.2138   1.3102   1.3102   4.1376   4.1376   4.5534   4.5534
     5.2788   5.2788   5.8669   5.8669   6.5307   6.5307   7.1222   7.1222

     occupation numbers 
     1.0000   1.0000   1.0000   1.0000   1.0000   1.0000   1.0000   1.0000
     1.0000   1.0000   1.0000   1.0000   1.0000   1.0000   1.0000   1.0000
     1.0000   1.0000   1.0000   1.0000   1.0000   1.0000   1.0000   1.0000
     1.0000   1.0000   1.0000   1.0000   1.0000   1.0000   1.0000   1.0000
     1.0000   1.0000   1.0000   1.0000   1.0000   1.0000   1.0000   1.0000

          k =-0.5000 0.8465 0.1550 (  4026 PWs)   bands (ev):

   -13.4623 -13.4623 -13.4579 -13.4579 -13.4476 -13.4476 -13.4460 -13.4460
   -13.4378 -13.4378 -13.4282 -13.4282 -13.4175 -13.4175 -13.4029 -13.4029
   -13.3873 -13.3873 -13.3774 -13.3774  -5.2833  -5.2833  -4.5405  -4.5405
     0.4486   0.4486   1.3689   1.3689   4.2574   4.2574   4.8021   4.8021
     5.6863   5.6863   5.8471   5.8471   6.3873   6.3873   7.2751   7.2751

     occupation numbers 
     1.0000   1.0000   1.0000   1.0000   1.0000   1.0000   1.0000   1.0000
     1.0000   1.0000   1.0000   1.0000   1.0000   1.0000   1.0000   1.0000
     1.0000   1.0000   1.0000   1.0000   1.0000   1.0000   1.0000   1.0000
     1.0000   1.0000   1.0000   1.0000   1.0000   1.0000   1.0000   1.0000
     1.0000   1.0000   1.0000   1.0000   1.0000   1.0000   1.0000   1.0000

          k =-0.5000 0.8465 0.4651 (  4026 PWs)   bands (ev):

   -13.4641 -13.4641 -13.4598 -13.4598 -13.4475 -13.4475 -13.4451 -13.4451
   -13.4374 -13.4374 -13.4266 -13.4266 -13.4172 -13.4172 -13.4027 -13.4027
   -13.3875 -13.3875 -13.3772 -13.3772  -5.1907  -5.1907  -4.5379  -4.5379
     0.5078   0.5078   1.3554   1.3554   3.7916   3.7916   4.6285   4.6285
     5.1069   5.1069   6.0951   6.0951   6.3246   6.3246   7.1755   7.1755

     occupation numbers 
     1.0000   1.0000   1.0000   1.0000   1.0000   1.0000   1.0000   1.0000
     1.0000   1.0000   1.0000   1.0000   1.0000   1.0000   1.0000   1.0000
     1.0000   1.0000   1.0000   1.0000   1.0000   1.0000   1.0000   1.0000
     1.0000   1.0000   1.0000   1.0000   1.0000   1.0000   1.0000   1.0000
     1.0000   1.0000   1.0000   1.0000   1.0000   1.0000   1.0000   1.0000

          k =-0.5000 0.8465 0.7752 (  4026 PWs)   bands (ev):

   -13.4666 -13.4666 -13.4624 -13.4624 -13.4471 -13.4471 -13.4444 -13.4444
   -13.4369 -13.4369 -13.4247 -13.4247 -13.4164 -13.4164 -13.4023 -13.4023
   -13.3878 -13.3878 -13.3769 -13.3769  -5.0321  -5.0321  -4.5579  -4.5579
     0.5476   0.5476   1.3504   1.3504   3.4510   3.4510   4.2885   4.2885
     4.8824   4.8824   5.5787   5.5787   6.2191   6.2191   7.0481   7.0481

     occupation numbers 
     1.0000   1.0000   1.0000   1.0000   1.0000   1.0000   1.0000   1.0000
     1.0000   1.0000   1.0000   1.0000   1.0000   1.0000   1.0000   1.0000
     1.0000   1.0000   1.0000   1.0000   1.0000   1.0000   1.0000   1.0000
     1.0000   1.0000   1.0000   1.0000   1.0000   1.0000   1.0000   1.0000
     1.0000   1.0000   1.0000   1.0000   1.0000   1.0000   1.0000   1.0000

          k =-0.5000 0.8465 1.0852 (  4004 PWs)   bands (ev):

   -13.4683 -13.4683 -13.4643 -13.4643 -13.4465 -13.4465 -13.4442 -13.4442
   -13.4365 -13.4365 -13.4236 -13.4236 -13.4155 -13.4155 -13.4020 -13.4020
   -13.3880 -13.3880 -13.3766 -13.3766  -4.8701  -4.8701  -4.6193  -4.6193
     0.5275   0.5275   1.3748   1.3748   3.4645   3.4645   3.8306   3.8306
     4.8871   4.8871   5.1981   5.1981   6.2065   6.2065   6.7252   6.7252

     occupation numbers 
     1.0000   1.0000   1.0000   1.0000   1.0000   1.0000   1.0000   1.0000
     1.0000   1.0000   1.0000   1.0000   1.0000   1.0000   1.0000   1.0000
     1.0000   1.0000   1.0000   1.0000   1.0000   1.0000   1.0000   1.0000
     1.0000   1.0000   1.0000   1.0000   1.0000   1.0000   1.0000   1.0000
     1.0000   1.0000   1.0000   1.0000   1.0000   1.0000   1.0000   1.0000

          k =-0.5000 1.1852 0.1550 (  4042 PWs)   bands (ev):

   -13.4638 -13.4638 -13.4622 -13.4622 -13.4438 -13.4438 -13.4432 -13.4432
   -13.4337 -13.4337 -13.4290 -13.4290 -13.4148 -13.4148 -13.4094 -13.4094
   -13.3830 -13.3830 -13.3795 -13.3795  -4.9532  -4.9532  -4.6766  -4.6766
     0.4317   0.4317   0.7572   0.7572   4.7184   4.7184   5.0698   5.0698
     5.5714   5.5714   5.8205   5.8205   6.5081   6.5081   6.8849   6.8849

     occupation numbers 
     1.0000   1.0000   1.0000   1.0000   1.0000   1.0000   1.0000   1.0000
     1.0000   1.0000   1.0000   1.0000   1.0000   1.0000   1.0000   1.0000
     1.0000   1.0000   1.0000   1.0000   1.0000   1.0000   1.0000   1.0000
     1.0000   1.0000   1.0000   1.0000   1.0000   1.0000   1.0000   1.0000
     1.0000   1.0000   1.0000   1.0000   1.0000   1.0000   1.0000   1.0000

          k =-0.5000 1.1852 0.4651 (  4040 PWs)   bands (ev):

   -13.4660 -13.4660 -13.4644 -13.4644 -13.4437 -13.4437 -13.4428 -13.4428
   -13.4331 -13.4331 -13.4284 -13.4284 -13.4138 -13.4138 -13.4087 -13.4087
   -13.3831 -13.3831 -13.3793 -13.3793  -4.8860  -4.8860  -4.6434  -4.6434
     0.5635   0.5635   0.8581   0.8581   4.0724   4.0724   4.6074   4.6074
     5.1580   5.1580   5.6002   5.6002   6.3458   6.3458   6.7842   6.7842

     occupation numbers 
     1.0000   1.0000   1.0000   1.0000   1.0000   1.0000   1.0000   1.0000
     1.0000   1.0000   1.0000   1.0000   1.0000   1.0000   1.0000   1.0000
     1.0000   1.0000   1.0000   1.0000   1.0000   1.0000   1.0000   1.0000
     1.0000   1.0000   1.0000   1.0000   1.0000   1.0000   1.0000   1.0000
     1.0000   1.0000   1.0000   1.0000   1.0000   1.0000   1.0000   1.0000

          k =-0.5000 1.1852 0.7752 (  4018 PWs)   bands (ev):

   -13.4691 -13.4691 -13.4675 -13.4675 -13.4436 -13.4436 -13.4424 -13.4424
   -13.4322 -13.4322 -13.4276 -13.4276 -13.4124 -13.4124 -13.4076 -13.4076
   -13.3831 -13.3831 -13.3791 -13.3791  -4.7789  -4.7789  -4.6032  -4.6032
     0.7591   0.7591   1.0303   1.0303   3.5116   3.5116   4.0277   4.0277
     4.5925   4.5925   5.0530   5.0530   6.2698   6.2698   6.6430   6.6430

     occupation numbers 
     1.0000   1.0000   1.0000   1.0000   1.0000   1.0000   1.0000   1.0000
     1.0000   1.0000   1.0000   1.0000   1.0000   1.0000   1.0000   1.0000
     1.0000   1.0000   1.0000   1.0000   1.0000   1.0000   1.0000   1.0000
     1.0000   1.0000   1.0000   1.0000   1.0000   1.0000   1.0000   1.0000
     1.0000   1.0000   1.0000   1.0000   1.0000   1.0000   1.0000   1.0000

          k =-0.5000 1.1852 1.0852 (  3994 PWs)   bands (ev):

   -13.4712 -13.4712 -13.4696 -13.4696 -13.4436 -13.4436 -13.4423 -13.4423
   -13.4315 -13.4315 -13.4270 -13.4270 -13.4112 -13.4112 -13.4068 -13.4068
   -13.3830 -13.3830 -13.3790 -13.3790  -4.6834  -4.6834  -4.5906  -4.5906
     0.8834   0.8834   1.2040   1.2040   3.3233   3.3233   3.5691   3.5691
     4.2394   4.2394   4.5265   4.5265   6.3691   6.3691   6.5575   6.5575

     occupation numbers 
     1.0000   1.0000   1.0000   1.0000   1.0000   1.0000   1.0000   1.0000
     1.0000   1.0000   1.0000   1.0000   1.0000   1.0000   1.0000   1.0000
     1.0000   1.0000   1.0000   1.0000   1.0000   1.0000   1.0000   1.0000
     1.0000   1.0000   1.0000   1.0000   1.0000   1.0000   1.0000   1.0000
     1.0000   1.0000   1.0000   1.0000   1.0000   1.0000   1.0000   1.0000

     highest occupied level (ev):     7.6941

!    total energy              =    -827.73736288 Ry
     estimated scf accuracy    <          1.7E-09 Ry

     The total energy is the sum of the following terms:
     one-electron contribution =    -261.85036255 Ry
     hartree contribution      =     180.93184067 Ry
     xc contribution           =    -309.08691930 Ry
     ewald contribution        =    -437.61034013 Ry
     DFT-D3 Dispersion         =      -0.12158157 Ry

     convergence has been achieved in  10 iterations

     Forces acting on atoms (cartesian axes, Ry/au):

     atom    1 type  2   force =     0.00744086    0.00000000    0.00036116
     atom    2 type  1   force =    -0.00765773    0.00000000   -0.00039965
     atom    3 type  2   force =    -0.00744086    0.00000000    0.00036116
     atom    4 type  1   force =     0.00765773    0.00000000   -0.00039965
     atom    5 type  2   force =     0.00744086    0.00000000   -0.00036116
     atom    6 type  1   force =    -0.00765773    0.00000000    0.00039965
     atom    7 type  2   force =    -0.00744086    0.00000000   -0.00036116
     atom    8 type  1   force =     0.00765773   -0.00000000    0.00039965
     The non-local contrib.  to forces
     atom    1 type  2   force =    -0.10700645    0.00000000    0.11362956
     atom    2 type  1   force =     0.35104880    0.00000000    0.30412878
     atom    3 type  2   force =     0.10700645   -0.00000000    0.11362956
     atom    4 type  1   force =    -0.35104880    0.00000000    0.30412878
     atom    5 type  2   force =    -0.10700645    0.00000000   -0.11362956
     atom    6 type  1   force =     0.35104880    0.00000000   -0.30412878
     atom    7 type  2   force =     0.10700645   -0.00000000   -0.11362956
     atom    8 type  1   force =    -0.35104880    0.00000000   -0.30412878
     The ionic contribution  to forces
     atom    1 type  2   force =     1.30511430   -0.00000000   -1.23015574
     atom    2 type  1   force =    -0.64441939    0.00000000   -0.64785825
     atom    3 type  2   force =    -1.30511430    0.00000000   -1.23015574
     atom    4 type  1   force =     0.64441939    0.00000000   -0.64785825
     atom    5 type  2   force =     1.30511430    0.00000000    1.23015574
     atom    6 type  1   force =    -0.64441939    0.00000000    0.64785825
     atom    7 type  2   force =    -1.30511430    0.00000000    1.23015574
     atom    8 type  1   force =     0.64441939    0.00000000    0.64785825
     The local contribution  to forces
     atom    1 type  2   force =    -1.20175940    0.00000000    1.12818120
     atom    2 type  1   force =     0.29168521    0.00000000    0.34756955
     atom    3 type  2   force =     1.20175940    0.00000000    1.12818120
     atom    4 type  1   force =    -0.29168521    0.00000000    0.34756955
     atom    5 type  2   force =    -1.20175940    0.00000000   -1.12818120
     atom    6 type  1   force =     0.29168521    0.00000000   -0.34756955
     atom    7 type  2   force =     1.20175940    0.00000000   -1.12818120
     atom    8 type  1   force =    -0.29168521    0.00000000   -0.34756955
     The core correction contribution to forces
     atom    1 type  2   force =     0.01190691   -0.00000000   -0.01281927
     atom    2 type  1   force =    -0.00537990   -0.00000000   -0.00529770
     atom    3 type  2   force =    -0.01190691   -0.00000000   -0.01281927
     atom    4 type  1   force =     0.00537990    0.00000000   -0.00529770
     atom    5 type  2   force =     0.01190691   -0.00000000    0.01281927
     atom    6 type  1   force =    -0.00537990   -0.00000000    0.00529770
     atom    7 type  2   force =    -0.01190691    0.00000000    0.01281927
     atom    8 type  1   force =     0.00537990    0.00000000    0.00529770
     The Hubbard contrib.    to forces
     atom    1 type  2   force =     0.00000000    0.00000000    0.00000000
     atom    2 type  1   force =     0.00000000    0.00000000    0.00000000
     atom    3 type  2   force =     0.00000000    0.00000000    0.00000000
     atom    4 type  1   force =     0.00000000    0.00000000    0.00000000
     atom    5 type  2   force =     0.00000000    0.00000000    0.00000000
     atom    6 type  1   force =     0.00000000    0.00000000    0.00000000
     atom    7 type  2   force =     0.00000000    0.00000000    0.00000000
     atom    8 type  1   force =     0.00000000    0.00000000    0.00000000
     The SCF correction term to forces
     atom    1 type  2   force =    -0.00001223   -0.00000000    0.00000384
     atom    2 type  1   force =     0.00010258   -0.00000000    0.00006680
     atom    3 type  2   force =     0.00001223   -0.00000000    0.00000384
     atom    4 type  1   force =    -0.00010258    0.00000000    0.00006680
     atom    5 type  2   force =    -0.00001223    0.00000000   -0.00000384
     atom    6 type  1   force =     0.00010258   -0.00000000   -0.00006680
     atom    7 type  2   force =     0.00001223   -0.00000000   -0.00000384
     atom    8 type  1   force =    -0.00010258   -0.00000000   -0.00006680

     DFT-D3 dispersion contribution to forces:
     atom    1 type  2   force =    -0.00080227    0.00000000    0.00152157
     atom    2 type  1   force =    -0.00069503    0.00000000    0.00099117
     atom    3 type  2   force =     0.00080227   -0.00000000    0.00152157
     atom    4 type  1   force =     0.00069503   -0.00000000    0.00099117
     atom    5 type  2   force =    -0.00080227    0.00000000   -0.00152157
     atom    6 type  1   force =    -0.00069503    0.00000000   -0.00099117
     atom    7 type  2   force =     0.00080227   -0.00000000   -0.00152157
     atom    8 type  1   force =     0.00069503   -0.00000000   -0.00099117

     Total force =     0.021382     Total SCF correction =     0.000246

     DFT-D3 dispersion Force =     0.004207

     Writing all to output data dir ./tmp/SnSe_pnma.save/ :
     XML data file, charge density, pseudopotentials, collected wavefunctions
 
     init_run     :      1.00s CPU      1.11s WALL (       1 calls)
     electrons    :     20.85s CPU     22.29s WALL (       1 calls)
     forces       :      0.47s CPU      0.54s WALL (       1 calls)
     force_dftd3  :      0.04s CPU      0.06s WALL (       1 calls)

     Called by init_run:
     wfcinit      :      0.52s CPU      0.53s WALL (       1 calls)
     wfcinit:atom :      0.01s CPU      0.01s WALL (      11 calls)
     wfcinit:wfcr :      0.44s CPU      0.45s WALL (      11 calls)
     potinit      :      0.11s CPU      0.13s WALL (       1 calls)
     hinit0       :      0.14s CPU      0.15s WALL (       1 calls)

     Called by electrons:
     c_bands      :     15.68s CPU     15.87s WALL (      10 calls)
     sum_band     :      3.26s CPU      3.89s WALL (      10 calls)
     v_of_rho     :      0.61s CPU      0.64s WALL (      11 calls)
     v_h          :      0.04s CPU      0.04s WALL (      11 calls)
     v_xc         :      0.62s CPU      0.65s WALL (      12 calls)
     newd         :      1.35s CPU      1.94s WALL (      11 calls)
     mix_rho      :      0.07s CPU      0.09s WALL (      10 calls)
     energy_dftd3 :      0.05s CPU      0.05s WALL (       1 calls)

     Called by c_bands:
     init_us_2    :      0.45s CPU      0.47s WALL (     242 calls)
     cegterg      :     13.57s CPU     13.69s WALL (     110 calls)

     Called by sum_band:
     sum_band:wei :      0.00s CPU      0.00s WALL (      10 calls)
     sum_band:loo :      1.94s CPU      1.96s WALL (      10 calls)
     sum_band:buf :      0.03s CPU      0.03s WALL (     110 calls)
     sum_band:ini :      0.20s CPU      0.20s WALL (     110 calls)
     sum_band:cal :      0.29s CPU      0.29s WALL (     110 calls)
     sum_band:bec :      0.01s CPU      0.01s WALL (     110 calls)
     addusdens    :      1.17s CPU      1.77s WALL (      10 calls)
                                        0.00s GPU  (      10 calls)
     addusd:skk   :      0.01s CPU      0.01s WALL (      20 calls)
                                        0.00s GPU  (      20 calls)

     Called by *egterg:
     cdiaghg      :      0.81s CPU      0.82s WALL (     510 calls)
     cegterg:over :      0.76s CPU      0.76s WALL (     400 calls)
     cegterg:upda :      0.43s CPU      0.43s WALL (     400 calls)
     cegterg:last :      0.97s CPU      0.97s WALL (     278 calls)
     h_psi        :      9.54s CPU      9.63s WALL (     521 calls)
     s_psi        :      1.05s CPU      1.05s WALL (     521 calls)
     g_psi        :      0.04s CPU      0.04s WALL (     400 calls)

     Called by h_psi:
     h_psi:calbec :      1.01s CPU      1.02s WALL (     521 calls)
     vloc_psi     :      7.35s CPU      7.41s WALL (     521 calls)
     add_vuspsi   :      1.09s CPU      1.10s WALL (     521 calls)

     General routines
     calbec       :      1.42s CPU      1.44s WALL (     675 calls)
     fft          :      0.27s CPU      0.29s WALL (     152 calls)
     ffts         :      0.01s CPU      0.01s WALL (      21 calls)
     fftw         :      5.87s CPU      5.92s WALL (   32716 calls)
     interpolate  :      0.03s CPU      0.03s WALL (      11 calls)
 
     Parallel routines
 
     PWSCF        :     22.63s CPU     24.70s WALL

 
   This run was terminated on:  21:32:25  19May2026            

=------------------------------------------------------------------------------=
   JOB DONE.
=------------------------------------------------------------------------------=
