
     Program PWSCF v.7.3.1 starts on 19May2026 at 22: 8:36 

     This program is part of the open-source Quantum ESPRESSO suite
     for quantum simulation of materials; please cite
         "P. Giannozzi et al., J. Phys.:Condens. Matter 21 395502 (2009);
         "P. Giannozzi et al., J. Phys.:Condens. Matter 29 465901 (2017);
         "P. Giannozzi et al., J. Chem. Phys. 152 154105 (2020);
          URL http://www.quantum-espresso.org", 
     in publications or presentations arising from this work. More details at
     http://www.quantum-espresso.org/quote

     Parallel version (MPI & OpenMP), running on       6 processor cores
     Number of MPI processes:                 6
     Threads/MPI process:                     1

     MPI processes distributed on     1 nodes
     11607 MiB available memory on the printing compute node when the environment starts
 
     Waiting for input...
     Reading input from standard input

     Current dimensions of program PWSCF are:
     Max number of different atomic species (ntypx) = 10
     Max number of k-points (npk) =  40000
     Max angular momentum in pseudopotentials (lmaxx) =  4
 
     K-points division:     npool     =       3
     R & G space division:  proc/nbgrp/npool/nimage =       2
     Subspace diagonalization in iterative solution of the eigenvalue problem:
     a serial algorithm will be used

 
     Parallelization info
     --------------------
     sticks:   dense  smooth     PW     G-vecs:    dense   smooth      PW
     Min        3423    1372    393               139817    35395    5421
     Max        3424    1373    394               139818    35396    5422
     Sum        6847    2745    787               279635    70791   10843
 
     Using Slab Decomposition
 


     bravais-lattice index     =            8
     lattice parameter (alat)  =      21.8263  a.u.
     unit-cell volume          =    1481.1412 (a.u.)^3
     number of atoms/cell      =            8
     number of atomic types    =            2
     number of electrons       =        80.00
     number of Kohn-Sham states=           40
     kinetic-energy cutoff     =      50.0000  Ry
     charge density cutoff     =     500.0000  Ry
     scf convergence threshold =      1.0E-08
     mixing beta               =       0.7000
     number of iterations used =            8  plain     mixing
     Exchange-correlation= SLA  PW   PBE  PBE
                           (   1   4   3   4   0   0   0)

     celldm(1)=  21.826337  celldm(2)=   0.361160  celldm(3)=   0.394416
     celldm(4)=   0.000000  celldm(5)=   0.000000  celldm(6)=   0.000000

     crystal axes: (cart. coord. in units of alat)
               a(1) = (   1.000000   0.000000   0.000000 )  
               a(2) = (   0.000000   0.361160   0.000000 )  
               a(3) = (   0.000000   0.000000   0.394416 )  

     reciprocal axes: (cart. coord. in units 2 pi/alat)
               b(1) = (  1.000000  0.000000  0.000000 )  
               b(2) = (  0.000000  2.768855  0.000000 )  
               b(3) = (  0.000000  0.000000  2.535397 )  


     PseudoPot. # 1 for Sn read from file:
     ../pseudo/Sn_pbe_v1.uspp.F.UPF
     MD5 check sum: 4cf58ce39ec5d5d420df3dd08604eb00
     Pseudo is Ultrasoft + core correction, Zval = 14.0
     Generated by new atomic code, or converted to UPF format
     Using radial grid of  891 points,  6 beta functions with: 
                l(1) =   0
                l(2) =   0
                l(3) =   1
                l(4) =   1
                l(5) =   2
                l(6) =   2
     Q(r) pseudized with  6 coefficients,  rinner =    1.200   1.200   1.200
                                                       1.200   1.200

     PseudoPot. # 2 for Se read from file:
     ../pseudo/Se_pbe_v1.uspp.F.UPF
     MD5 check sum: 1b3568f3a8ae88f9a2a0ad0698632c85
     Pseudo is Ultrasoft + core correction, Zval =  6.0
     Generated by new atomic code, or converted to UPF format
     Using radial grid of  877 points,  6 beta functions with: 
                l(1) =   0
                l(2) =   0
                l(3) =   1
                l(4) =   1
                l(5) =   2
                l(6) =   2
     Q(r) pseudized with  8 coefficients,  rinner =    1.300   1.300   1.300
                                                       1.300   1.300

     atomic species   valence    mass     pseudopotential
     Sn               14.00   118.71000     Sn( 1.00)
     Se                6.00    78.97100     Se( 1.00)

      8 Sym. Ops., with inversion, found ( 6 have fractional translation)


                                    s                        frac. trans.

      isym =  1     identity                                     

 cryst.   s( 1) = (     1          0          0      )
                  (     0          1          0      )
                  (     0          0          1      )

 cart.    s( 1) = (  1.0000000  0.0000000  0.0000000 )
                  (  0.0000000  1.0000000  0.0000000 )
                  (  0.0000000  0.0000000  1.0000000 )


      isym =  2     180 deg rotation - cart. axis [0,0,1]        

 cryst.   s( 2) = (    -1          0          0      )    f =(  0.5000000 )
                  (     0         -1          0      )       (  0.0000000 )
                  (     0          0          1      )       ( -0.5000000 )

 cart.    s( 2) = ( -1.0000000  0.0000000  0.0000000 )    f =(  0.5000000 )
                  (  0.0000000 -1.0000000  0.0000000 )       (  0.0000000 )
                  (  0.0000000  0.0000000  1.0000000 )       ( -0.1972078 )


      isym =  3     180 deg rotation - cart. axis [0,1,0]        

 cryst.   s( 3) = (    -1          0          0      )    f =(  0.0000000 )
                  (     0          1          0      )       ( -0.5000000 )
                  (     0          0         -1      )       (  0.0000000 )

 cart.    s( 3) = ( -1.0000000  0.0000000  0.0000000 )    f =(  0.0000000 )
                  (  0.0000000  1.0000000  0.0000000 )       ( -0.1805801 )
                  (  0.0000000  0.0000000 -1.0000000 )       (  0.0000000 )


      isym =  4     180 deg rotation - cart. axis [1,0,0]        

 cryst.   s( 4) = (     1          0          0      )    f =(  0.5000000 )
                  (     0         -1          0      )       (  0.5000000 )
                  (     0          0         -1      )       (  0.5000000 )

 cart.    s( 4) = (  1.0000000  0.0000000  0.0000000 )    f =(  0.5000000 )
                  (  0.0000000 -1.0000000  0.0000000 )       (  0.1805801 )
                  (  0.0000000  0.0000000 -1.0000000 )       (  0.1972078 )


      isym =  5     inversion                                    

 cryst.   s( 5) = (    -1          0          0      )
                  (     0         -1          0      )
                  (     0          0         -1      )

 cart.    s( 5) = ( -1.0000000  0.0000000  0.0000000 )
                  (  0.0000000 -1.0000000  0.0000000 )
                  (  0.0000000  0.0000000 -1.0000000 )


      isym =  6     inv. 180 deg rotation - cart. axis [0,0,1]   

 cryst.   s( 6) = (     1          0          0      )    f =(  0.5000000 )
                  (     0          1          0      )       (  0.0000000 )
                  (     0          0         -1      )       (  0.5000000 )

 cart.    s( 6) = (  1.0000000  0.0000000  0.0000000 )    f =(  0.5000000 )
                  (  0.0000000  1.0000000  0.0000000 )       (  0.0000000 )
                  (  0.0000000  0.0000000 -1.0000000 )       (  0.1972078 )


      isym =  7     inv. 180 deg rotation - cart. axis [0,1,0]   

 cryst.   s( 7) = (     1          0          0      )    f =(  0.0000000 )
                  (     0         -1          0      )       (  0.5000000 )
                  (     0          0          1      )       (  0.0000000 )

 cart.    s( 7) = (  1.0000000  0.0000000  0.0000000 )    f =(  0.0000000 )
                  (  0.0000000 -1.0000000  0.0000000 )       (  0.1805801 )
                  (  0.0000000  0.0000000  1.0000000 )       (  0.0000000 )


      isym =  8     inv. 180 deg rotation - cart. axis [1,0,0]   

 cryst.   s( 8) = (    -1          0          0      )    f =(  0.5000000 )
                  (     0          1          0      )       ( -0.5000000 )
                  (     0          0          1      )       ( -0.5000000 )

 cart.    s( 8) = ( -1.0000000  0.0000000  0.0000000 )    f =(  0.5000000 )
                  (  0.0000000  1.0000000  0.0000000 )       ( -0.1805801 )
                  (  0.0000000  0.0000000  1.0000000 )       ( -0.1972078 )


     point group D_2h (mmm) 
     there are  8 classes
     the character table:

       E     C2    C2'   C2''  i     s_v   s_v'  s_v''
A_g    1.00  1.00  1.00  1.00  1.00  1.00  1.00  1.00
B_1g   1.00  1.00 -1.00 -1.00  1.00  1.00 -1.00 -1.00
B_2g   1.00 -1.00  1.00 -1.00  1.00 -1.00  1.00 -1.00
B_3g   1.00 -1.00 -1.00  1.00  1.00 -1.00 -1.00  1.00
A_u    1.00  1.00  1.00  1.00 -1.00 -1.00 -1.00 -1.00
B_1u   1.00  1.00 -1.00 -1.00 -1.00 -1.00  1.00  1.00
B_2u   1.00 -1.00  1.00 -1.00 -1.00  1.00 -1.00  1.00
B_3u   1.00 -1.00 -1.00  1.00 -1.00  1.00  1.00 -1.00

     the symmetry operations in each class and the name of the first element:

     E        1
          identity                                               
     C2       2
          180 deg rotation - cart. axis [0,0,1]                  
     C2'      4
          180 deg rotation - cart. axis [1,0,0]                  
     C2''     3
          180 deg rotation - cart. axis [0,1,0]                  
     i        5
          inversion                                              
     s_v      6
          inv. 180 deg rotation - cart. axis [0,0,1]             
     s_v'     8
          inv. 180 deg rotation - cart. axis [1,0,0]             
     s_v''    7
          inv. 180 deg rotation - cart. axis [0,1,0]             

   Cartesian axes

     site n.     atom                  positions (alat units)
         1        Se     tau(   1) = (   0.8549563   0.0902900   0.1906006  )
         2        Sn     tau(   2) = (   0.1165395   0.0902900   0.0442877  )
         3        Se     tau(   3) = (   0.6450437   0.2708701   0.3878084  )
         4        Sn     tau(   4) = (   0.3834605   0.2708701   0.2414955  )
         5        Se     tau(   5) = (   0.3549563   0.0902900   0.0066072  )
         6        Sn     tau(   6) = (   0.6165395   0.0902900   0.1529200  )
         7        Se     tau(   7) = (   0.1450437   0.2708701   0.2038150  )
         8        Sn     tau(   8) = (   0.8834605   0.2708701   0.3501278  )

     --------------------------------------------
     DFT-D3 Dispersion Correction (3-body terms):
     --------------------------------------------
       Reference C6 values for interpolation: 

         atom   Coordination number   C6
         Se         0.000           427.35
         Se         0.990           427.57
         Se         1.981           421.05
         Sn         0.000          1255.14
         Sn         0.951          1084.09
         Sn         1.950          1010.83
         Sn         2.926           818.29
         Sn         3.912           672.20

       Values used:

         atom   Coordination number  R0_AB[au]  C6      C8
         Se         3.411            3.332    421.05  29958.36
         Sn         4.106            3.957    672.81  84444.72
         Se         3.411            3.332    421.05  29958.36
         Sn         4.106            3.957    672.81  84444.72
         Se         3.411            3.332    421.05  29958.36
         Sn         4.106            3.957    672.81  84444.72
         Se         3.411            3.332    421.05  29958.36
         Sn         4.106            3.957    672.81  84444.72

         Molecular C6 ( Ry / a.u.^6 ) =     34513.33


   Crystallographic axes

     site n.     atom                  positions (cryst. coord.)
         1        Se     tau(   1) = (  0.8549563  0.2500000  0.4832481  )
         2        Sn     tau(   2) = (  0.1165395  0.2500000  0.1122870  )
         3        Se     tau(   3) = (  0.6450437  0.7500000  0.9832481  )
         4        Sn     tau(   4) = (  0.3834605  0.7500000  0.6122870  )
         5        Se     tau(   5) = (  0.3549563  0.2500000  0.0167519  )
         6        Sn     tau(   6) = (  0.6165395  0.2500000  0.3877130  )
         7        Se     tau(   7) = (  0.1450437  0.7500000  0.5167519  )
         8        Sn     tau(   8) = (  0.8834605  0.7500000  0.8877130  )

     number of k points=    32
                       cart. coord. in units 2pi/alat
        k(    1) = (   0.1666667   0.1730534   0.1584623), wk =   0.0833333
        k(    2) = (   0.1666667   0.1730534   0.4753869), wk =   0.0833333
        k(    3) = (   0.1666667   0.1730534   0.7923115), wk =   0.0833333
        k(    4) = (   0.1666667   0.1730534   1.1092361), wk =   0.0833333
        k(    5) = (   0.1666667   0.5191602   0.1584623), wk =   0.0833333
        k(    6) = (   0.1666667   0.5191602   0.4753869), wk =   0.0833333
        k(    7) = (   0.1666667   0.5191602   0.7923115), wk =   0.0833333
        k(    8) = (   0.1666667   0.5191602   1.1092361), wk =   0.0833333
        k(    9) = (   0.1666667   0.8652671   0.1584623), wk =   0.0833333
        k(   10) = (   0.1666667   0.8652671   0.4753869), wk =   0.0833333
        k(   11) = (   0.1666667   0.8652671   0.7923115), wk =   0.0833333
        k(   12) = (   0.1666667   0.8652671   1.1092361), wk =   0.0833333
        k(   13) = (   0.1666667   1.2113739   0.1584623), wk =   0.0833333
        k(   14) = (   0.1666667   1.2113739   0.4753869), wk =   0.0833333
        k(   15) = (   0.1666667   1.2113739   0.7923115), wk =   0.0833333
        k(   16) = (   0.1666667   1.2113739   1.1092361), wk =   0.0833333
        k(   17) = (  -0.5000000   0.1730534   0.1584623), wk =   0.0416667
        k(   18) = (  -0.5000000   0.1730534   0.4753869), wk =   0.0416667
        k(   19) = (  -0.5000000   0.1730534   0.7923115), wk =   0.0416667
        k(   20) = (  -0.5000000   0.1730534   1.1092361), wk =   0.0416667
        k(   21) = (  -0.5000000   0.5191602   0.1584623), wk =   0.0416667
        k(   22) = (  -0.5000000   0.5191602   0.4753869), wk =   0.0416667
        k(   23) = (  -0.5000000   0.5191602   0.7923115), wk =   0.0416667
        k(   24) = (  -0.5000000   0.5191602   1.1092361), wk =   0.0416667
        k(   25) = (  -0.5000000   0.8652671   0.1584623), wk =   0.0416667
        k(   26) = (  -0.5000000   0.8652671   0.4753869), wk =   0.0416667
        k(   27) = (  -0.5000000   0.8652671   0.7923115), wk =   0.0416667
        k(   28) = (  -0.5000000   0.8652671   1.1092361), wk =   0.0416667
        k(   29) = (  -0.5000000   1.2113739   0.1584623), wk =   0.0416667
        k(   30) = (  -0.5000000   1.2113739   0.4753869), wk =   0.0416667
        k(   31) = (  -0.5000000   1.2113739   0.7923115), wk =   0.0416667
        k(   32) = (  -0.5000000   1.2113739   1.1092361), wk =   0.0416667

                       cryst. coord.
        k(    1) = (   0.1666667   0.0625000   0.0625000), wk =   0.0833333
        k(    2) = (   0.1666667   0.0625000   0.1875000), wk =   0.0833333
        k(    3) = (   0.1666667   0.0625000   0.3125000), wk =   0.0833333
        k(    4) = (   0.1666667   0.0625000   0.4375000), wk =   0.0833333
        k(    5) = (   0.1666667   0.1875000   0.0625000), wk =   0.0833333
        k(    6) = (   0.1666667   0.1875000   0.1875000), wk =   0.0833333
        k(    7) = (   0.1666667   0.1875000   0.3125000), wk =   0.0833333
        k(    8) = (   0.1666667   0.1875000   0.4375000), wk =   0.0833333
        k(    9) = (   0.1666667   0.3125000   0.0625000), wk =   0.0833333
        k(   10) = (   0.1666667   0.3125000   0.1875000), wk =   0.0833333
        k(   11) = (   0.1666667   0.3125000   0.3125000), wk =   0.0833333
        k(   12) = (   0.1666667   0.3125000   0.4375000), wk =   0.0833333
        k(   13) = (   0.1666667   0.4375000   0.0625000), wk =   0.0833333
        k(   14) = (   0.1666667   0.4375000   0.1875000), wk =   0.0833333
        k(   15) = (   0.1666667   0.4375000   0.3125000), wk =   0.0833333
        k(   16) = (   0.1666667   0.4375000   0.4375000), wk =   0.0833333
        k(   17) = (  -0.5000000   0.0625000   0.0625000), wk =   0.0416667
        k(   18) = (  -0.5000000   0.0625000   0.1875000), wk =   0.0416667
        k(   19) = (  -0.5000000   0.0625000   0.3125000), wk =   0.0416667
        k(   20) = (  -0.5000000   0.0625000   0.4375000), wk =   0.0416667
        k(   21) = (  -0.5000000   0.1875000   0.0625000), wk =   0.0416667
        k(   22) = (  -0.5000000   0.1875000   0.1875000), wk =   0.0416667
        k(   23) = (  -0.5000000   0.1875000   0.3125000), wk =   0.0416667
        k(   24) = (  -0.5000000   0.1875000   0.4375000), wk =   0.0416667
        k(   25) = (  -0.5000000   0.3125000   0.0625000), wk =   0.0416667
        k(   26) = (  -0.5000000   0.3125000   0.1875000), wk =   0.0416667
        k(   27) = (  -0.5000000   0.3125000   0.3125000), wk =   0.0416667
        k(   28) = (  -0.5000000   0.3125000   0.4375000), wk =   0.0416667
        k(   29) = (  -0.5000000   0.4375000   0.0625000), wk =   0.0416667
        k(   30) = (  -0.5000000   0.4375000   0.1875000), wk =   0.0416667
        k(   31) = (  -0.5000000   0.4375000   0.3125000), wk =   0.0416667
        k(   32) = (  -0.5000000   0.4375000   0.4375000), wk =   0.0416667

     Dense  grid:   279635 G-vectors     FFT dimensions: ( 160,  60,  64)

     Smooth grid:    70791 G-vectors     FFT dimensions: ( 100,  36,  40)

     Dynamical RAM for                 wfc:       2.70 MB

     Dynamical RAM for     wfc (w. buffer):      32.38 MB

     Dynamical RAM for           str. fact:       4.27 MB

     Dynamical RAM for           local pot:       0.00 MB

     Dynamical RAM for          nlocal pot:       9.71 MB

     Dynamical RAM for                qrad:       3.59 MB

     Dynamical RAM for          rho,v,vnew:      13.43 MB

     Dynamical RAM for               rhoin:       4.48 MB

     Dynamical RAM for            rho*nmix:      34.14 MB

     Dynamical RAM for           G-vectors:       8.27 MB

     Dynamical RAM for          h,s,v(r/c):       0.29 MB

     Dynamical RAM for          <psi|beta>:       0.09 MB

     Dynamical RAM for                 psi:       5.40 MB

     Dynamical RAM for                hpsi:       5.40 MB

     Dynamical RAM for                spsi:       5.40 MB

     Dynamical RAM for      wfcinit/wfcrot:       7.08 MB

     Dynamical RAM for           addusdens:     136.54 MB

     Dynamical RAM for          addusforce:     140.47 MB

     Estimated static dynamical RAM per process >      94.25 MB

     Estimated max dynamical RAM per process >     268.85 MB

     Estimated total dynamical RAM >       1.44 GB

     Initial potential from superposition of free atoms

     starting charge      75.9995, renormalised to      80.0000
     Starting wfcs are   52 randomized atomic wfcs

     total cpu time spent up to now is        3.0 secs

     Self-consistent Calculation

     iteration #  1     ecut=    50.00 Ry     beta= 0.70
     Davidson diagonalization with overlap

---- Real-time Memory Report at c_bands before calling an iterative solver
           327 MiB given to the printing process from OS
             0 MiB allocation reported by mallinfo(arena+hblkhd)
         10795 MiB available memory on the node where the printing process lives
------------------
     ethr =  1.00E-02,  avg # of iterations =  2.0

     total cpu time spent up to now is        7.8 secs

     total energy              =    -826.63161429 Ry
     estimated scf accuracy    <       2.68892778 Ry

     iteration #  2     ecut=    50.00 Ry     beta= 0.70
     Davidson diagonalization with overlap

---- Real-time Memory Report at c_bands before calling an iterative solver
           419 MiB given to the printing process from OS
             0 MiB allocation reported by mallinfo(arena+hblkhd)
         10505 MiB available memory on the node where the printing process lives
------------------
     ethr =  3.36E-03,  avg # of iterations =  3.0

     total cpu time spent up to now is       13.0 secs

     total energy              =    -827.53721142 Ry
     estimated scf accuracy    <       0.99837977 Ry

     iteration #  3     ecut=    50.00 Ry     beta= 0.70
     Davidson diagonalization with overlap

---- Real-time Memory Report at c_bands before calling an iterative solver
           432 MiB given to the printing process from OS
             0 MiB allocation reported by mallinfo(arena+hblkhd)
         10399 MiB available memory on the node where the printing process lives
------------------
     ethr =  1.25E-03,  avg # of iterations =  2.6

     total cpu time spent up to now is       17.4 secs

     total energy              =    -827.73971282 Ry
     estimated scf accuracy    <       0.01051964 Ry

     iteration #  4     ecut=    50.00 Ry     beta= 0.70
     Davidson diagonalization with overlap

---- Real-time Memory Report at c_bands before calling an iterative solver
           450 MiB given to the printing process from OS
             0 MiB allocation reported by mallinfo(arena+hblkhd)
         10363 MiB available memory on the node where the printing process lives
------------------
     ethr =  1.31E-05,  avg # of iterations =  4.9

     total cpu time spent up to now is       23.3 secs

     total energy              =    -827.74638079 Ry
     estimated scf accuracy    <       0.00521565 Ry

     iteration #  5     ecut=    50.00 Ry     beta= 0.70
     Davidson diagonalization with overlap

---- Real-time Memory Report at c_bands before calling an iterative solver
           456 MiB given to the printing process from OS
             0 MiB allocation reported by mallinfo(arena+hblkhd)
         10350 MiB available memory on the node where the printing process lives
------------------
     ethr =  6.52E-06,  avg # of iterations =  3.0

     total cpu time spent up to now is       28.2 secs

     total energy              =    -827.74798854 Ry
     estimated scf accuracy    <       0.00060846 Ry

     iteration #  6     ecut=    50.00 Ry     beta= 0.70
     Davidson diagonalization with overlap

---- Real-time Memory Report at c_bands before calling an iterative solver
           457 MiB given to the printing process from OS
             0 MiB allocation reported by mallinfo(arena+hblkhd)
         10349 MiB available memory on the node where the printing process lives
------------------
     ethr =  7.61E-07,  avg # of iterations =  2.3

     total cpu time spent up to now is       32.6 secs

     total energy              =    -827.74794066 Ry
     estimated scf accuracy    <       0.00033681 Ry

     iteration #  7     ecut=    50.00 Ry     beta= 0.70
     Davidson diagonalization with overlap

---- Real-time Memory Report at c_bands before calling an iterative solver
           458 MiB given to the printing process from OS
             0 MiB allocation reported by mallinfo(arena+hblkhd)
         10347 MiB available memory on the node where the printing process lives
------------------
     ethr =  4.21E-07,  avg # of iterations =  2.0

     total cpu time spent up to now is       37.2 secs

     total energy              =    -827.74797998 Ry
     estimated scf accuracy    <       0.00001569 Ry

     iteration #  8     ecut=    50.00 Ry     beta= 0.70
     Davidson diagonalization with overlap

---- Real-time Memory Report at c_bands before calling an iterative solver
           459 MiB given to the printing process from OS
             0 MiB allocation reported by mallinfo(arena+hblkhd)
         10345 MiB available memory on the node where the printing process lives
------------------
     ethr =  1.96E-08,  avg # of iterations =  5.4

     total cpu time spent up to now is       43.5 secs

     total energy              =    -827.74799383 Ry
     estimated scf accuracy    <       0.00001605 Ry

     iteration #  9     ecut=    50.00 Ry     beta= 0.70
     Davidson diagonalization with overlap

---- Real-time Memory Report at c_bands before calling an iterative solver
           462 MiB given to the printing process from OS
             0 MiB allocation reported by mallinfo(arena+hblkhd)
         10338 MiB available memory on the node where the printing process lives
------------------
     ethr =  1.96E-08,  avg # of iterations =  2.0

     total cpu time spent up to now is       47.7 secs

     total energy              =    -827.74799581 Ry
     estimated scf accuracy    <       0.00000080 Ry

     iteration # 10     ecut=    50.00 Ry     beta= 0.70
     Davidson diagonalization with overlap

---- Real-time Memory Report at c_bands before calling an iterative solver
           464 MiB given to the printing process from OS
             0 MiB allocation reported by mallinfo(arena+hblkhd)
         10337 MiB available memory on the node where the printing process lives
------------------
     ethr =  1.00E-09,  avg # of iterations =  5.1

     total cpu time spent up to now is       53.7 secs

     total energy              =    -827.74799637 Ry
     estimated scf accuracy    <       0.00000003 Ry

     iteration # 11     ecut=    50.00 Ry     beta= 0.70
     Davidson diagonalization with overlap

---- Real-time Memory Report at c_bands before calling an iterative solver
           465 MiB given to the printing process from OS
             0 MiB allocation reported by mallinfo(arena+hblkhd)
         10337 MiB available memory on the node where the printing process lives
------------------
     ethr =  4.20E-11,  avg # of iterations =  5.1

     total cpu time spent up to now is       60.5 secs

     total energy              =    -827.74799638 Ry
     estimated scf accuracy    <       0.00000002 Ry

     iteration # 12     ecut=    50.00 Ry     beta= 0.70
     Davidson diagonalization with overlap

---- Real-time Memory Report at c_bands before calling an iterative solver
           466 MiB given to the printing process from OS
             0 MiB allocation reported by mallinfo(arena+hblkhd)
         10336 MiB available memory on the node where the printing process lives
------------------
     ethr =  2.44E-11,  avg # of iterations =  3.1

     total cpu time spent up to now is       65.2 secs

     End of self-consistent calculation

          k = 0.1667 0.1731 0.1585 (  8828 PWs)   bands (ev):

   -13.7608 -13.7519 -13.7481 -13.7450 -13.7443 -13.7422 -13.7383 -13.7368
   -13.7306 -13.7264 -13.7258 -13.7246 -13.7146 -13.7118 -13.6946 -13.6919
   -13.6876 -13.6860 -13.6777 -13.6724  -5.9838  -5.7054  -5.0208  -4.6440
     0.3707   1.2022   2.0300   2.4093   3.0059   4.2244   4.3666   4.6349
     4.8877   4.9364   5.5012   5.8082   6.0452   6.4219   6.8447   7.1380

     occupation numbers 
     1.0000   1.0000   1.0000   1.0000   1.0000   1.0000   1.0000   1.0000
     1.0000   1.0000   1.0000   1.0000   1.0000   1.0000   1.0000   1.0000
     1.0000   1.0000   1.0000   1.0000   1.0000   1.0000   1.0000   1.0000
     1.0000   1.0000   1.0000   1.0000   1.0000   1.0000   1.0000   1.0000
     1.0000   1.0000   1.0000   1.0000   1.0000   1.0000   1.0000   1.0000

          k = 0.1667 0.1731 0.4754 (  8831 PWs)   bands (ev):

   -13.7595 -13.7514 -13.7481 -13.7458 -13.7444 -13.7434 -13.7387 -13.7371
   -13.7306 -13.7267 -13.7237 -13.7220 -13.7140 -13.7118 -13.6947 -13.6913
   -13.6885 -13.6865 -13.6773 -13.6728  -5.8692  -5.6004  -5.0169  -4.6761
     0.0533   0.9380   1.5077   2.0762   3.0998   4.2719   4.4826   5.0010
     5.2135   5.4628   5.5099   5.9162   6.3119   6.6156   6.8923   7.1446

     occupation numbers 
     1.0000   1.0000   1.0000   1.0000   1.0000   1.0000   1.0000   1.0000
     1.0000   1.0000   1.0000   1.0000   1.0000   1.0000   1.0000   1.0000
     1.0000   1.0000   1.0000   1.0000   1.0000   1.0000   1.0000   1.0000
     1.0000   1.0000   1.0000   1.0000   1.0000   1.0000   1.0000   1.0000
     1.0000   1.0000   1.0000   1.0000   1.0000   1.0000   1.0000   1.0000

          k = 0.1667 0.1731 0.7923 (  8831 PWs)   bands (ev):

   -13.7572 -13.7511 -13.7483 -13.7472 -13.7449 -13.7444 -13.7393 -13.7380
   -13.7301 -13.7273 -13.7203 -13.7183 -13.7137 -13.7120 -13.6945 -13.6909
   -13.6894 -13.6873 -13.6766 -13.6736  -5.6634  -5.4136  -5.0478  -4.7633
    -0.2613   0.4331   1.0701   1.5918   3.4013   4.5029   4.7046   5.2779
     5.4822   5.6317   5.8757   6.0033   6.4795   6.9491   6.9705   7.3952

     occupation numbers 
     1.0000   1.0000   1.0000   1.0000   1.0000   1.0000   1.0000   1.0000
     1.0000   1.0000   1.0000   1.0000   1.0000   1.0000   1.0000   1.0000
     1.0000   1.0000   1.0000   1.0000   1.0000   1.0000   1.0000   1.0000
     1.0000   1.0000   1.0000   1.0000   1.0000   1.0000   1.0000   1.0000
     1.0000   1.0000   1.0000   1.0000   1.0000   1.0000   1.0000   1.0000

          k = 0.1667 0.1731 1.1092 (  8838 PWs)   bands (ev):

   -13.7546 -13.7522 -13.7484 -13.7480 -13.7455 -13.7450 -13.7395 -13.7390
   -13.7292 -13.7281 -13.7169 -13.7152 -13.7143 -13.7127 -13.6936 -13.6922
   -13.6889 -13.6881 -13.6756 -13.6746  -5.4189  -5.2490  -5.1016  -4.9235
    -0.3293  -0.0722   0.9703   1.1705   3.8723   4.3833   5.0738   5.3330
     5.5444   5.6653   5.9092   6.1992   6.7671   7.0852   7.2504   7.3364

     occupation numbers 
     1.0000   1.0000   1.0000   1.0000   1.0000   1.0000   1.0000   1.0000
     1.0000   1.0000   1.0000   1.0000   1.0000   1.0000   1.0000   1.0000
     1.0000   1.0000   1.0000   1.0000   1.0000   1.0000   1.0000   1.0000
     1.0000   1.0000   1.0000   1.0000   1.0000   1.0000   1.0000   1.0000
     1.0000   1.0000   1.0000   1.0000   1.0000   1.0000   1.0000   1.0000

          k = 0.1667 0.5192 0.1585 (  8847 PWs)   bands (ev):

   -13.7551 -13.7501 -13.7469 -13.7438 -13.7432 -13.7420 -13.7414 -13.7392
   -13.7324 -13.7290 -13.7248 -13.7215 -13.7129 -13.7119 -13.6939 -13.6920
   -13.6894 -13.6860 -13.6774 -13.6734  -5.8244  -5.5677  -4.9533  -4.6372
     0.2186   0.9446   1.7099   1.8174   3.1208   4.0992   4.3975   4.7104
     5.0175   5.1962   5.5196   5.8520   6.0925   6.7120   6.9633   7.0646

     occupation numbers 
     1.0000   1.0000   1.0000   1.0000   1.0000   1.0000   1.0000   1.0000
     1.0000   1.0000   1.0000   1.0000   1.0000   1.0000   1.0000   1.0000
     1.0000   1.0000   1.0000   1.0000   1.0000   1.0000   1.0000   1.0000
     1.0000   1.0000   1.0000   1.0000   1.0000   1.0000   1.0000   1.0000
     1.0000   1.0000   1.0000   1.0000   1.0000   1.0000   1.0000   1.0000

          k = 0.1667 0.5192 0.4754 (  8834 PWs)   bands (ev):

   -13.7550 -13.7500 -13.7484 -13.7444 -13.7434 -13.7423 -13.7409 -13.7401
   -13.7323 -13.7292 -13.7225 -13.7193 -13.7133 -13.7109 -13.6937 -13.6918
   -13.6897 -13.6868 -13.6771 -13.6737  -5.7155  -5.4691  -4.9471  -4.6595
     0.0584   0.8736   1.3614   1.7214   3.2532   3.6993   3.9816   4.7752
     4.9750   5.5262   5.7535   5.9036   6.5312   6.6598   6.9602   7.1376

     occupation numbers 
     1.0000   1.0000   1.0000   1.0000   1.0000   1.0000   1.0000   1.0000
     1.0000   1.0000   1.0000   1.0000   1.0000   1.0000   1.0000   1.0000
     1.0000   1.0000   1.0000   1.0000   1.0000   1.0000   1.0000   1.0000
     1.0000   1.0000   1.0000   1.0000   1.0000   1.0000   1.0000   1.0000
     1.0000   1.0000   1.0000   1.0000   1.0000   1.0000   1.0000   1.0000

          k = 0.1667 0.5192 0.7923 (  8827 PWs)   bands (ev):

   -13.7550 -13.7511 -13.7491 -13.7456 -13.7439 -13.7423 -13.7415 -13.7404
   -13.7316 -13.7295 -13.7195 -13.7162 -13.7132 -13.7103 -13.6931 -13.6913
   -13.6902 -13.6881 -13.6764 -13.6742  -5.5224  -5.2957  -4.9702  -4.7268
    -0.1220   0.5394   1.1013   1.4920   3.5113   3.6512   3.9311   4.6953
     4.8033   5.5612   5.6223   6.1828   6.3990   6.6501   6.8531   7.1312

     occupation numbers 
     1.0000   1.0000   1.0000   1.0000   1.0000   1.0000   1.0000   1.0000
     1.0000   1.0000   1.0000   1.0000   1.0000   1.0000   1.0000   1.0000
     1.0000   1.0000   1.0000   1.0000   1.0000   1.0000   1.0000   1.0000
     1.0000   1.0000   1.0000   1.0000   1.0000   1.0000   1.0000   1.0000
     1.0000   1.0000   1.0000   1.0000   1.0000   1.0000   1.0000   1.0000

          k = 0.1667 0.5192 1.1092 (  8849 PWs)   bands (ev):

   -13.7546 -13.7533 -13.7483 -13.7471 -13.7440 -13.7432 -13.7413 -13.7407
   -13.7307 -13.7301 -13.7167 -13.7151 -13.7121 -13.7106 -13.6922 -13.6913
   -13.6901 -13.6893 -13.6756 -13.6749  -5.2973  -5.1449  -5.0147  -4.8597
    -0.1374   0.1049   1.0778   1.2308   3.8293   3.8901   4.1571   4.4307
     4.7206   5.0489   5.6936   5.9785   6.3385   6.5837   6.8439   7.0299

     occupation numbers 
     1.0000   1.0000   1.0000   1.0000   1.0000   1.0000   1.0000   1.0000
     1.0000   1.0000   1.0000   1.0000   1.0000   1.0000   1.0000   1.0000
     1.0000   1.0000   1.0000   1.0000   1.0000   1.0000   1.0000   1.0000
     1.0000   1.0000   1.0000   1.0000   1.0000   1.0000   1.0000   1.0000
     1.0000   1.0000   1.0000   1.0000   1.0000   1.0000   1.0000   1.0000

          k = 0.1667 0.8653 0.1585 (  8858 PWs)   bands (ev):

   -13.7529 -13.7507 -13.7485 -13.7480 -13.7418 -13.7386 -13.7380 -13.7365
   -13.7316 -13.7312 -13.7248 -13.7179 -13.7138 -13.7089 -13.6976 -13.6967
   -13.6870 -13.6829 -13.6768 -13.6750  -5.5348  -5.3291  -4.8791  -4.6857
     0.0110   0.6120   0.9518   1.2587   3.4589   4.2177   4.5829   4.9176
     5.2810   5.3462   5.6674   5.8491   6.2228   6.6951   6.8007   7.1597

     occupation numbers 
     1.0000   1.0000   1.0000   1.0000   1.0000   1.0000   1.0000   1.0000
     1.0000   1.0000   1.0000   1.0000   1.0000   1.0000   1.0000   1.0000
     1.0000   1.0000   1.0000   1.0000   1.0000   1.0000   1.0000   1.0000
     1.0000   1.0000   1.0000   1.0000   1.0000   1.0000   1.0000   1.0000
     1.0000   1.0000   1.0000   1.0000   1.0000   1.0000   1.0000   1.0000

          k = 0.1667 0.8653 0.4754 (  8857 PWs)   bands (ev):

   -13.7554 -13.7525 -13.7500 -13.7485 -13.7424 -13.7380 -13.7375 -13.7364
   -13.7312 -13.7309 -13.7230 -13.7171 -13.7130 -13.7084 -13.6971 -13.6962
   -13.6870 -13.6836 -13.6766 -13.6751  -5.4398  -5.2449  -4.8648  -4.6856
     0.0489   0.7053   0.9792   1.1949   3.4619   3.5773   3.9238   4.5057
     4.9355   5.4925   5.5862   6.0289   6.1261   6.4594   6.6925   6.9253

     occupation numbers 
     1.0000   1.0000   1.0000   1.0000   1.0000   1.0000   1.0000   1.0000
     1.0000   1.0000   1.0000   1.0000   1.0000   1.0000   1.0000   1.0000
     1.0000   1.0000   1.0000   1.0000   1.0000   1.0000   1.0000   1.0000
     1.0000   1.0000   1.0000   1.0000   1.0000   1.0000   1.0000   1.0000
     1.0000   1.0000   1.0000   1.0000   1.0000   1.0000   1.0000   1.0000

          k = 0.1667 0.8653 0.7923 (  8848 PWs)   bands (ev):

   -13.7579 -13.7556 -13.7516 -13.7504 -13.7420 -13.7384 -13.7368 -13.7361
   -13.7305 -13.7304 -13.7206 -13.7165 -13.7110 -13.7078 -13.6962 -13.6955
   -13.6869 -13.6845 -13.6762 -13.6751  -5.2760  -5.1017  -4.8668  -4.7087
     0.1055   0.6630   1.0318   1.1984   3.0745   3.4093   3.8436   4.0964
     4.3941   4.9941   5.3027   5.6529   5.9529   6.2024   6.4108   6.8838

     occupation numbers 
     1.0000   1.0000   1.0000   1.0000   1.0000   1.0000   1.0000   1.0000
     1.0000   1.0000   1.0000   1.0000   1.0000   1.0000   1.0000   1.0000
     1.0000   1.0000   1.0000   1.0000   1.0000   1.0000   1.0000   1.0000
     1.0000   1.0000   1.0000   1.0000   1.0000   1.0000   1.0000   1.0000
     1.0000   1.0000   1.0000   1.0000   1.0000   1.0000   1.0000   1.0000

          k = 0.1667 0.8653 1.1092 (  8838 PWs)   bands (ev):

   -13.7592 -13.7583 -13.7526 -13.7521 -13.7409 -13.7395 -13.7363 -13.7361
   -13.7300 -13.7300 -13.7183 -13.7169 -13.7088 -13.7078 -13.6954 -13.6952
   -13.6864 -13.6855 -13.6757 -13.6753  -5.0947  -4.9814  -4.8886  -4.7828
     0.2062   0.4086   1.1605   1.2169   3.0894   3.4300   3.5034   3.8837
     4.2638   4.6711   5.0031   5.3983   5.6062   5.8617   6.4903   6.6318

     occupation numbers 
     1.0000   1.0000   1.0000   1.0000   1.0000   1.0000   1.0000   1.0000
     1.0000   1.0000   1.0000   1.0000   1.0000   1.0000   1.0000   1.0000
     1.0000   1.0000   1.0000   1.0000   1.0000   1.0000   1.0000   1.0000
     1.0000   1.0000   1.0000   1.0000   1.0000   1.0000   1.0000   1.0000
     1.0000   1.0000   1.0000   1.0000   1.0000   1.0000   1.0000   1.0000

          k = 0.1667 1.2114 0.1585 (  8861 PWs)   bands (ev):

   -13.7546 -13.7531 -13.7519 -13.7505 -13.7383 -13.7366 -13.7349 -13.7337
   -13.7294 -13.7271 -13.7260 -13.7207 -13.7100 -13.7058 -13.7036 -13.7017
   -13.6820 -13.6796 -13.6776 -13.6772  -5.1811  -5.0696  -4.8994  -4.8670
    -0.0255   0.2930   0.5110   0.7625   3.9766   4.4251   4.7987   5.1123
     5.2943   5.3493   5.7489   6.0117   6.3493   6.5434   6.6093   6.7721

     occupation numbers 
     1.0000   1.0000   1.0000   1.0000   1.0000   1.0000   1.0000   1.0000
     1.0000   1.0000   1.0000   1.0000   1.0000   1.0000   1.0000   1.0000
     1.0000   1.0000   1.0000   1.0000   1.0000   1.0000   1.0000   1.0000
     1.0000   1.0000   1.0000   1.0000   1.0000   1.0000   1.0000   1.0000
     1.0000   1.0000   1.0000   1.0000   1.0000   1.0000   1.0000   1.0000

          k = 0.1667 1.2114 0.4754 (  8876 PWs)   bands (ev):

   -13.7571 -13.7557 -13.7535 -13.7524 -13.7386 -13.7367 -13.7338 -13.7331
   -13.7290 -13.7273 -13.7242 -13.7203 -13.7091 -13.7062 -13.7017 -13.7007
   -13.6822 -13.6803 -13.6772 -13.6770  -5.1114  -5.0091  -4.8662  -4.8323
     0.1198   0.4311   0.6382   0.8160   3.7340   3.9282   4.1921   4.4777
     4.6455   5.0984   5.5381   5.7236   5.8435   6.1300   6.5848   6.8521

     occupation numbers 
     1.0000   1.0000   1.0000   1.0000   1.0000   1.0000   1.0000   1.0000
     1.0000   1.0000   1.0000   1.0000   1.0000   1.0000   1.0000   1.0000
     1.0000   1.0000   1.0000   1.0000   1.0000   1.0000   1.0000   1.0000
     1.0000   1.0000   1.0000   1.0000   1.0000   1.0000   1.0000   1.0000
     1.0000   1.0000   1.0000   1.0000   1.0000   1.0000   1.0000   1.0000

          k = 0.1667 1.2114 0.7923 (  8838 PWs)   bands (ev):

   -13.7604 -13.7593 -13.7557 -13.7550 -13.7386 -13.7371 -13.7329 -13.7324
   -13.7282 -13.7270 -13.7224 -13.7199 -13.7074 -13.7059 -13.6996 -13.6992
   -13.6823 -13.6811 -13.6768 -13.6767  -4.9989  -4.9141  -4.8267  -4.7889
     0.3656   0.6440   0.8386   0.8998   3.0886   3.5336   3.6328   3.9775
     4.1983   4.5609   4.8733   5.3369   5.4324   5.6998   6.4413   6.5861

     occupation numbers 
     1.0000   1.0000   1.0000   1.0000   1.0000   1.0000   1.0000   1.0000
     1.0000   1.0000   1.0000   1.0000   1.0000   1.0000   1.0000   1.0000
     1.0000   1.0000   1.0000   1.0000   1.0000   1.0000   1.0000   1.0000
     1.0000   1.0000   1.0000   1.0000   1.0000   1.0000   1.0000   1.0000
     1.0000   1.0000   1.0000   1.0000   1.0000   1.0000   1.0000   1.0000

          k = 0.1667 1.2114 1.1092 (  8845 PWs)   bands (ev):

   -13.7624 -13.7620 -13.7572 -13.7570 -13.7383 -13.7377 -13.7324 -13.7322
   -13.7273 -13.7269 -13.7210 -13.7201 -13.7060 -13.7056 -13.6983 -13.6982
   -13.6821 -13.6817 -13.6766 -13.6766  -4.8909  -4.8418  -4.8073  -4.7752
     0.6054   0.7252   1.0018   1.0331   2.8316   3.0346   3.4125   3.5697
     3.9934   4.0534   4.5428   4.8617   5.4046   5.5955   6.3193   6.3652

     occupation numbers 
     1.0000   1.0000   1.0000   1.0000   1.0000   1.0000   1.0000   1.0000
     1.0000   1.0000   1.0000   1.0000   1.0000   1.0000   1.0000   1.0000
     1.0000   1.0000   1.0000   1.0000   1.0000   1.0000   1.0000   1.0000
     1.0000   1.0000   1.0000   1.0000   1.0000   1.0000   1.0000   1.0000
     1.0000   1.0000   1.0000   1.0000   1.0000   1.0000   1.0000   1.0000

          k =-0.5000 0.1731 0.1585 (  8832 PWs)   bands (ev):

   -13.7569 -13.7569 -13.7463 -13.7463 -13.7435 -13.7435 -13.7371 -13.7371
   -13.7288 -13.7288 -13.7248 -13.7248 -13.7134 -13.7134 -13.6930 -13.6930
   -13.6869 -13.6869 -13.6749 -13.6749  -5.8693  -5.8693  -4.8077  -4.8077
     0.6639   0.6639   2.3204   2.3204   3.6460   3.6460   4.5413   4.5413
     4.9848   4.9848   5.5810   5.5810   5.9259   5.9259   7.0448   7.0448

     occupation numbers 
     1.0000   1.0000   1.0000   1.0000   1.0000   1.0000   1.0000   1.0000
     1.0000   1.0000   1.0000   1.0000   1.0000   1.0000   1.0000   1.0000
     1.0000   1.0000   1.0000   1.0000   1.0000   1.0000   1.0000   1.0000
     1.0000   1.0000   1.0000   1.0000   1.0000   1.0000   1.0000   1.0000
     1.0000   1.0000   1.0000   1.0000   1.0000   1.0000   1.0000   1.0000

          k =-0.5000 0.1731 0.4754 (  8818 PWs)   bands (ev):

   -13.7560 -13.7560 -13.7462 -13.7462 -13.7443 -13.7443 -13.7378 -13.7378
   -13.7287 -13.7287 -13.7226 -13.7226 -13.7131 -13.7131 -13.6929 -13.6929
   -13.6875 -13.6875 -13.6749 -13.6749  -5.7597  -5.7597  -4.8216  -4.8216
     0.3708   0.3708   1.8620   1.8620   3.8596   3.8596   4.6007   4.6007
     5.2855   5.2855   5.7316   5.7316   6.3841   6.3841   6.9429   6.9429

     occupation numbers 
     1.0000   1.0000   1.0000   1.0000   1.0000   1.0000   1.0000   1.0000
     1.0000   1.0000   1.0000   1.0000   1.0000   1.0000   1.0000   1.0000
     1.0000   1.0000   1.0000   1.0000   1.0000   1.0000   1.0000   1.0000
     1.0000   1.0000   1.0000   1.0000   1.0000   1.0000   1.0000   1.0000
     1.0000   1.0000   1.0000   1.0000   1.0000   1.0000   1.0000   1.0000

          k =-0.5000 0.1731 0.7923 (  8834 PWs)   bands (ev):

   -13.7546 -13.7546 -13.7472 -13.7472 -13.7448 -13.7448 -13.7389 -13.7389
   -13.7285 -13.7285 -13.7192 -13.7192 -13.7130 -13.7130 -13.6928 -13.6928
   -13.6883 -13.6883 -13.6750 -13.6750  -5.5654  -5.5654  -4.8789  -4.8789
     0.0294   0.0294   1.3220   1.3220   4.1764   4.1764   4.8803   4.8803
     5.4253   5.4253   5.9592   5.9592   6.5969   6.5969   7.1312   7.1312

     occupation numbers 
     1.0000   1.0000   1.0000   1.0000   1.0000   1.0000   1.0000   1.0000
     1.0000   1.0000   1.0000   1.0000   1.0000   1.0000   1.0000   1.0000
     1.0000   1.0000   1.0000   1.0000   1.0000   1.0000   1.0000   1.0000
     1.0000   1.0000   1.0000   1.0000   1.0000   1.0000   1.0000   1.0000
     1.0000   1.0000   1.0000   1.0000   1.0000   1.0000   1.0000   1.0000

          k =-0.5000 0.1731 1.1092 (  8836 PWs)   bands (ev):

   -13.7533 -13.7533 -13.7484 -13.7484 -13.7450 -13.7450 -13.7397 -13.7397
   -13.7283 -13.7283 -13.7162 -13.7162 -13.7135 -13.7135 -13.6927 -13.6927
   -13.6887 -13.6887 -13.6750 -13.6750  -5.3549  -5.3549  -4.9923  -4.9923
    -0.1661  -0.1661   0.9692   0.9692   4.5862   4.5862   5.1805   5.1805
     5.2607   5.2607   5.8086   5.8086   6.9839   6.9839   7.2604   7.2604

     occupation numbers 
     1.0000   1.0000   1.0000   1.0000   1.0000   1.0000   1.0000   1.0000
     1.0000   1.0000   1.0000   1.0000   1.0000   1.0000   1.0000   1.0000
     1.0000   1.0000   1.0000   1.0000   1.0000   1.0000   1.0000   1.0000
     1.0000   1.0000   1.0000   1.0000   1.0000   1.0000   1.0000   1.0000
     1.0000   1.0000   1.0000   1.0000   1.0000   1.0000   1.0000   1.0000

          k =-0.5000 0.5192 0.1585 (  8830 PWs)   bands (ev):

   -13.7526 -13.7526 -13.7458 -13.7458 -13.7429 -13.7429 -13.7399 -13.7399
   -13.7307 -13.7307 -13.7229 -13.7229 -13.7125 -13.7125 -13.6929 -13.6929
   -13.6877 -13.6877 -13.6753 -13.6753  -5.7182  -5.7182  -4.7726  -4.7726
     0.4919   0.4919   1.8135   1.8135   3.7739   3.7739   4.4205   4.4205
     5.2964   5.2964   5.4773   5.4773   6.1479   6.1479   7.1122   7.1122

     occupation numbers 
     1.0000   1.0000   1.0000   1.0000   1.0000   1.0000   1.0000   1.0000
     1.0000   1.0000   1.0000   1.0000   1.0000   1.0000   1.0000   1.0000
     1.0000   1.0000   1.0000   1.0000   1.0000   1.0000   1.0000   1.0000
     1.0000   1.0000   1.0000   1.0000   1.0000   1.0000   1.0000   1.0000
     1.0000   1.0000   1.0000   1.0000   1.0000   1.0000   1.0000   1.0000

          k =-0.5000 0.5192 0.4754 (  8836 PWs)   bands (ev):

   -13.7526 -13.7526 -13.7470 -13.7470 -13.7427 -13.7427 -13.7402 -13.7402
   -13.7305 -13.7305 -13.7209 -13.7209 -13.7121 -13.7121 -13.6927 -13.6927
   -13.6883 -13.6883 -13.6752 -13.6752  -5.6145  -5.6145  -4.7808  -4.7808
     0.3609   0.3609   1.5982   1.5982   3.7225   3.7225   4.2850   4.2850
     4.9597   4.9597   5.9396   5.9396   6.5322   6.5322   7.0447   7.0447

     occupation numbers 
     1.0000   1.0000   1.0000   1.0000   1.0000   1.0000   1.0000   1.0000
     1.0000   1.0000   1.0000   1.0000   1.0000   1.0000   1.0000   1.0000
     1.0000   1.0000   1.0000   1.0000   1.0000   1.0000   1.0000   1.0000
     1.0000   1.0000   1.0000   1.0000   1.0000   1.0000   1.0000   1.0000
     1.0000   1.0000   1.0000   1.0000   1.0000   1.0000   1.0000   1.0000

          k =-0.5000 0.5192 0.7923 (  8836 PWs)   bands (ev):

   -13.7529 -13.7529 -13.7486 -13.7486 -13.7426 -13.7426 -13.7405 -13.7405
   -13.7303 -13.7303 -13.7183 -13.7183 -13.7115 -13.7115 -13.6924 -13.6924
   -13.6892 -13.6892 -13.6751 -13.6751  -5.4329  -5.4329  -4.8247  -4.8247
     0.1572   0.1572   1.2968   1.2968   3.7160   3.7160   4.4565   4.4565
     4.8128   4.8128   6.0016   6.0016   6.3913   6.3913   7.0040   7.0040

     occupation numbers 
     1.0000   1.0000   1.0000   1.0000   1.0000   1.0000   1.0000   1.0000
     1.0000   1.0000   1.0000   1.0000   1.0000   1.0000   1.0000   1.0000
     1.0000   1.0000   1.0000   1.0000   1.0000   1.0000   1.0000   1.0000
     1.0000   1.0000   1.0000   1.0000   1.0000   1.0000   1.0000   1.0000
     1.0000   1.0000   1.0000   1.0000   1.0000   1.0000   1.0000   1.0000

          k =-0.5000 0.5192 1.1092 (  8842 PWs)   bands (ev):

   -13.7532 -13.7532 -13.7497 -13.7497 -13.7425 -13.7425 -13.7406 -13.7406
   -13.7302 -13.7302 -13.7165 -13.7165 -13.7110 -13.7110 -13.6920 -13.6920
   -13.6898 -13.6898 -13.6750 -13.6750  -5.2396  -5.2396  -4.9192  -4.9192
     0.0136   0.0136   1.0729   1.0729   3.9544   3.9544   4.3539   4.3539
     5.0569   5.0569   5.6012   5.6012   6.2761   6.2761   6.8303   6.8303

     occupation numbers 
     1.0000   1.0000   1.0000   1.0000   1.0000   1.0000   1.0000   1.0000
     1.0000   1.0000   1.0000   1.0000   1.0000   1.0000   1.0000   1.0000
     1.0000   1.0000   1.0000   1.0000   1.0000   1.0000   1.0000   1.0000
     1.0000   1.0000   1.0000   1.0000   1.0000   1.0000   1.0000   1.0000
     1.0000   1.0000   1.0000   1.0000   1.0000   1.0000   1.0000   1.0000

          k =-0.5000 0.8653 0.1585 (  8842 PWs)   bands (ev):

   -13.7523 -13.7523 -13.7476 -13.7476 -13.7400 -13.7400 -13.7381 -13.7381
   -13.7311 -13.7311 -13.7217 -13.7217 -13.7107 -13.7107 -13.6973 -13.6973
   -13.6848 -13.6848 -13.6759 -13.6759  -5.4484  -5.4484  -4.7654  -4.7654
     0.2590   0.2590   1.1112   1.1112   4.0609   4.0609   4.5981   4.5981
     5.4637   5.4637   5.6295   5.6295   6.1710   6.1710   6.9897   6.9897

     occupation numbers 
     1.0000   1.0000   1.0000   1.0000   1.0000   1.0000   1.0000   1.0000
     1.0000   1.0000   1.0000   1.0000   1.0000   1.0000   1.0000   1.0000
     1.0000   1.0000   1.0000   1.0000   1.0000   1.0000   1.0000   1.0000
     1.0000   1.0000   1.0000   1.0000   1.0000   1.0000   1.0000   1.0000
     1.0000   1.0000   1.0000   1.0000   1.0000   1.0000   1.0000   1.0000

          k =-0.5000 0.8653 0.4754 (  8848 PWs)   bands (ev):

   -13.7540 -13.7540 -13.7493 -13.7493 -13.7401 -13.7401 -13.7373 -13.7373
   -13.7306 -13.7306 -13.7207 -13.7207 -13.7100 -13.7100 -13.6970 -13.6970
   -13.6851 -13.6851 -13.6758 -13.6758  -5.3587  -5.3587  -4.7586  -4.7586
     0.3149   0.3149   1.1079   1.1079   3.6139   3.6139   4.3997   4.3997
     4.8765   4.8765   5.8828   5.8828   6.0957   6.0957   6.8843   6.8843

     occupation numbers 
     1.0000   1.0000   1.0000   1.0000   1.0000   1.0000   1.0000   1.0000
     1.0000   1.0000   1.0000   1.0000   1.0000   1.0000   1.0000   1.0000
     1.0000   1.0000   1.0000   1.0000   1.0000   1.0000   1.0000   1.0000
     1.0000   1.0000   1.0000   1.0000   1.0000   1.0000   1.0000   1.0000
     1.0000   1.0000   1.0000   1.0000   1.0000   1.0000   1.0000   1.0000

          k =-0.5000 0.8653 0.7923 (  8848 PWs)   bands (ev):

   -13.7564 -13.7564 -13.7517 -13.7517 -13.7399 -13.7399 -13.7366 -13.7366
   -13.7299 -13.7299 -13.7194 -13.7194 -13.7085 -13.7085 -13.6965 -13.6965
   -13.6854 -13.6854 -13.6756 -13.6756  -5.2060  -5.2060  -4.7706  -4.7706
     0.3495   0.3495   1.1159   1.1159   3.2658   3.2658   4.0685   4.0685
     4.6866   4.6866   5.3588   5.3588   5.9348   5.9348   6.7237   6.7237

     occupation numbers 
     1.0000   1.0000   1.0000   1.0000   1.0000   1.0000   1.0000   1.0000
     1.0000   1.0000   1.0000   1.0000   1.0000   1.0000   1.0000   1.0000
     1.0000   1.0000   1.0000   1.0000   1.0000   1.0000   1.0000   1.0000
     1.0000   1.0000   1.0000   1.0000   1.0000   1.0000   1.0000   1.0000
     1.0000   1.0000   1.0000   1.0000   1.0000   1.0000   1.0000   1.0000

          k =-0.5000 0.8653 1.1092 (  8840 PWs)   bands (ev):

   -13.7580 -13.7580 -13.7534 -13.7534 -13.7397 -13.7397 -13.7363 -13.7363
   -13.7295 -13.7295 -13.7186 -13.7186 -13.7073 -13.7073 -13.6961 -13.6961
   -13.6856 -13.6856 -13.6755 -13.6755  -5.0513  -5.0513  -4.8227  -4.8227
     0.3267   0.3267   1.1441   1.1441   3.2784   3.2784   3.6335   3.6335
     4.6846   4.6846   4.9945   4.9945   5.8829   5.8829   6.3855   6.3855

     occupation numbers 
     1.0000   1.0000   1.0000   1.0000   1.0000   1.0000   1.0000   1.0000
     1.0000   1.0000   1.0000   1.0000   1.0000   1.0000   1.0000   1.0000
     1.0000   1.0000   1.0000   1.0000   1.0000   1.0000   1.0000   1.0000
     1.0000   1.0000   1.0000   1.0000   1.0000   1.0000   1.0000   1.0000
     1.0000   1.0000   1.0000   1.0000   1.0000   1.0000   1.0000   1.0000

          k =-0.5000 1.2114 0.1585 (  8852 PWs)   bands (ev):

   -13.7535 -13.7535 -13.7518 -13.7518 -13.7364 -13.7364 -13.7357 -13.7357
   -13.7277 -13.7277 -13.7235 -13.7235 -13.7075 -13.7075 -13.7029 -13.7029
   -13.6807 -13.6807 -13.6775 -13.6775  -5.1320  -5.1320  -4.8770  -4.8770
     0.2121   0.2121   0.5131   0.5131   4.5258   4.5258   4.8727   4.8727
     5.3646   5.3646   5.6013   5.6013   6.2909   6.2909   6.6420   6.6420

     occupation numbers 
     1.0000   1.0000   1.0000   1.0000   1.0000   1.0000   1.0000   1.0000
     1.0000   1.0000   1.0000   1.0000   1.0000   1.0000   1.0000   1.0000
     1.0000   1.0000   1.0000   1.0000   1.0000   1.0000   1.0000   1.0000
     1.0000   1.0000   1.0000   1.0000   1.0000   1.0000   1.0000   1.0000
     1.0000   1.0000   1.0000   1.0000   1.0000   1.0000   1.0000   1.0000

          k =-0.5000 1.2114 0.4754 (  8850 PWs)   bands (ev):

   -13.7556 -13.7556 -13.7539 -13.7539 -13.7364 -13.7364 -13.7353 -13.7353
   -13.7270 -13.7270 -13.7230 -13.7230 -13.7065 -13.7065 -13.7021 -13.7021
   -13.6808 -13.6808 -13.6774 -13.6774  -5.0667  -5.0667  -4.8432  -4.8432
     0.3456   0.3456   0.6200   0.6200   3.8998   3.8998   4.4207   4.4207
     4.9503   4.9503   5.3921   5.3921   6.0492   6.0492   6.4826   6.4826

     occupation numbers 
     1.0000   1.0000   1.0000   1.0000   1.0000   1.0000   1.0000   1.0000
     1.0000   1.0000   1.0000   1.0000   1.0000   1.0000   1.0000   1.0000
     1.0000   1.0000   1.0000   1.0000   1.0000   1.0000   1.0000   1.0000
     1.0000   1.0000   1.0000   1.0000   1.0000   1.0000   1.0000   1.0000
     1.0000   1.0000   1.0000   1.0000   1.0000   1.0000   1.0000   1.0000

          k =-0.5000 1.2114 0.7923 (  8836 PWs)   bands (ev):

   -13.7585 -13.7585 -13.7568 -13.7568 -13.7365 -13.7365 -13.7350 -13.7350
   -13.7260 -13.7260 -13.7223 -13.7223 -13.7048 -13.7048 -13.7009 -13.7009
   -13.6809 -13.6809 -13.6773 -13.6773  -4.9630  -4.9630  -4.8015  -4.8015
     0.5459   0.5459   0.8041   0.8041   3.3297   3.3297   3.8409   3.8409
     4.3929   4.3929   4.8487   4.8487   5.9377   5.9377   6.3074   6.3074

     occupation numbers 
     1.0000   1.0000   1.0000   1.0000   1.0000   1.0000   1.0000   1.0000
     1.0000   1.0000   1.0000   1.0000   1.0000   1.0000   1.0000   1.0000
     1.0000   1.0000   1.0000   1.0000   1.0000   1.0000   1.0000   1.0000
     1.0000   1.0000   1.0000   1.0000   1.0000   1.0000   1.0000   1.0000
     1.0000   1.0000   1.0000   1.0000   1.0000   1.0000   1.0000   1.0000

          k =-0.5000 1.2114 1.1092 (  8830 PWs)   bands (ev):

   -13.7605 -13.7605 -13.7588 -13.7588 -13.7366 -13.7366 -13.7349 -13.7349
   -13.7253 -13.7253 -13.7217 -13.7217 -13.7036 -13.7036 -13.7000 -13.7000
   -13.6809 -13.6809 -13.6773 -13.6773  -4.8711  -4.8711  -4.7865  -4.7865
     0.6786   0.6786   0.9877   0.9877   3.1273   3.1273   3.3750   3.3750
     4.0284   4.0284   4.3294   4.3294   6.0324   6.0324   6.2176   6.2176

     occupation numbers 
     1.0000   1.0000   1.0000   1.0000   1.0000   1.0000   1.0000   1.0000
     1.0000   1.0000   1.0000   1.0000   1.0000   1.0000   1.0000   1.0000
     1.0000   1.0000   1.0000   1.0000   1.0000   1.0000   1.0000   1.0000
     1.0000   1.0000   1.0000   1.0000   1.0000   1.0000   1.0000   1.0000
     1.0000   1.0000   1.0000   1.0000   1.0000   1.0000   1.0000   1.0000

     highest occupied level (ev):     7.3952

!    total energy              =    -827.74799638 Ry
     estimated scf accuracy    <          3.8E-11 Ry

     The total energy is the sum of the following terms:
     one-electron contribution =    -266.49637779 Ry
     hartree contribution      =     182.42945786 Ry
     xc contribution           =    -308.98338379 Ry
     ewald contribution        =    -434.57792467 Ry
     DFT-D3 Dispersion         =      -0.11976798 Ry

     convergence has been achieved in  12 iterations

     Forces acting on atoms (cartesian axes, Ry/au):

     atom    1 type  2   force =    -0.00005855    0.00000000   -0.00040782
     atom    2 type  1   force =    -0.00005839    0.00000000   -0.00004061
     atom    3 type  2   force =     0.00005855   -0.00000000   -0.00040782
     atom    4 type  1   force =     0.00005839   -0.00000000   -0.00004061
     atom    5 type  2   force =    -0.00005855    0.00000000    0.00040782
     atom    6 type  1   force =    -0.00005839    0.00000000    0.00004061
     atom    7 type  2   force =     0.00005855    0.00000000    0.00040782
     atom    8 type  1   force =     0.00005839   -0.00000000    0.00004061
     The non-local contrib.  to forces
     atom    1 type  2   force =    -0.10303790    0.00000000    0.11351800
     atom    2 type  1   force =     0.34579806    0.00000000    0.30340256
     atom    3 type  2   force =     0.10303790    0.00000000    0.11351800
     atom    4 type  1   force =    -0.34579806    0.00000000    0.30340256
     atom    5 type  2   force =    -0.10303790    0.00000000   -0.11351800
     atom    6 type  1   force =     0.34579806    0.00000000   -0.30340256
     atom    7 type  2   force =     0.10303790    0.00000000   -0.11351800
     atom    8 type  1   force =    -0.34579806    0.00000000   -0.30340256
     The ionic contribution  to forces
     atom    1 type  2   force =     1.14615965   -0.00000000   -1.31171796
     atom    2 type  1   force =    -0.60882168   -0.00000000   -0.74656152
     atom    3 type  2   force =    -1.14615965    0.00000000   -1.31171796
     atom    4 type  1   force =     0.60882168   -0.00000000   -0.74656152
     atom    5 type  2   force =     1.14615965    0.00000000    1.31171796
     atom    6 type  1   force =    -0.60882168   -0.00000000    0.74656152
     atom    7 type  2   force =    -1.14615965   -0.00000000    1.31171796
     atom    8 type  1   force =     0.60882168   -0.00000000    0.74656152
     The local contribution  to forces
     atom    1 type  2   force =    -1.05405485    0.00000000    1.20869219
     atom    2 type  1   force =     0.26989104    0.00000000    0.44715878
     atom    3 type  2   force =     1.05405485    0.00000000    1.20869219
     atom    4 type  1   force =    -0.26989104    0.00000000    0.44715878
     atom    5 type  2   force =    -1.05405485    0.00000000   -1.20869219
     atom    6 type  1   force =     0.26989104    0.00000000   -0.44715878
     atom    7 type  2   force =     1.05405485    0.00000000   -1.20869219
     atom    8 type  1   force =    -0.26989104    0.00000000   -0.44715878
     The core correction contribution to forces
     atom    1 type  2   force =     0.01155098    0.00000000   -0.01255950
     atom    2 type  1   force =    -0.00627926    0.00000000   -0.00500135
     atom    3 type  2   force =    -0.01155098   -0.00000000   -0.01255950
     atom    4 type  1   force =     0.00627926    0.00000000   -0.00500135
     atom    5 type  2   force =     0.01155098    0.00000000    0.01255950
     atom    6 type  1   force =    -0.00627926    0.00000000    0.00500135
     atom    7 type  2   force =    -0.01155098    0.00000000    0.01255950
     atom    8 type  1   force =     0.00627926    0.00000000    0.00500135
     The Hubbard contrib.    to forces
     atom    1 type  2   force =     0.00000000    0.00000000    0.00000000
     atom    2 type  1   force =     0.00000000    0.00000000    0.00000000
     atom    3 type  2   force =     0.00000000    0.00000000    0.00000000
     atom    4 type  1   force =     0.00000000    0.00000000    0.00000000
     atom    5 type  2   force =     0.00000000    0.00000000    0.00000000
     atom    6 type  1   force =     0.00000000    0.00000000    0.00000000
     atom    7 type  2   force =     0.00000000    0.00000000    0.00000000
     atom    8 type  1   force =     0.00000000    0.00000000    0.00000000
     The SCF correction term to forces
     atom    1 type  2   force =     0.00000179   -0.00000000   -0.00000098
     atom    2 type  1   force =    -0.00001963    0.00000000   -0.00001025
     atom    3 type  2   force =    -0.00000179   -0.00000000   -0.00000098
     atom    4 type  1   force =     0.00001963   -0.00000000   -0.00001025
     atom    5 type  2   force =     0.00000179   -0.00000000    0.00000098
     atom    6 type  1   force =    -0.00001963   -0.00000000    0.00001025
     atom    7 type  2   force =    -0.00000179    0.00000000    0.00000098
     atom    8 type  1   force =     0.00001963   -0.00000000    0.00001025

     DFT-D3 dispersion contribution to forces:
     atom    1 type  2   force =    -0.00067823    0.00000000    0.00166043
     atom    2 type  1   force =    -0.00062692    0.00000000    0.00097119
     atom    3 type  2   force =     0.00067823    0.00000000    0.00166043
     atom    4 type  1   force =     0.00062692    0.00000000    0.00097119
     atom    5 type  2   force =    -0.00067823    0.00000000   -0.00166043
     atom    6 type  1   force =    -0.00062692    0.00000000   -0.00097119
     atom    7 type  2   force =     0.00067823   -0.00000000   -0.00166043
     atom    8 type  1   force =     0.00062692    0.00000000   -0.00097119

     Total force =     0.000836     Total SCF correction =     0.000044

     DFT-D3 dispersion Force =     0.004268

     Writing all to output data dir ./tmp/SnSe_pnma.save/ :
     XML data file, charge density, pseudopotentials, collected wavefunctions
 
     init_run     :      2.28s CPU      2.47s WALL (       1 calls)
     electrons    :     58.55s CPU     62.28s WALL (       1 calls)
     forces       :      1.19s CPU      1.36s WALL (       1 calls)
     force_dftd3  :      0.05s CPU      0.05s WALL (       1 calls)

     Called by init_run:
     wfcinit      :      1.29s CPU      1.31s WALL (       1 calls)
     wfcinit:atom :      0.02s CPU      0.02s WALL (      11 calls)
     wfcinit:wfcr :      1.11s CPU      1.13s WALL (      11 calls)
     potinit      :      0.27s CPU      0.29s WALL (       1 calls)
     hinit0       :      0.18s CPU      0.20s WALL (       1 calls)

     Called by electrons:
     c_bands      :     42.88s CPU     43.28s WALL (      12 calls)
     sum_band     :     10.58s CPU     12.16s WALL (      12 calls)
     v_of_rho     :      1.81s CPU      1.85s WALL (      13 calls)
     v_h          :      0.14s CPU      0.14s WALL (      13 calls)
     v_xc         :      1.81s CPU      1.86s WALL (      14 calls)
     newd         :      3.42s CPU      5.19s WALL (      13 calls)
     mix_rho      :      0.21s CPU      0.21s WALL (      12 calls)
     energy_dftd3 :      0.04s CPU      0.04s WALL (       1 calls)

     Called by c_bands:
     init_us_2    :      1.26s CPU      1.28s WALL (     286 calls)
     cegterg      :     37.44s CPU     37.66s WALL (     132 calls)

     Called by sum_band:
     sum_band:wei :      0.00s CPU      0.00s WALL (      12 calls)
     sum_band:loo :      6.56s CPU      6.58s WALL (      12 calls)
     sum_band:buf :      0.08s CPU      0.08s WALL (     132 calls)
     sum_band:ini :      0.55s CPU      0.55s WALL (     132 calls)
     sum_band:cal :      0.77s CPU      0.77s WALL (     132 calls)
     sum_band:bec :      0.01s CPU      0.01s WALL (     132 calls)
     addusdens    :      3.31s CPU      4.80s WALL (      12 calls)
                                        0.00s GPU  (      12 calls)
     addusd:skk   :      0.01s CPU      0.02s WALL (      24 calls)
                                        0.00s GPU  (      24 calls)

     Called by *egterg:
     cdiaghg      :      0.92s CPU      0.93s WALL (     587 calls)
     cegterg:over :      1.86s CPU      1.88s WALL (     455 calls)
     cegterg:upda :      1.07s CPU      1.09s WALL (     455 calls)
     cegterg:last :      2.71s CPU      2.72s WALL (     337 calls)
     h_psi        :     27.98s CPU     28.14s WALL (     598 calls)
     s_psi        :      2.80s CPU      2.82s WALL (     598 calls)
     g_psi        :      0.11s CPU      0.11s WALL (     455 calls)

     Called by h_psi:
     h_psi:calbec :      2.54s CPU      2.56s WALL (     598 calls)
     vloc_psi     :     22.38s CPU     22.52s WALL (     598 calls)
     add_vuspsi   :      2.82s CPU      2.83s WALL (     598 calls)

     General routines
     calbec       :      3.67s CPU      3.69s WALL (     774 calls)
     fft          :      0.93s CPU      0.95s WALL (     178 calls)
     ffts         :      0.02s CPU      0.02s WALL (      25 calls)
     fftw         :     14.73s CPU     14.80s WALL (   38118 calls)
     interpolate  :      0.10s CPU      0.10s WALL (      13 calls)
 
     Parallel routines
 
     PWSCF        :   1m 2.56s CPU   1m 7.34s WALL

 
   This run was terminated on:  22: 9:44  19May2026            

=------------------------------------------------------------------------------=
   JOB DONE.
=------------------------------------------------------------------------------=
