
     Program PWSCF v.7.3.1 starts on 20May2026 at 19:47:48 

     This program is part of the open-source Quantum ESPRESSO suite
     for quantum simulation of materials; please cite
         "P. Giannozzi et al., J. Phys.:Condens. Matter 21 395502 (2009);
         "P. Giannozzi et al., J. Phys.:Condens. Matter 29 465901 (2017);
         "P. Giannozzi et al., J. Chem. Phys. 152 154105 (2020);
          URL http://www.quantum-espresso.org", 
     in publications or presentations arising from this work. More details at
     http://www.quantum-espresso.org/quote

     Parallel version (MPI & OpenMP), running on       6 processor cores
     Number of MPI processes:                 6
     Threads/MPI process:                     1

     MPI processes distributed on     1 nodes
     5401 MiB available memory on the printing compute node when the environment starts
 
     Waiting for input...
     Reading input from standard input

     Current dimensions of program PWSCF are:
     Max number of different atomic species (ntypx) = 10
     Max number of k-points (npk) =  40000
     Max angular momentum in pseudopotentials (lmaxx) =  4
 
     K-points division:     npool     =       3
     R & G space division:  proc/nbgrp/npool/nimage =       2
     Subspace diagonalization in iterative solution of the eigenvalue problem:
     a serial algorithm will be used

 
     Parallelization info
     --------------------
     sticks:   dense  smooth     PW     G-vecs:    dense   smooth      PW
     Min        4058    1626    462               181841    46001    6927
     Max        4059    1627    463               181842    46002    6928
     Sum        8117    3253    925               363683    92003   13855
 
     Using Slab Decomposition
 


     bravais-lattice index     =            8
     lattice parameter (alat)  =      21.5807  a.u.
     unit-cell volume          =    1464.4704 (a.u.)^3
     number of atoms/cell      =            8
     number of atomic types    =            2
     number of electrons       =        80.00
     number of Kohn-Sham states=           40
     kinetic-energy cutoff     =      60.0000  Ry
     charge density cutoff     =     600.0000  Ry
     scf convergence threshold =      1.0E-08
     mixing beta               =       0.7000
     number of iterations used =            8  plain     mixing
     Exchange-correlation= SLA  PW   PBE  PBE
                           (   1   4   3   4   0   0   0)

     celldm(1)=  21.580672  celldm(2)=   0.365271  celldm(3)=   0.398905
     celldm(4)=   0.000000  celldm(5)=   0.000000  celldm(6)=   0.000000

     crystal axes: (cart. coord. in units of alat)
               a(1) = (   1.000000   0.000000   0.000000 )  
               a(2) = (   0.000000   0.365271   0.000000 )  
               a(3) = (   0.000000   0.000000   0.398905 )  

     reciprocal axes: (cart. coord. in units 2 pi/alat)
               b(1) = (  1.000000  0.000000  0.000000 )  
               b(2) = (  0.000000  2.737690  0.000000 )  
               b(3) = (  0.000000  0.000000  2.506860 )  


     PseudoPot. # 1 for Sn read from file:
     ../pseudo/Sn_pbe_v1.uspp.F.UPF
     MD5 check sum: 4cf58ce39ec5d5d420df3dd08604eb00
     Pseudo is Ultrasoft + core correction, Zval = 14.0
     Generated by new atomic code, or converted to UPF format
     Using radial grid of  891 points,  6 beta functions with: 
                l(1) =   0
                l(2) =   0
                l(3) =   1
                l(4) =   1
                l(5) =   2
                l(6) =   2
     Q(r) pseudized with  6 coefficients,  rinner =    1.200   1.200   1.200
                                                       1.200   1.200

     PseudoPot. # 2 for Se read from file:
     ../pseudo/Se_pbe_v1.uspp.F.UPF
     MD5 check sum: 1b3568f3a8ae88f9a2a0ad0698632c85
     Pseudo is Ultrasoft + core correction, Zval =  6.0
     Generated by new atomic code, or converted to UPF format
     Using radial grid of  877 points,  6 beta functions with: 
                l(1) =   0
                l(2) =   0
                l(3) =   1
                l(4) =   1
                l(5) =   2
                l(6) =   2
     Q(r) pseudized with  8 coefficients,  rinner =    1.300   1.300   1.300
                                                       1.300   1.300

     atomic species   valence    mass     pseudopotential
     Sn               14.00   118.71000     Sn( 1.00)
     Se                6.00    78.97100     Se( 1.00)

      8 Sym. Ops., with inversion, found ( 6 have fractional translation)


                                    s                        frac. trans.

      isym =  1     identity                                     

 cryst.   s( 1) = (     1          0          0      )
                  (     0          1          0      )
                  (     0          0          1      )

 cart.    s( 1) = (  1.0000000  0.0000000  0.0000000 )
                  (  0.0000000  1.0000000  0.0000000 )
                  (  0.0000000  0.0000000  1.0000000 )


      isym =  2     180 deg rotation - cart. axis [0,0,1]        

 cryst.   s( 2) = (    -1          0          0      )    f =(  0.5000000 )
                  (     0         -1          0      )       (  0.0000000 )
                  (     0          0          1      )       ( -0.5000000 )

 cart.    s( 2) = ( -1.0000000  0.0000000  0.0000000 )    f =(  0.5000000 )
                  (  0.0000000 -1.0000000  0.0000000 )       (  0.0000000 )
                  (  0.0000000  0.0000000  1.0000000 )       ( -0.1994527 )


      isym =  3     180 deg rotation - cart. axis [0,1,0]        

 cryst.   s( 3) = (    -1          0          0      )    f =(  0.0000000 )
                  (     0          1          0      )       ( -0.5000000 )
                  (     0          0         -1      )       (  0.0000000 )

 cart.    s( 3) = ( -1.0000000  0.0000000  0.0000000 )    f =(  0.0000000 )
                  (  0.0000000  1.0000000  0.0000000 )       ( -0.1826357 )
                  (  0.0000000  0.0000000 -1.0000000 )       (  0.0000000 )


      isym =  4     180 deg rotation - cart. axis [1,0,0]        

 cryst.   s( 4) = (     1          0          0      )    f =(  0.5000000 )
                  (     0         -1          0      )       (  0.5000000 )
                  (     0          0         -1      )       ( -0.5000000 )

 cart.    s( 4) = (  1.0000000  0.0000000  0.0000000 )    f =(  0.5000000 )
                  (  0.0000000 -1.0000000  0.0000000 )       (  0.1826357 )
                  (  0.0000000  0.0000000 -1.0000000 )       ( -0.1994527 )


      isym =  5     inversion                                    

 cryst.   s( 5) = (    -1          0          0      )
                  (     0         -1          0      )
                  (     0          0         -1      )

 cart.    s( 5) = ( -1.0000000  0.0000000  0.0000000 )
                  (  0.0000000 -1.0000000  0.0000000 )
                  (  0.0000000  0.0000000 -1.0000000 )


      isym =  6     inv. 180 deg rotation - cart. axis [0,0,1]   

 cryst.   s( 6) = (     1          0          0      )    f =(  0.5000000 )
                  (     0          1          0      )       (  0.0000000 )
                  (     0          0         -1      )       ( -0.5000000 )

 cart.    s( 6) = (  1.0000000  0.0000000  0.0000000 )    f =(  0.5000000 )
                  (  0.0000000  1.0000000  0.0000000 )       (  0.0000000 )
                  (  0.0000000  0.0000000 -1.0000000 )       ( -0.1994527 )


      isym =  7     inv. 180 deg rotation - cart. axis [0,1,0]   

 cryst.   s( 7) = (     1          0          0      )    f =(  0.0000000 )
                  (     0         -1          0      )       (  0.5000000 )
                  (     0          0          1      )       (  0.0000000 )

 cart.    s( 7) = (  1.0000000  0.0000000  0.0000000 )    f =(  0.0000000 )
                  (  0.0000000 -1.0000000  0.0000000 )       (  0.1826357 )
                  (  0.0000000  0.0000000  1.0000000 )       (  0.0000000 )


      isym =  8     inv. 180 deg rotation - cart. axis [1,0,0]   

 cryst.   s( 8) = (    -1          0          0      )    f =(  0.5000000 )
                  (     0          1          0      )       ( -0.5000000 )
                  (     0          0          1      )       ( -0.5000000 )

 cart.    s( 8) = ( -1.0000000  0.0000000  0.0000000 )    f =(  0.5000000 )
                  (  0.0000000  1.0000000  0.0000000 )       ( -0.1826357 )
                  (  0.0000000  0.0000000  1.0000000 )       ( -0.1994527 )


     point group D_2h (mmm) 
     there are  8 classes
     the character table:

       E     C2    C2'   C2''  i     s_v   s_v'  s_v''
A_g    1.00  1.00  1.00  1.00  1.00  1.00  1.00  1.00
B_1g   1.00  1.00 -1.00 -1.00  1.00  1.00 -1.00 -1.00
B_2g   1.00 -1.00  1.00 -1.00  1.00 -1.00  1.00 -1.00
B_3g   1.00 -1.00 -1.00  1.00  1.00 -1.00 -1.00  1.00
A_u    1.00  1.00  1.00  1.00 -1.00 -1.00 -1.00 -1.00
B_1u   1.00  1.00 -1.00 -1.00 -1.00 -1.00  1.00  1.00
B_2u   1.00 -1.00  1.00 -1.00 -1.00  1.00 -1.00  1.00
B_3u   1.00 -1.00 -1.00  1.00 -1.00  1.00  1.00 -1.00

     the symmetry operations in each class and the name of the first element:

     E        1
          identity                                               
     C2       2
          180 deg rotation - cart. axis [0,0,1]                  
     C2'      4
          180 deg rotation - cart. axis [1,0,0]                  
     C2''     3
          180 deg rotation - cart. axis [0,1,0]                  
     i        5
          inversion                                              
     s_v      6
          inv. 180 deg rotation - cart. axis [0,0,1]             
     s_v'     8
          inv. 180 deg rotation - cart. axis [1,0,0]             
     s_v''    7
          inv. 180 deg rotation - cart. axis [0,1,0]             

   Cartesian axes

     site n.     atom                  positions (alat units)
         1        Se     tau(   1) = (   0.8549563   0.0913179   0.1927703  )
         2        Sn     tau(   2) = (   0.1165395   0.0913179   0.0447919  )
         3        Se     tau(   3) = (   0.6450437   0.2739536   0.3922230  )
         4        Sn     tau(   4) = (   0.3834605   0.2739536   0.2442446  )
         5        Se     tau(   5) = (   0.3549563   0.0913179   0.0066824  )
         6        Sn     tau(   6) = (   0.6165395   0.0913179   0.1546608  )
         7        Se     tau(   7) = (   0.1450437   0.2739536   0.2061352  )
         8        Sn     tau(   8) = (   0.8834605   0.2739536   0.3541135  )

     --------------------------------------------
     DFT-D3 Dispersion Correction (3-body terms):
     --------------------------------------------
       Reference C6 values for interpolation: 

         atom   Coordination number   C6
         Se         0.000           427.35
         Se         0.990           427.57
         Se         1.981           421.05
         Sn         0.000          1255.14
         Sn         0.951          1084.09
         Sn         1.950          1010.83
         Sn         2.926           818.29
         Sn         3.912           672.20

       Values used:

         atom   Coordination number  R0_AB[au]  C6      C8
         Se         3.460            3.332    421.05  29958.36
         Sn         4.197            3.957    672.50  84406.04
         Se         3.460            3.332    421.05  29958.36
         Sn         4.197            3.957    672.50  84406.04
         Se         3.460            3.332    421.05  29958.36
         Sn         4.197            3.957    672.50  84406.04
         Se         3.460            3.332    421.05  29958.36
         Sn         4.197            3.957    672.50  84406.04

         Molecular C6 ( Ry / a.u.^6 ) =     34504.58


   Crystallographic axes

     site n.     atom                  positions (cryst. coord.)
         1        Se     tau(   1) = (  0.8549563  0.2500000  0.4832481  )
         2        Sn     tau(   2) = (  0.1165395  0.2500000  0.1122870  )
         3        Se     tau(   3) = (  0.6450437  0.7500000  0.9832481  )
         4        Sn     tau(   4) = (  0.3834605  0.7500000  0.6122870  )
         5        Se     tau(   5) = (  0.3549563  0.2500000  0.0167519  )
         6        Sn     tau(   6) = (  0.6165395  0.2500000  0.3877130  )
         7        Se     tau(   7) = (  0.1450437  0.7500000  0.5167519  )
         8        Sn     tau(   8) = (  0.8834605  0.7500000  0.8877130  )

     number of k points=    32
                       cart. coord. in units 2pi/alat
        k(    1) = (   0.1666667   0.1711056   0.1566787), wk =   0.0833333
        k(    2) = (   0.1666667   0.1711056   0.4700362), wk =   0.0833333
        k(    3) = (   0.1666667   0.1711056   0.7833937), wk =   0.0833333
        k(    4) = (   0.1666667   0.1711056   1.0967512), wk =   0.0833333
        k(    5) = (   0.1666667   0.5133169   0.1566787), wk =   0.0833333
        k(    6) = (   0.1666667   0.5133169   0.4700362), wk =   0.0833333
        k(    7) = (   0.1666667   0.5133169   0.7833937), wk =   0.0833333
        k(    8) = (   0.1666667   0.5133169   1.0967512), wk =   0.0833333
        k(    9) = (   0.1666667   0.8555281   0.1566787), wk =   0.0833333
        k(   10) = (   0.1666667   0.8555281   0.4700362), wk =   0.0833333
        k(   11) = (   0.1666667   0.8555281   0.7833937), wk =   0.0833333
        k(   12) = (   0.1666667   0.8555281   1.0967512), wk =   0.0833333
        k(   13) = (   0.1666667   1.1977394   0.1566787), wk =   0.0833333
        k(   14) = (   0.1666667   1.1977394   0.4700362), wk =   0.0833333
        k(   15) = (   0.1666667   1.1977394   0.7833937), wk =   0.0833333
        k(   16) = (   0.1666667   1.1977394   1.0967512), wk =   0.0833333
        k(   17) = (  -0.5000000   0.1711056   0.1566787), wk =   0.0416667
        k(   18) = (  -0.5000000   0.1711056   0.4700362), wk =   0.0416667
        k(   19) = (  -0.5000000   0.1711056   0.7833937), wk =   0.0416667
        k(   20) = (  -0.5000000   0.1711056   1.0967512), wk =   0.0416667
        k(   21) = (  -0.5000000   0.5133169   0.1566787), wk =   0.0416667
        k(   22) = (  -0.5000000   0.5133169   0.4700362), wk =   0.0416667
        k(   23) = (  -0.5000000   0.5133169   0.7833937), wk =   0.0416667
        k(   24) = (  -0.5000000   0.5133169   1.0967512), wk =   0.0416667
        k(   25) = (  -0.5000000   0.8555281   0.1566787), wk =   0.0416667
        k(   26) = (  -0.5000000   0.8555281   0.4700362), wk =   0.0416667
        k(   27) = (  -0.5000000   0.8555281   0.7833937), wk =   0.0416667
        k(   28) = (  -0.5000000   0.8555281   1.0967512), wk =   0.0416667
        k(   29) = (  -0.5000000   1.1977394   0.1566787), wk =   0.0416667
        k(   30) = (  -0.5000000   1.1977394   0.4700362), wk =   0.0416667
        k(   31) = (  -0.5000000   1.1977394   0.7833937), wk =   0.0416667
        k(   32) = (  -0.5000000   1.1977394   1.0967512), wk =   0.0416667

                       cryst. coord.
        k(    1) = (   0.1666667   0.0625000   0.0625000), wk =   0.0833333
        k(    2) = (   0.1666667   0.0625000   0.1875000), wk =   0.0833333
        k(    3) = (   0.1666667   0.0625000   0.3125000), wk =   0.0833333
        k(    4) = (   0.1666667   0.0625000   0.4375000), wk =   0.0833333
        k(    5) = (   0.1666667   0.1875000   0.0625000), wk =   0.0833333
        k(    6) = (   0.1666667   0.1875000   0.1875000), wk =   0.0833333
        k(    7) = (   0.1666667   0.1875000   0.3125000), wk =   0.0833333
        k(    8) = (   0.1666667   0.1875000   0.4375000), wk =   0.0833333
        k(    9) = (   0.1666667   0.3125000   0.0625000), wk =   0.0833333
        k(   10) = (   0.1666667   0.3125000   0.1875000), wk =   0.0833333
        k(   11) = (   0.1666667   0.3125000   0.3125000), wk =   0.0833333
        k(   12) = (   0.1666667   0.3125000   0.4375000), wk =   0.0833333
        k(   13) = (   0.1666667   0.4375000   0.0625000), wk =   0.0833333
        k(   14) = (   0.1666667   0.4375000   0.1875000), wk =   0.0833333
        k(   15) = (   0.1666667   0.4375000   0.3125000), wk =   0.0833333
        k(   16) = (   0.1666667   0.4375000   0.4375000), wk =   0.0833333
        k(   17) = (  -0.5000000   0.0625000   0.0625000), wk =   0.0416667
        k(   18) = (  -0.5000000   0.0625000   0.1875000), wk =   0.0416667
        k(   19) = (  -0.5000000   0.0625000   0.3125000), wk =   0.0416667
        k(   20) = (  -0.5000000   0.0625000   0.4375000), wk =   0.0416667
        k(   21) = (  -0.5000000   0.1875000   0.0625000), wk =   0.0416667
        k(   22) = (  -0.5000000   0.1875000   0.1875000), wk =   0.0416667
        k(   23) = (  -0.5000000   0.1875000   0.3125000), wk =   0.0416667
        k(   24) = (  -0.5000000   0.1875000   0.4375000), wk =   0.0416667
        k(   25) = (  -0.5000000   0.3125000   0.0625000), wk =   0.0416667
        k(   26) = (  -0.5000000   0.3125000   0.1875000), wk =   0.0416667
        k(   27) = (  -0.5000000   0.3125000   0.3125000), wk =   0.0416667
        k(   28) = (  -0.5000000   0.3125000   0.4375000), wk =   0.0416667
        k(   29) = (  -0.5000000   0.4375000   0.0625000), wk =   0.0416667
        k(   30) = (  -0.5000000   0.4375000   0.1875000), wk =   0.0416667
        k(   31) = (  -0.5000000   0.4375000   0.3125000), wk =   0.0416667
        k(   32) = (  -0.5000000   0.4375000   0.4375000), wk =   0.0416667

     Dense  grid:   363683 G-vectors     FFT dimensions: ( 180,  64,  72)

     Smooth grid:    92003 G-vectors     FFT dimensions: ( 108,  40,  48)

     Dynamical RAM for                 wfc:       3.51 MB

     Dynamical RAM for     wfc (w. buffer):      42.09 MB

     Dynamical RAM for           str. fact:       5.55 MB

     Dynamical RAM for           local pot:       0.00 MB

     Dynamical RAM for          nlocal pot:      12.63 MB

     Dynamical RAM for                qrad:       3.93 MB

     Dynamical RAM for          rho,v,vnew:      17.82 MB

     Dynamical RAM for               rhoin:       5.94 MB

     Dynamical RAM for            rho*nmix:      44.40 MB

     Dynamical RAM for           G-vectors:      10.76 MB

     Dynamical RAM for          h,s,v(r/c):       0.29 MB

     Dynamical RAM for          <psi|beta>:       0.09 MB

     Dynamical RAM for                 psi:       7.02 MB

     Dynamical RAM for                hpsi:       7.02 MB

     Dynamical RAM for                spsi:       7.02 MB

     Dynamical RAM for      wfcinit/wfcrot:       9.18 MB

     Dynamical RAM for           addusdens:     177.58 MB

     Dynamical RAM for          addusforce:     182.68 MB

     Estimated static dynamical RAM per process >     122.85 MB

     Estimated max dynamical RAM per process >     349.93 MB

     Estimated total dynamical RAM >       1.88 GB

     Initial potential from superposition of free atoms

     starting charge      75.9995, renormalised to      80.0000
     Starting wfcs are   52 randomized atomic wfcs

     total cpu time spent up to now is        4.0 secs

     Self-consistent Calculation

     iteration #  1     ecut=    60.00 Ry     beta= 0.70
     Davidson diagonalization with overlap

---- Real-time Memory Report at c_bands before calling an iterative solver
           391 MiB given to the printing process from OS
             0 MiB allocation reported by mallinfo(arena+hblkhd)
          4355 MiB available memory on the node where the printing process lives
------------------
     ethr =  1.00E-02,  avg # of iterations =  2.0

     total cpu time spent up to now is       10.9 secs

     total energy              =    -826.63865217 Ry
     estimated scf accuracy    <       2.67775718 Ry

     iteration #  2     ecut=    60.00 Ry     beta= 0.70
     Davidson diagonalization with overlap

---- Real-time Memory Report at c_bands before calling an iterative solver
           495 MiB given to the printing process from OS
             0 MiB allocation reported by mallinfo(arena+hblkhd)
          4090 MiB available memory on the node where the printing process lives
------------------
     ethr =  3.35E-03,  avg # of iterations =  3.0

     total cpu time spent up to now is       18.7 secs

     total energy              =    -827.54486946 Ry
     estimated scf accuracy    <       0.97481423 Ry

     iteration #  3     ecut=    60.00 Ry     beta= 0.70
     Davidson diagonalization with overlap

---- Real-time Memory Report at c_bands before calling an iterative solver
           532 MiB given to the printing process from OS
             0 MiB allocation reported by mallinfo(arena+hblkhd)
          3935 MiB available memory on the node where the printing process lives
------------------
     ethr =  1.22E-03,  avg # of iterations =  2.5

     total cpu time spent up to now is       25.2 secs

     total energy              =    -827.74133647 Ry
     estimated scf accuracy    <       0.00996750 Ry

     iteration #  4     ecut=    60.00 Ry     beta= 0.70
     Davidson diagonalization with overlap

---- Real-time Memory Report at c_bands before calling an iterative solver
           536 MiB given to the printing process from OS
             0 MiB allocation reported by mallinfo(arena+hblkhd)
          3932 MiB available memory on the node where the printing process lives
------------------
     ethr =  1.25E-05,  avg # of iterations =  5.0

     total cpu time spent up to now is       34.1 secs

     total energy              =    -827.74778841 Ry
     estimated scf accuracy    <       0.00517427 Ry

     iteration #  5     ecut=    60.00 Ry     beta= 0.70
     Davidson diagonalization with overlap

---- Real-time Memory Report at c_bands before calling an iterative solver
           540 MiB given to the printing process from OS
             0 MiB allocation reported by mallinfo(arena+hblkhd)
          3918 MiB available memory on the node where the printing process lives
------------------
     ethr =  6.47E-06,  avg # of iterations =  3.1

     total cpu time spent up to now is       41.2 secs

     total energy              =    -827.74945981 Ry
     estimated scf accuracy    <       0.00081931 Ry

     iteration #  6     ecut=    60.00 Ry     beta= 0.70
     Davidson diagonalization with overlap

---- Real-time Memory Report at c_bands before calling an iterative solver
           543 MiB given to the printing process from OS
             0 MiB allocation reported by mallinfo(arena+hblkhd)
          3916 MiB available memory on the node where the printing process lives
------------------
     ethr =  1.02E-06,  avg # of iterations =  2.0

     total cpu time spent up to now is       47.6 secs

     total energy              =    -827.74946679 Ry
     estimated scf accuracy    <       0.00019792 Ry

     iteration #  7     ecut=    60.00 Ry     beta= 0.70
     Davidson diagonalization with overlap

---- Real-time Memory Report at c_bands before calling an iterative solver
           545 MiB given to the printing process from OS
             0 MiB allocation reported by mallinfo(arena+hblkhd)
          3913 MiB available memory on the node where the printing process lives
------------------
     ethr =  2.47E-07,  avg # of iterations =  2.6

     total cpu time spent up to now is       54.5 secs

     total energy              =    -827.74950214 Ry
     estimated scf accuracy    <       0.00000606 Ry

     iteration #  8     ecut=    60.00 Ry     beta= 0.70
     Davidson diagonalization with overlap

---- Real-time Memory Report at c_bands before calling an iterative solver
           547 MiB given to the printing process from OS
             0 MiB allocation reported by mallinfo(arena+hblkhd)
          3908 MiB available memory on the node where the printing process lives
------------------
     ethr =  7.58E-09,  avg # of iterations =  6.7

     total cpu time spent up to now is       65.8 secs

     total energy              =    -827.74951111 Ry
     estimated scf accuracy    <       0.00000534 Ry

     iteration #  9     ecut=    60.00 Ry     beta= 0.70
     Davidson diagonalization with overlap

---- Real-time Memory Report at c_bands before calling an iterative solver
           549 MiB given to the printing process from OS
             0 MiB allocation reported by mallinfo(arena+hblkhd)
          3903 MiB available memory on the node where the printing process lives
------------------
     ethr =  6.67E-09,  avg # of iterations =  2.2

     total cpu time spent up to now is       72.1 secs

     total energy              =    -827.74951178 Ry
     estimated scf accuracy    <       0.00000022 Ry

     iteration # 10     ecut=    60.00 Ry     beta= 0.70
     Davidson diagonalization with overlap

---- Real-time Memory Report at c_bands before calling an iterative solver
           551 MiB given to the printing process from OS
             0 MiB allocation reported by mallinfo(arena+hblkhd)
          3897 MiB available memory on the node where the printing process lives
------------------
     ethr =  2.74E-10,  avg # of iterations =  4.8

     total cpu time spent up to now is       80.6 secs

     total energy              =    -827.74951191 Ry
     estimated scf accuracy    <       0.00000003 Ry

     iteration # 11     ecut=    60.00 Ry     beta= 0.70
     Davidson diagonalization with overlap

---- Real-time Memory Report at c_bands before calling an iterative solver
           552 MiB given to the printing process from OS
             0 MiB allocation reported by mallinfo(arena+hblkhd)
          3897 MiB available memory on the node where the printing process lives
------------------
     ethr =  3.67E-11,  avg # of iterations =  3.6

     total cpu time spent up to now is       87.9 secs

     End of self-consistent calculation

          k = 0.1667 0.1711 0.1567 ( 11518 PWs)   bands (ev):

   -13.6132 -13.6037 -13.5998 -13.5970 -13.5964 -13.5944 -13.5903 -13.5874
   -13.5834 -13.5777 -13.5772 -13.5766 -13.5656 -13.5610 -13.5437 -13.5418
   -13.5362 -13.5354 -13.5259 -13.5199  -5.9093  -5.6179  -4.9033  -4.5062
     0.4399   1.3008   2.1776   2.5394   3.0870   4.3174   4.4535   4.7279
     4.9869   5.0628   5.6328   5.9541   6.2000   6.6128   6.9766   7.2737

     occupation numbers 
     1.0000   1.0000   1.0000   1.0000   1.0000   1.0000   1.0000   1.0000
     1.0000   1.0000   1.0000   1.0000   1.0000   1.0000   1.0000   1.0000
     1.0000   1.0000   1.0000   1.0000   1.0000   1.0000   1.0000   1.0000
     1.0000   1.0000   1.0000   1.0000   1.0000   1.0000   1.0000   1.0000
     1.0000   1.0000   1.0000   1.0000   1.0000   1.0000   1.0000   1.0000

          k = 0.1667 0.1711 0.4700 ( 11508 PWs)   bands (ev):

   -13.6118 -13.6032 -13.5998 -13.5981 -13.5962 -13.5956 -13.5908 -13.5882
   -13.5829 -13.5779 -13.5749 -13.5740 -13.5651 -13.5614 -13.5439 -13.5410
   -13.5372 -13.5360 -13.5254 -13.5204  -5.7928  -5.5112  -4.9026  -4.5436
     0.1257   1.0483   1.6355   2.2170   3.1859   4.3597   4.5718   5.1136
     5.3151   5.5894   5.6398   6.0616   6.4412   6.7452   7.0592   7.2989

     occupation numbers 
     1.0000   1.0000   1.0000   1.0000   1.0000   1.0000   1.0000   1.0000
     1.0000   1.0000   1.0000   1.0000   1.0000   1.0000   1.0000   1.0000
     1.0000   1.0000   1.0000   1.0000   1.0000   1.0000   1.0000   1.0000
     1.0000   1.0000   1.0000   1.0000   1.0000   1.0000   1.0000   1.0000
     1.0000   1.0000   1.0000   1.0000   1.0000   1.0000   1.0000   1.0000

          k = 0.1667 0.1711 0.7834 ( 11494 PWs)   bands (ev):

   -13.6093 -13.6028 -13.6002 -13.5994 -13.5972 -13.5961 -13.5914 -13.5896
   -13.5818 -13.5784 -13.5711 -13.5704 -13.5647 -13.5622 -13.5437 -13.5401
   -13.5387 -13.5368 -13.5246 -13.5212  -5.5830  -5.3206  -4.9400  -4.6403
    -0.1810   0.5470   1.1946   1.7375   3.4890   4.5904   4.7901   5.3793
     5.6220   5.7506   6.0090   6.1193   6.6117   7.0787   7.1150   7.5482

     occupation numbers 
     1.0000   1.0000   1.0000   1.0000   1.0000   1.0000   1.0000   1.0000
     1.0000   1.0000   1.0000   1.0000   1.0000   1.0000   1.0000   1.0000
     1.0000   1.0000   1.0000   1.0000   1.0000   1.0000   1.0000   1.0000
     1.0000   1.0000   1.0000   1.0000   1.0000   1.0000   1.0000   1.0000
     1.0000   1.0000   1.0000   1.0000   1.0000   1.0000   1.0000   1.0000

          k = 0.1667 0.1711 1.0968 ( 11481 PWs)   bands (ev):

   -13.6065 -13.6040 -13.6005 -13.6001 -13.5975 -13.5967 -13.5916 -13.5909
   -13.5805 -13.5793 -13.5673 -13.5670 -13.5653 -13.5640 -13.5426 -13.5410
   -13.5386 -13.5377 -13.5235 -13.5223  -5.3319  -5.1541  -4.9982  -4.8117
    -0.2375   0.0319   1.1052   1.3138   3.9588   4.4664   5.1653   5.4390
     5.6568   5.7865   6.0546   6.3291   6.9009   7.2085   7.3845   7.4685

     occupation numbers 
     1.0000   1.0000   1.0000   1.0000   1.0000   1.0000   1.0000   1.0000
     1.0000   1.0000   1.0000   1.0000   1.0000   1.0000   1.0000   1.0000
     1.0000   1.0000   1.0000   1.0000   1.0000   1.0000   1.0000   1.0000
     1.0000   1.0000   1.0000   1.0000   1.0000   1.0000   1.0000   1.0000
     1.0000   1.0000   1.0000   1.0000   1.0000   1.0000   1.0000   1.0000

          k = 0.1667 0.5133 0.1567 ( 11530 PWs)   bands (ev):

   -13.6074 -13.6020 -13.5994 -13.5961 -13.5949 -13.5940 -13.5932 -13.5905
   -13.5843 -13.5799 -13.5752 -13.5738 -13.5634 -13.5618 -13.5441 -13.5413
   -13.5388 -13.5345 -13.5256 -13.5212  -5.7481  -5.4792  -4.8381  -4.5060
     0.2931   1.0506   1.8475   1.9582   3.2019   4.1844   4.4919   4.8210
     5.1240   5.2906   5.6583   6.0027   6.2203   6.8569   7.1215   7.2254

     occupation numbers 
     1.0000   1.0000   1.0000   1.0000   1.0000   1.0000   1.0000   1.0000
     1.0000   1.0000   1.0000   1.0000   1.0000   1.0000   1.0000   1.0000
     1.0000   1.0000   1.0000   1.0000   1.0000   1.0000   1.0000   1.0000
     1.0000   1.0000   1.0000   1.0000   1.0000   1.0000   1.0000   1.0000
     1.0000   1.0000   1.0000   1.0000   1.0000   1.0000   1.0000   1.0000

          k = 0.1667 0.5133 0.4700 ( 11497 PWs)   bands (ev):

   -13.6074 -13.6020 -13.6008 -13.5967 -13.5952 -13.5943 -13.5925 -13.5918
   -13.5838 -13.5801 -13.5729 -13.5715 -13.5637 -13.5613 -13.5438 -13.5412
   -13.5391 -13.5354 -13.5252 -13.5214  -5.6375  -5.3789  -4.8347  -4.5325
     0.1349   0.9871   1.4919   1.8567   3.3352   3.7838   4.0782   4.9121
     5.1079   5.6611   5.8461   6.0290   6.6465   6.7838   7.1103   7.2891

     occupation numbers 
     1.0000   1.0000   1.0000   1.0000   1.0000   1.0000   1.0000   1.0000
     1.0000   1.0000   1.0000   1.0000   1.0000   1.0000   1.0000   1.0000
     1.0000   1.0000   1.0000   1.0000   1.0000   1.0000   1.0000   1.0000
     1.0000   1.0000   1.0000   1.0000   1.0000   1.0000   1.0000   1.0000
     1.0000   1.0000   1.0000   1.0000   1.0000   1.0000   1.0000   1.0000

          k = 0.1667 0.5133 0.7834 ( 11491 PWs)   bands (ev):

   -13.6074 -13.6035 -13.6012 -13.5979 -13.5959 -13.5939 -13.5935 -13.5920
   -13.5828 -13.5805 -13.5697 -13.5681 -13.5638 -13.5613 -13.5431 -13.5409
   -13.5394 -13.5368 -13.5245 -13.5219  -5.4404  -5.2021  -4.8634  -4.6075
    -0.0393   0.6549   1.2266   1.6299   3.5926   3.7365   4.0282   4.8188
     4.9356   5.6757   5.7475   6.2980   6.5211   6.7852   6.9927   7.2902

     occupation numbers 
     1.0000   1.0000   1.0000   1.0000   1.0000   1.0000   1.0000   1.0000
     1.0000   1.0000   1.0000   1.0000   1.0000   1.0000   1.0000   1.0000
     1.0000   1.0000   1.0000   1.0000   1.0000   1.0000   1.0000   1.0000
     1.0000   1.0000   1.0000   1.0000   1.0000   1.0000   1.0000   1.0000
     1.0000   1.0000   1.0000   1.0000   1.0000   1.0000   1.0000   1.0000

          k = 0.1667 0.5133 1.0968 ( 11470 PWs)   bands (ev):

   -13.6070 -13.6057 -13.6004 -13.5993 -13.5959 -13.5950 -13.5929 -13.5922
   -13.5819 -13.5811 -13.5668 -13.5654 -13.5639 -13.5622 -13.5421 -13.5412
   -13.5391 -13.5381 -13.5236 -13.5227  -5.2091  -5.0495  -4.9119  -4.7496
    -0.0446   0.2097   1.2107   1.3689   3.9105   3.9748   4.2515   4.5337
     4.8391   5.1601   5.8163   6.1003   6.4802   6.7325   7.0030   7.1944

     occupation numbers 
     1.0000   1.0000   1.0000   1.0000   1.0000   1.0000   1.0000   1.0000
     1.0000   1.0000   1.0000   1.0000   1.0000   1.0000   1.0000   1.0000
     1.0000   1.0000   1.0000   1.0000   1.0000   1.0000   1.0000   1.0000
     1.0000   1.0000   1.0000   1.0000   1.0000   1.0000   1.0000   1.0000
     1.0000   1.0000   1.0000   1.0000   1.0000   1.0000   1.0000   1.0000

          k = 0.1667 0.8555 0.1567 ( 11483 PWs)   bands (ev):

   -13.6054 -13.6033 -13.6013 -13.6006 -13.5928 -13.5904 -13.5895 -13.5878
   -13.5828 -13.5818 -13.5748 -13.5692 -13.5642 -13.5600 -13.5481 -13.5469
   -13.5358 -13.5315 -13.5252 -13.5231  -5.4542  -5.2380  -4.7688  -4.5675
     0.0956   0.7330   1.0688   1.4148   3.5416   4.3012   4.6727   5.0288
     5.3716   5.4518   5.7981   5.9820   6.3412   6.8311   6.9431   7.3189

     occupation numbers 
     1.0000   1.0000   1.0000   1.0000   1.0000   1.0000   1.0000   1.0000
     1.0000   1.0000   1.0000   1.0000   1.0000   1.0000   1.0000   1.0000
     1.0000   1.0000   1.0000   1.0000   1.0000   1.0000   1.0000   1.0000
     1.0000   1.0000   1.0000   1.0000   1.0000   1.0000   1.0000   1.0000
     1.0000   1.0000   1.0000   1.0000   1.0000   1.0000   1.0000   1.0000

          k = 0.1667 0.8555 0.4700 ( 11502 PWs)   bands (ev):

   -13.6080 -13.6051 -13.6028 -13.6012 -13.5934 -13.5895 -13.5890 -13.5877
   -13.5822 -13.5816 -13.5730 -13.5679 -13.5640 -13.5595 -13.5476 -13.5465
   -13.5359 -13.5322 -13.5249 -13.5231  -5.3577  -5.1525  -4.7565  -4.5696
     0.1344   0.8267   1.0998   1.3372   3.5428   3.6581   4.0204   4.6295
     5.0626   5.6078   5.6852   6.1490   6.2371   6.6171   6.8284   7.0783

     occupation numbers 
     1.0000   1.0000   1.0000   1.0000   1.0000   1.0000   1.0000   1.0000
     1.0000   1.0000   1.0000   1.0000   1.0000   1.0000   1.0000   1.0000
     1.0000   1.0000   1.0000   1.0000   1.0000   1.0000   1.0000   1.0000
     1.0000   1.0000   1.0000   1.0000   1.0000   1.0000   1.0000   1.0000
     1.0000   1.0000   1.0000   1.0000   1.0000   1.0000   1.0000   1.0000

          k = 0.1667 0.8555 0.7834 ( 11497 PWs)   bands (ev):

   -13.6108 -13.6084 -13.6044 -13.6031 -13.5931 -13.5895 -13.5883 -13.5874
   -13.5814 -13.5812 -13.5705 -13.5666 -13.5627 -13.5592 -13.5467 -13.5459
   -13.5357 -13.5332 -13.5244 -13.5231  -5.1904  -5.0066  -4.7623  -4.5970
     0.1942   0.7809   1.1572   1.3260   3.1580   3.5016   3.9319   4.2054
     4.5275   5.0948   5.4085   5.7733   6.0786   6.3575   6.5844   7.0458

     occupation numbers 
     1.0000   1.0000   1.0000   1.0000   1.0000   1.0000   1.0000   1.0000
     1.0000   1.0000   1.0000   1.0000   1.0000   1.0000   1.0000   1.0000
     1.0000   1.0000   1.0000   1.0000   1.0000   1.0000   1.0000   1.0000
     1.0000   1.0000   1.0000   1.0000   1.0000   1.0000   1.0000   1.0000
     1.0000   1.0000   1.0000   1.0000   1.0000   1.0000   1.0000   1.0000

          k = 0.1667 0.8555 1.0968 ( 11489 PWs)   bands (ev):

   -13.6121 -13.6112 -13.6053 -13.6049 -13.5920 -13.5906 -13.5877 -13.5874
   -13.5808 -13.5808 -13.5682 -13.5667 -13.5607 -13.5595 -13.5459 -13.5456
   -13.5351 -13.5342 -13.5238 -13.5234  -5.0039  -4.8851  -4.7870  -4.6765
     0.3018   0.5148   1.2874   1.3435   3.1748   3.5181   3.6077   3.9854
     4.3687   4.7654   5.1308   5.5215   5.7464   6.0111   6.6702   6.8056

     occupation numbers 
     1.0000   1.0000   1.0000   1.0000   1.0000   1.0000   1.0000   1.0000
     1.0000   1.0000   1.0000   1.0000   1.0000   1.0000   1.0000   1.0000
     1.0000   1.0000   1.0000   1.0000   1.0000   1.0000   1.0000   1.0000
     1.0000   1.0000   1.0000   1.0000   1.0000   1.0000   1.0000   1.0000
     1.0000   1.0000   1.0000   1.0000   1.0000   1.0000   1.0000   1.0000

          k = 0.1667 1.1977 0.1567 ( 11483 PWs)   bands (ev):

   -13.6074 -13.6060 -13.6045 -13.6032 -13.5894 -13.5878 -13.5864 -13.5849
   -13.5796 -13.5776 -13.5761 -13.5708 -13.5615 -13.5568 -13.5544 -13.5524
   -13.5307 -13.5282 -13.5261 -13.5257  -5.0925  -4.9738  -4.7964  -4.7650
     0.0714   0.4011   0.6494   0.9135   4.0568   4.5005   4.8867   5.2162
     5.4031   5.4488   5.8609   6.1413   6.4652   6.6796   6.7379   6.9072

     occupation numbers 
     1.0000   1.0000   1.0000   1.0000   1.0000   1.0000   1.0000   1.0000
     1.0000   1.0000   1.0000   1.0000   1.0000   1.0000   1.0000   1.0000
     1.0000   1.0000   1.0000   1.0000   1.0000   1.0000   1.0000   1.0000
     1.0000   1.0000   1.0000   1.0000   1.0000   1.0000   1.0000   1.0000
     1.0000   1.0000   1.0000   1.0000   1.0000   1.0000   1.0000   1.0000

          k = 0.1667 1.1977 0.4700 ( 11505 PWs)   bands (ev):

   -13.6101 -13.6087 -13.6061 -13.6050 -13.5897 -13.5880 -13.5852 -13.5843
   -13.5792 -13.5776 -13.5744 -13.5703 -13.5606 -13.5574 -13.5524 -13.5514
   -13.5309 -13.5290 -13.5256 -13.5254  -5.0215  -4.9126  -4.7638  -4.7304
     0.2170   0.5390   0.7731   0.9600   3.8142   4.0050   4.2782   4.5618
     4.7590   5.2014   5.6671   5.8552   5.9767   6.2617   6.7581   7.0146

     occupation numbers 
     1.0000   1.0000   1.0000   1.0000   1.0000   1.0000   1.0000   1.0000
     1.0000   1.0000   1.0000   1.0000   1.0000   1.0000   1.0000   1.0000
     1.0000   1.0000   1.0000   1.0000   1.0000   1.0000   1.0000   1.0000
     1.0000   1.0000   1.0000   1.0000   1.0000   1.0000   1.0000   1.0000
     1.0000   1.0000   1.0000   1.0000   1.0000   1.0000   1.0000   1.0000

          k = 0.1667 1.1977 0.7834 ( 11494 PWs)   bands (ev):

   -13.6135 -13.6125 -13.6083 -13.6076 -13.5898 -13.5883 -13.5841 -13.5836
   -13.5784 -13.5772 -13.5725 -13.5699 -13.5591 -13.5574 -13.5504 -13.5500
   -13.5310 -13.5298 -13.5251 -13.5250  -4.9068  -4.8164  -4.7257  -4.6872
     0.4638   0.7525   0.9659   1.0295   3.1703   3.6202   3.7241   4.0479
     4.3231   4.6650   5.0101   5.4714   5.5735   5.8345   6.6205   6.7602

     occupation numbers 
     1.0000   1.0000   1.0000   1.0000   1.0000   1.0000   1.0000   1.0000
     1.0000   1.0000   1.0000   1.0000   1.0000   1.0000   1.0000   1.0000
     1.0000   1.0000   1.0000   1.0000   1.0000   1.0000   1.0000   1.0000
     1.0000   1.0000   1.0000   1.0000   1.0000   1.0000   1.0000   1.0000
     1.0000   1.0000   1.0000   1.0000   1.0000   1.0000   1.0000   1.0000

          k = 0.1667 1.1977 1.0968 ( 11487 PWs)   bands (ev):

   -13.6156 -13.6153 -13.6098 -13.6096 -13.5895 -13.5890 -13.5835 -13.5833
   -13.5776 -13.5771 -13.5710 -13.5701 -13.5577 -13.5572 -13.5491 -13.5490
   -13.5308 -13.5304 -13.5249 -13.5248  -4.7957  -4.7439  -4.7075  -4.6743
     0.7065   0.8327   1.1180   1.1518   2.9154   3.1198   3.5076   3.6497
     4.1330   4.1695   4.6749   4.9984   5.5418   5.7306   6.4858   6.5349

     occupation numbers 
     1.0000   1.0000   1.0000   1.0000   1.0000   1.0000   1.0000   1.0000
     1.0000   1.0000   1.0000   1.0000   1.0000   1.0000   1.0000   1.0000
     1.0000   1.0000   1.0000   1.0000   1.0000   1.0000   1.0000   1.0000
     1.0000   1.0000   1.0000   1.0000   1.0000   1.0000   1.0000   1.0000
     1.0000   1.0000   1.0000   1.0000   1.0000   1.0000   1.0000   1.0000

          k =-0.5000 0.1711 0.1567 ( 11506 PWs)   bands (ev):

   -13.6090 -13.6090 -13.5980 -13.5980 -13.5960 -13.5960 -13.5885 -13.5885
   -13.5807 -13.5807 -13.5767 -13.5767 -13.5633 -13.5633 -13.5424 -13.5424
   -13.5361 -13.5361 -13.5228 -13.5228  -5.7897  -5.7897  -4.6787  -4.6787
     0.7436   0.7436   2.4554   2.4554   3.7496   3.7496   4.6363   4.6363
     5.1072   5.1072   5.7143   5.7143   6.0636   6.0636   7.1843   7.1843

     occupation numbers 
     1.0000   1.0000   1.0000   1.0000   1.0000   1.0000   1.0000   1.0000
     1.0000   1.0000   1.0000   1.0000   1.0000   1.0000   1.0000   1.0000
     1.0000   1.0000   1.0000   1.0000   1.0000   1.0000   1.0000   1.0000
     1.0000   1.0000   1.0000   1.0000   1.0000   1.0000   1.0000   1.0000
     1.0000   1.0000   1.0000   1.0000   1.0000   1.0000   1.0000   1.0000

          k =-0.5000 0.1711 0.4700 ( 11502 PWs)   bands (ev):

   -13.6080 -13.6080 -13.5980 -13.5980 -13.5967 -13.5967 -13.5895 -13.5895
   -13.5803 -13.5803 -13.5743 -13.5743 -13.5633 -13.5633 -13.5422 -13.5422
   -13.5367 -13.5367 -13.5228 -13.5228  -5.6783  -5.6783  -4.6967  -4.6967
     0.4568   0.4568   1.9921   1.9921   3.9755   3.9755   4.7013   4.7013
     5.3883   5.3883   5.8653   5.8653   6.5132   6.5132   7.0890   7.0890

     occupation numbers 
     1.0000   1.0000   1.0000   1.0000   1.0000   1.0000   1.0000   1.0000
     1.0000   1.0000   1.0000   1.0000   1.0000   1.0000   1.0000   1.0000
     1.0000   1.0000   1.0000   1.0000   1.0000   1.0000   1.0000   1.0000
     1.0000   1.0000   1.0000   1.0000   1.0000   1.0000   1.0000   1.0000
     1.0000   1.0000   1.0000   1.0000   1.0000   1.0000   1.0000   1.0000

          k =-0.5000 0.1711 0.7834 ( 11476 PWs)   bands (ev):

   -13.6065 -13.6065 -13.5992 -13.5992 -13.5968 -13.5968 -13.5908 -13.5908
   -13.5799 -13.5799 -13.5706 -13.5706 -13.5636 -13.5636 -13.5419 -13.5419
   -13.5377 -13.5377 -13.5228 -13.5228  -5.4802  -5.4802  -4.7620  -4.7620
     0.1246   0.1246   1.4491   1.4491   4.2953   4.2953   4.9830   4.9830
     5.5277   5.5277   6.0847   6.0847   6.7264   6.7264   7.2647   7.2647

     occupation numbers 
     1.0000   1.0000   1.0000   1.0000   1.0000   1.0000   1.0000   1.0000
     1.0000   1.0000   1.0000   1.0000   1.0000   1.0000   1.0000   1.0000
     1.0000   1.0000   1.0000   1.0000   1.0000   1.0000   1.0000   1.0000
     1.0000   1.0000   1.0000   1.0000   1.0000   1.0000   1.0000   1.0000
     1.0000   1.0000   1.0000   1.0000   1.0000   1.0000   1.0000   1.0000

          k =-0.5000 0.1711 1.0968 ( 11476 PWs)   bands (ev):

   -13.6051 -13.6051 -13.6005 -13.6005 -13.5968 -13.5968 -13.5918 -13.5918
   -13.5796 -13.5796 -13.5671 -13.5671 -13.5647 -13.5647 -13.5416 -13.5416
   -13.5385 -13.5385 -13.5228 -13.5228  -5.2647  -5.2647  -4.8841  -4.8841
    -0.0628  -0.0628   1.0933   1.0933   4.7048   4.7048   5.2836   5.2836
     5.3656   5.3656   5.9367   5.9367   7.1030   7.1030   7.3832   7.3832

     occupation numbers 
     1.0000   1.0000   1.0000   1.0000   1.0000   1.0000   1.0000   1.0000
     1.0000   1.0000   1.0000   1.0000   1.0000   1.0000   1.0000   1.0000
     1.0000   1.0000   1.0000   1.0000   1.0000   1.0000   1.0000   1.0000
     1.0000   1.0000   1.0000   1.0000   1.0000   1.0000   1.0000   1.0000
     1.0000   1.0000   1.0000   1.0000   1.0000   1.0000   1.0000   1.0000

          k =-0.5000 0.5133 0.1567 ( 11492 PWs)   bands (ev):

   -13.6047 -13.6047 -13.5982 -13.5982 -13.5946 -13.5946 -13.5916 -13.5916
   -13.5821 -13.5821 -13.5743 -13.5743 -13.5628 -13.5628 -13.5428 -13.5428
   -13.5365 -13.5365 -13.5233 -13.5233  -5.6371  -5.6371  -4.6480  -4.6480
     0.5778   0.5778   1.9490   1.9490   3.8766   3.8766   4.5232   4.5232
     5.4134   5.4134   5.6015   5.6015   6.2682   6.2682   7.2690   7.2690

     occupation numbers 
     1.0000   1.0000   1.0000   1.0000   1.0000   1.0000   1.0000   1.0000
     1.0000   1.0000   1.0000   1.0000   1.0000   1.0000   1.0000   1.0000
     1.0000   1.0000   1.0000   1.0000   1.0000   1.0000   1.0000   1.0000
     1.0000   1.0000   1.0000   1.0000   1.0000   1.0000   1.0000   1.0000
     1.0000   1.0000   1.0000   1.0000   1.0000   1.0000   1.0000   1.0000

          k =-0.5000 0.5133 0.4700 ( 11498 PWs)   bands (ev):

   -13.6048 -13.6048 -13.5993 -13.5993 -13.5945 -13.5945 -13.5919 -13.5919
   -13.5818 -13.5818 -13.5721 -13.5721 -13.5627 -13.5627 -13.5427 -13.5427
   -13.5371 -13.5371 -13.5232 -13.5232  -5.5317  -5.5317  -4.6597  -4.6597
     0.4512   0.4512   1.7276   1.7276   3.8181   3.8181   4.4080   4.4080
     5.0854   5.0854   6.0479   6.0479   6.6457   6.6457   7.1929   7.1929

     occupation numbers 
     1.0000   1.0000   1.0000   1.0000   1.0000   1.0000   1.0000   1.0000
     1.0000   1.0000   1.0000   1.0000   1.0000   1.0000   1.0000   1.0000
     1.0000   1.0000   1.0000   1.0000   1.0000   1.0000   1.0000   1.0000
     1.0000   1.0000   1.0000   1.0000   1.0000   1.0000   1.0000   1.0000
     1.0000   1.0000   1.0000   1.0000   1.0000   1.0000   1.0000   1.0000

          k =-0.5000 0.5133 0.7834 ( 11484 PWs)   bands (ev):

   -13.6052 -13.6052 -13.6009 -13.6009 -13.5944 -13.5944 -13.5921 -13.5921
   -13.5816 -13.5816 -13.5690 -13.5690 -13.5626 -13.5626 -13.5423 -13.5423
   -13.5380 -13.5380 -13.5230 -13.5230  -5.3465  -5.3465  -4.7104  -4.7104
     0.2546   0.2546   1.4221   1.4221   3.8096   3.8096   4.5782   4.5782
     4.9331   4.9331   6.1236   6.1236   6.5042   6.5042   7.1495   7.1495

     occupation numbers 
     1.0000   1.0000   1.0000   1.0000   1.0000   1.0000   1.0000   1.0000
     1.0000   1.0000   1.0000   1.0000   1.0000   1.0000   1.0000   1.0000
     1.0000   1.0000   1.0000   1.0000   1.0000   1.0000   1.0000   1.0000
     1.0000   1.0000   1.0000   1.0000   1.0000   1.0000   1.0000   1.0000
     1.0000   1.0000   1.0000   1.0000   1.0000   1.0000   1.0000   1.0000

          k =-0.5000 0.5133 1.0968 ( 11474 PWs)   bands (ev):

   -13.6056 -13.6056 -13.6021 -13.6021 -13.5941 -13.5941 -13.5923 -13.5923
   -13.5814 -13.5814 -13.5665 -13.5665 -13.5628 -13.5628 -13.5420 -13.5420
   -13.5386 -13.5386 -13.5229 -13.5229  -5.1485  -5.1485  -4.8122  -4.8122
     0.1170   0.1170   1.1962   1.1962   4.0483   4.0483   4.4564   4.4564
     5.1708   5.1708   5.7361   5.7361   6.4062   6.4062   6.9799   6.9799

     occupation numbers 
     1.0000   1.0000   1.0000   1.0000   1.0000   1.0000   1.0000   1.0000
     1.0000   1.0000   1.0000   1.0000   1.0000   1.0000   1.0000   1.0000
     1.0000   1.0000   1.0000   1.0000   1.0000   1.0000   1.0000   1.0000
     1.0000   1.0000   1.0000   1.0000   1.0000   1.0000   1.0000   1.0000
     1.0000   1.0000   1.0000   1.0000   1.0000   1.0000   1.0000   1.0000

          k =-0.5000 0.8555 0.1567 ( 11496 PWs)   bands (ev):

   -13.6048 -13.6048 -13.6003 -13.6003 -13.5912 -13.5912 -13.5896 -13.5896
   -13.5820 -13.5820 -13.5723 -13.5723 -13.5617 -13.5617 -13.5477 -13.5477
   -13.5335 -13.5335 -13.5241 -13.5241  -5.3635  -5.3635  -4.6501  -4.6501
     0.3573   0.3573   1.2445   1.2445   4.1617   4.1617   4.7023   4.7023
     5.5783   5.5783   5.7403   5.7403   6.2817   6.2817   7.1366   7.1366

     occupation numbers 
     1.0000   1.0000   1.0000   1.0000   1.0000   1.0000   1.0000   1.0000
     1.0000   1.0000   1.0000   1.0000   1.0000   1.0000   1.0000   1.0000
     1.0000   1.0000   1.0000   1.0000   1.0000   1.0000   1.0000   1.0000
     1.0000   1.0000   1.0000   1.0000   1.0000   1.0000   1.0000   1.0000
     1.0000   1.0000   1.0000   1.0000   1.0000   1.0000   1.0000   1.0000

          k =-0.5000 0.8555 0.4700 ( 11502 PWs)   bands (ev):

   -13.6067 -13.6067 -13.6021 -13.6021 -13.5912 -13.5912 -13.5887 -13.5887
   -13.5816 -13.5816 -13.5710 -13.5710 -13.5612 -13.5612 -13.5474 -13.5474
   -13.5338 -13.5338 -13.5240 -13.5240  -5.2723  -5.2723  -4.6454  -4.6454
     0.4150   0.4150   1.2361   1.2361   3.7049   3.7049   4.5168   4.5168
     4.9949   4.9949   5.9914   5.9914   6.2128   6.2128   7.0332   7.0332

     occupation numbers 
     1.0000   1.0000   1.0000   1.0000   1.0000   1.0000   1.0000   1.0000
     1.0000   1.0000   1.0000   1.0000   1.0000   1.0000   1.0000   1.0000
     1.0000   1.0000   1.0000   1.0000   1.0000   1.0000   1.0000   1.0000
     1.0000   1.0000   1.0000   1.0000   1.0000   1.0000   1.0000   1.0000
     1.0000   1.0000   1.0000   1.0000   1.0000   1.0000   1.0000   1.0000

          k =-0.5000 0.8555 0.7834 ( 11480 PWs)   bands (ev):

   -13.6091 -13.6091 -13.6046 -13.6046 -13.5909 -13.5909 -13.5880 -13.5880
   -13.5809 -13.5809 -13.5694 -13.5694 -13.5600 -13.5600 -13.5470 -13.5470
   -13.5341 -13.5341 -13.5237 -13.5237  -5.1167  -5.1167  -4.6615  -4.6615
     0.4522   0.4522   1.2376   1.2376   3.3607   3.3607   4.1817   4.1817
     4.7870   4.7870   5.4711   5.4711   6.0794   6.0794   6.8896   6.8896

     occupation numbers 
     1.0000   1.0000   1.0000   1.0000   1.0000   1.0000   1.0000   1.0000
     1.0000   1.0000   1.0000   1.0000   1.0000   1.0000   1.0000   1.0000
     1.0000   1.0000   1.0000   1.0000   1.0000   1.0000   1.0000   1.0000
     1.0000   1.0000   1.0000   1.0000   1.0000   1.0000   1.0000   1.0000
     1.0000   1.0000   1.0000   1.0000   1.0000   1.0000   1.0000   1.0000

          k =-0.5000 0.8555 1.0968 ( 11490 PWs)   bands (ev):

   -13.6108 -13.6108 -13.6064 -13.6064 -13.5906 -13.5906 -13.5878 -13.5878
   -13.5805 -13.5805 -13.5685 -13.5685 -13.5590 -13.5590 -13.5466 -13.5466
   -13.5343 -13.5343 -13.5235 -13.5235  -4.9582  -4.9582  -4.7183  -4.7183
     0.4306   0.4306   1.2640   1.2640   3.3739   3.3739   3.7349   3.7349
     4.7887   4.7887   5.0977   5.0977   6.0477   6.0477   6.5592   6.5592

     occupation numbers 
     1.0000   1.0000   1.0000   1.0000   1.0000   1.0000   1.0000   1.0000
     1.0000   1.0000   1.0000   1.0000   1.0000   1.0000   1.0000   1.0000
     1.0000   1.0000   1.0000   1.0000   1.0000   1.0000   1.0000   1.0000
     1.0000   1.0000   1.0000   1.0000   1.0000   1.0000   1.0000   1.0000
     1.0000   1.0000   1.0000   1.0000   1.0000   1.0000   1.0000   1.0000

          k =-0.5000 1.1977 0.1567 ( 11486 PWs)   bands (ev):

   -13.6062 -13.6062 -13.6046 -13.6046 -13.5876 -13.5876 -13.5870 -13.5870
   -13.5781 -13.5781 -13.5736 -13.5736 -13.5587 -13.5587 -13.5537 -13.5537
   -13.5294 -13.5294 -13.5260 -13.5260  -5.0401  -5.0401  -4.7741  -4.7741
     0.3258   0.3258   0.6393   0.6393   4.6246   4.6246   4.9735   4.9735
     5.4702   5.4702   5.7135   5.7135   6.4025   6.4025   6.7670   6.7670

     occupation numbers 
     1.0000   1.0000   1.0000   1.0000   1.0000   1.0000   1.0000   1.0000
     1.0000   1.0000   1.0000   1.0000   1.0000   1.0000   1.0000   1.0000
     1.0000   1.0000   1.0000   1.0000   1.0000   1.0000   1.0000   1.0000
     1.0000   1.0000   1.0000   1.0000   1.0000   1.0000   1.0000   1.0000
     1.0000   1.0000   1.0000   1.0000   1.0000   1.0000   1.0000   1.0000

          k =-0.5000 1.1977 0.4700 ( 11486 PWs)   bands (ev):

   -13.6084 -13.6084 -13.6067 -13.6067 -13.5875 -13.5875 -13.5865 -13.5865
   -13.5775 -13.5775 -13.5731 -13.5731 -13.5577 -13.5577 -13.5529 -13.5529
   -13.5294 -13.5294 -13.5259 -13.5259  -4.9739  -4.9739  -4.7407  -4.7407
     0.4584   0.4584   0.7432   0.7432   3.9883   3.9883   4.5167   4.5167
     5.0561   5.0561   5.4983   5.4983   6.2014   6.2014   6.6372   6.6372

     occupation numbers 
     1.0000   1.0000   1.0000   1.0000   1.0000   1.0000   1.0000   1.0000
     1.0000   1.0000   1.0000   1.0000   1.0000   1.0000   1.0000   1.0000
     1.0000   1.0000   1.0000   1.0000   1.0000   1.0000   1.0000   1.0000
     1.0000   1.0000   1.0000   1.0000   1.0000   1.0000   1.0000   1.0000
     1.0000   1.0000   1.0000   1.0000   1.0000   1.0000   1.0000   1.0000

          k =-0.5000 1.1977 0.7834 ( 11494 PWs)   bands (ev):

   -13.6114 -13.6114 -13.6097 -13.6097 -13.5875 -13.5875 -13.5862 -13.5862
   -13.5765 -13.5765 -13.5723 -13.5723 -13.5562 -13.5562 -13.5518 -13.5518
   -13.5295 -13.5295 -13.5257 -13.5257  -4.8685  -4.8685  -4.6997  -4.6997
     0.6564   0.6564   0.9214   0.9214   3.4230   3.4230   3.9371   3.9371
     4.4949   4.4949   4.9531   4.9531   6.1072   6.1072   6.4787   6.4787

     occupation numbers 
     1.0000   1.0000   1.0000   1.0000   1.0000   1.0000   1.0000   1.0000
     1.0000   1.0000   1.0000   1.0000   1.0000   1.0000   1.0000   1.0000
     1.0000   1.0000   1.0000   1.0000   1.0000   1.0000   1.0000   1.0000
     1.0000   1.0000   1.0000   1.0000   1.0000   1.0000   1.0000   1.0000
     1.0000   1.0000   1.0000   1.0000   1.0000   1.0000   1.0000   1.0000

          k =-0.5000 1.1977 1.0968 ( 11526 PWs)   bands (ev):

   -13.6135 -13.6135 -13.6118 -13.6118 -13.5876 -13.5876 -13.5861 -13.5861
   -13.5759 -13.5759 -13.5718 -13.5718 -13.5550 -13.5550 -13.5509 -13.5509
   -13.5295 -13.5295 -13.5256 -13.5256  -4.7748  -4.7748  -4.6860  -4.6860
     0.7848   0.7848   1.1001   1.1001   3.2279   3.2279   3.4746   3.4746
     4.1366   4.1366   4.4303   4.4303   6.2037   6.2037   6.3907   6.3907

     occupation numbers 
     1.0000   1.0000   1.0000   1.0000   1.0000   1.0000   1.0000   1.0000
     1.0000   1.0000   1.0000   1.0000   1.0000   1.0000   1.0000   1.0000
     1.0000   1.0000   1.0000   1.0000   1.0000   1.0000   1.0000   1.0000
     1.0000   1.0000   1.0000   1.0000   1.0000   1.0000   1.0000   1.0000
     1.0000   1.0000   1.0000   1.0000   1.0000   1.0000   1.0000   1.0000

     highest occupied level (ev):     7.5482

!    total energy              =    -827.74951192 Ry
     estimated scf accuracy    <          1.7E-09 Ry

     The total energy is the sum of the following terms:
     one-electron contribution =    -264.09043602 Ry
     hartree contribution      =     181.64608472 Ry
     xc contribution           =    -309.03160498 Ry
     ewald contribution        =    -436.15286000 Ry
     DFT-D3 Dispersion         =      -0.12069564 Ry

     convergence has been achieved in  11 iterations

     Forces acting on atoms (cartesian axes, Ry/au):

     atom    1 type  2   force =     0.00354688    0.00000000   -0.00004357
     atom    2 type  1   force =    -0.00370941   -0.00000000   -0.00023115
     atom    3 type  2   force =    -0.00354688   -0.00000000   -0.00004357
     atom    4 type  1   force =     0.00370941    0.00000000   -0.00023115
     atom    5 type  2   force =     0.00354688    0.00000000    0.00004357
     atom    6 type  1   force =    -0.00370941   -0.00000000    0.00023115
     atom    7 type  2   force =    -0.00354688   -0.00000000    0.00004357
     atom    8 type  1   force =     0.00370941    0.00000000    0.00023115
     The non-local contrib.  to forces
     atom    1 type  2   force =    -0.10484837    0.00000000    0.11299250
     atom    2 type  1   force =     0.34855148    0.00000000    0.30373572
     atom    3 type  2   force =     0.10484837    0.00000000    0.11299250
     atom    4 type  1   force =    -0.34855148    0.00000000    0.30373572
     atom    5 type  2   force =    -0.10484837    0.00000000   -0.11299250
     atom    6 type  1   force =     0.34855148    0.00000000   -0.30373572
     atom    7 type  2   force =     0.10484837    0.00000000   -0.11299250
     atom    8 type  1   force =    -0.34855148    0.00000000   -0.30373572
     The ionic contribution  to forces
     atom    1 type  2   force =     1.22743986   -0.00000000   -1.27033953
     atom    2 type  1   force =    -0.62595779   -0.00000000   -0.69602953
     atom    3 type  2   force =    -1.22743986    0.00000000   -1.27033953
     atom    4 type  1   force =     0.62595779   -0.00000000   -0.69602953
     atom    5 type  2   force =     1.22743986    0.00000000    1.27033953
     atom    6 type  1   force =    -0.62595779   -0.00000000    0.69602953
     atom    7 type  2   force =    -1.22743986   -0.00000000    1.27033953
     atom    8 type  1   force =     0.62595779   -0.00000000    0.69602953
     The local contribution  to forces
     atom    1 type  2   force =    -1.12992735    0.00000000    1.16824491
     atom    2 type  1   force =     0.28010375    0.00000000    0.39617632
     atom    3 type  2   force =     1.12992735   -0.00000000    1.16824491
     atom    4 type  1   force =    -0.28010375    0.00000000    0.39617632
     atom    5 type  2   force =    -1.12992735    0.00000000   -1.16824491
     atom    6 type  1   force =     0.28010375    0.00000000   -0.39617632
     atom    7 type  2   force =     1.12992735    0.00000000   -1.16824491
     atom    8 type  1   force =    -0.28010375    0.00000000   -0.39617632
     The core correction contribution to forces
     atom    1 type  2   force =     0.01163131    0.00000000   -0.01252844
     atom    2 type  1   force =    -0.00580793    0.00000000   -0.00512781
     atom    3 type  2   force =    -0.01163131   -0.00000000   -0.01252844
     atom    4 type  1   force =     0.00580793    0.00000000   -0.00512781
     atom    5 type  2   force =     0.01163131   -0.00000000    0.01252844
     atom    6 type  1   force =    -0.00580793   -0.00000000    0.00512781
     atom    7 type  2   force =    -0.01163131   -0.00000000    0.01252844
     atom    8 type  1   force =     0.00580793    0.00000000    0.00512781
     The Hubbard contrib.    to forces
     atom    1 type  2   force =     0.00000000    0.00000000    0.00000000
     atom    2 type  1   force =     0.00000000    0.00000000    0.00000000
     atom    3 type  2   force =     0.00000000    0.00000000    0.00000000
     atom    4 type  1   force =     0.00000000    0.00000000    0.00000000
     atom    5 type  2   force =     0.00000000    0.00000000    0.00000000
     atom    6 type  1   force =     0.00000000    0.00000000    0.00000000
     atom    7 type  2   force =     0.00000000    0.00000000    0.00000000
     atom    8 type  1   force =     0.00000000    0.00000000    0.00000000
     The SCF correction term to forces
     atom    1 type  2   force =    -0.00000578   -0.00000000    0.00000052
     atom    2 type  1   force =     0.00007601    0.00000000    0.00004000
     atom    3 type  2   force =     0.00000578   -0.00000000    0.00000052
     atom    4 type  1   force =    -0.00007601    0.00000000    0.00004000
     atom    5 type  2   force =    -0.00000578    0.00000000   -0.00000052
     atom    6 type  1   force =     0.00007601    0.00000000   -0.00004000
     atom    7 type  2   force =     0.00000578    0.00000000   -0.00000052
     atom    8 type  1   force =    -0.00007601    0.00000000   -0.00004000

     DFT-D3 dispersion contribution to forces:
     atom    1 type  2   force =    -0.00074280   -0.00000000    0.00158648
     atom    2 type  1   force =    -0.00067493   -0.00000000    0.00097415
     atom    3 type  2   force =     0.00074280    0.00000000    0.00158648
     atom    4 type  1   force =     0.00067493    0.00000000    0.00097415
     atom    5 type  2   force =    -0.00074280    0.00000000   -0.00158648
     atom    6 type  1   force =    -0.00067493   -0.00000000   -0.00097415
     atom    7 type  2   force =     0.00074280    0.00000000   -0.00158648
     atom    8 type  1   force =     0.00067493   -0.00000000   -0.00097415

     Total force =     0.010275     Total SCF correction =     0.000172

     DFT-D3 dispersion Force =     0.004230

     Writing all to output data dir ./tmp/SnSe_pnma.save/ :
     XML data file, charge density, pseudopotentials, collected wavefunctions
 
     init_run     :      3.42s CPU      3.80s WALL (       1 calls)
     electrons    :     79.52s CPU     83.97s WALL (       1 calls)
     forces       :      1.39s CPU      1.60s WALL (       1 calls)
     force_dftd3  :      0.11s CPU      0.11s WALL (       1 calls)

     Called by init_run:
     wfcinit      :      2.27s CPU      2.34s WALL (       1 calls)
     wfcinit:atom :      0.03s CPU      0.03s WALL (      11 calls)
     wfcinit:wfcr :      2.01s CPU      2.04s WALL (      11 calls)
     potinit      :      0.30s CPU      0.33s WALL (       1 calls)
     hinit0       :      0.29s CPU      0.31s WALL (       1 calls)

     Called by electrons:
     c_bands      :     58.98s CPU     59.48s WALL (      11 calls)
     sum_band     :     14.41s CPU     16.31s WALL (      11 calls)
     v_of_rho     :      2.47s CPU      2.60s WALL (      12 calls)
     v_h          :      0.19s CPU      0.19s WALL (      12 calls)
     v_xc         :      2.45s CPU      2.59s WALL (      13 calls)
     newd         :      3.76s CPU      5.86s WALL (      12 calls)
     mix_rho      :      0.26s CPU      0.28s WALL (      11 calls)
     energy_dftd3 :      0.04s CPU      0.04s WALL (       1 calls)

     Called by c_bands:
     init_us_2    :      1.59s CPU      1.62s WALL (     264 calls)
     cegterg      :     53.64s CPU     53.98s WALL (     121 calls)

     Called by sum_band:
     sum_band:wei :      0.00s CPU      0.00s WALL (      11 calls)
     sum_band:loo :     10.07s CPU     10.16s WALL (      11 calls)
     sum_band:buf :      0.10s CPU      0.10s WALL (     121 calls)
     sum_band:ini :      0.70s CPU      0.71s WALL (     121 calls)
     sum_band:cal :      0.93s CPU      0.93s WALL (     121 calls)
     sum_band:bec :      0.01s CPU      0.01s WALL (     121 calls)
     addusdens    :      3.94s CPU      5.68s WALL (      11 calls)
                                        0.00s GPU  (      11 calls)
     addusd:skk   :      0.03s CPU      0.04s WALL (      22 calls)
                                        0.00s GPU  (      22 calls)

     Called by *egterg:
     cdiaghg      :      0.89s CPU      0.89s WALL (     547 calls)
     cegterg:over :      2.33s CPU      2.33s WALL (     426 calls)
     cegterg:upda :      1.43s CPU      1.44s WALL (     426 calls)
     cegterg:last :      3.40s CPU      3.41s WALL (     314 calls)
     h_psi        :     42.63s CPU     42.95s WALL (     558 calls)
     s_psi        :      3.48s CPU      3.48s WALL (     558 calls)
     g_psi        :      0.14s CPU      0.14s WALL (     426 calls)

     Called by h_psi:
     h_psi:calbec :      3.11s CPU      3.13s WALL (     558 calls)
     vloc_psi     :     35.79s CPU     36.08s WALL (     558 calls)
     add_vuspsi   :      3.44s CPU      3.45s WALL (     558 calls)

     General routines
     calbec       :      4.37s CPU      4.39s WALL (     723 calls)
     fft          :      1.32s CPU      1.36s WALL (     165 calls)
     ffts         :      0.04s CPU      0.04s WALL (      23 calls)
     fftw         :     23.59s CPU     23.77s WALL (   35534 calls)
     interpolate  :      0.13s CPU      0.14s WALL (      12 calls)
 
     Parallel routines
 
     PWSCF        :   1m24.58s CPU   1m30.51s WALL

 
   This run was terminated on:  19:49:19  20May2026            

=------------------------------------------------------------------------------=
   JOB DONE.
=------------------------------------------------------------------------------=
