
     Program PWSCF v.7.3.1 starts on 20May2026 at 19:38:39 

     This program is part of the open-source Quantum ESPRESSO suite
     for quantum simulation of materials; please cite
         "P. Giannozzi et al., J. Phys.:Condens. Matter 21 395502 (2009);
         "P. Giannozzi et al., J. Phys.:Condens. Matter 29 465901 (2017);
         "P. Giannozzi et al., J. Chem. Phys. 152 154105 (2020);
          URL http://www.quantum-espresso.org", 
     in publications or presentations arising from this work. More details at
     http://www.quantum-espresso.org/quote

     Parallel version (MPI & OpenMP), running on       6 processor cores
     Number of MPI processes:                 6
     Threads/MPI process:                     1

     MPI processes distributed on     1 nodes
     5410 MiB available memory on the printing compute node when the environment starts
 
     Waiting for input...
     Reading input from standard input

     Current dimensions of program PWSCF are:
     Max number of different atomic species (ntypx) = 10
     Max number of k-points (npk) =  40000
     Max angular momentum in pseudopotentials (lmaxx) =  4
 
     K-points division:     npool     =       3
     R & G space division:  proc/nbgrp/npool/nimage =       2
     Subspace diagonalization in iterative solution of the eigenvalue problem:
     a serial algorithm will be used

 
     Parallelization info
     --------------------
     sticks:   dense  smooth     PW     G-vecs:    dense   smooth      PW
     Min        4086    1636    466               182891    46261    6977
     Max        4087    1637    467               182892    46262    6978
     Sum        8173    3273    933               365783    92523   13955
 
     Using Slab Decomposition
 


     bravais-lattice index     =            8
     lattice parameter (alat)  =      21.7130  a.u.
     unit-cell volume          =    1473.4470 (a.u.)^3
     number of atoms/cell      =            8
     number of atomic types    =            2
     number of electrons       =        80.00
     number of Kohn-Sham states=           40
     kinetic-energy cutoff     =      60.0000  Ry
     charge density cutoff     =     600.0000  Ry
     scf convergence threshold =      1.0E-08
     mixing beta               =       0.7000
     number of iterations used =            8  plain     mixing
     Exchange-correlation= SLA  PW   PBE  PBE
                           (   1   4   3   4   0   0   0)

     celldm(1)=  21.712953  celldm(2)=   0.363046  celldm(3)=   0.396475
     celldm(4)=   0.000000  celldm(5)=   0.000000  celldm(6)=   0.000000

     crystal axes: (cart. coord. in units of alat)
               a(1) = (   1.000000   0.000000   0.000000 )  
               a(2) = (   0.000000   0.363046   0.000000 )  
               a(3) = (   0.000000   0.000000   0.396475 )  

     reciprocal axes: (cart. coord. in units 2 pi/alat)
               b(1) = (  1.000000  0.000000  0.000000 )  
               b(2) = (  0.000000  2.754471  0.000000 )  
               b(3) = (  0.000000  0.000000  2.522226 )  


     PseudoPot. # 1 for Sn read from file:
     ../pseudo/Sn_pbe_v1.uspp.F.UPF
     MD5 check sum: 4cf58ce39ec5d5d420df3dd08604eb00
     Pseudo is Ultrasoft + core correction, Zval = 14.0
     Generated by new atomic code, or converted to UPF format
     Using radial grid of  891 points,  6 beta functions with: 
                l(1) =   0
                l(2) =   0
                l(3) =   1
                l(4) =   1
                l(5) =   2
                l(6) =   2
     Q(r) pseudized with  6 coefficients,  rinner =    1.200   1.200   1.200
                                                       1.200   1.200

     PseudoPot. # 2 for Se read from file:
     ../pseudo/Se_pbe_v1.uspp.F.UPF
     MD5 check sum: 1b3568f3a8ae88f9a2a0ad0698632c85
     Pseudo is Ultrasoft + core correction, Zval =  6.0
     Generated by new atomic code, or converted to UPF format
     Using radial grid of  877 points,  6 beta functions with: 
                l(1) =   0
                l(2) =   0
                l(3) =   1
                l(4) =   1
                l(5) =   2
                l(6) =   2
     Q(r) pseudized with  8 coefficients,  rinner =    1.300   1.300   1.300
                                                       1.300   1.300

     atomic species   valence    mass     pseudopotential
     Sn               14.00   118.71000     Sn( 1.00)
     Se                6.00    78.97100     Se( 1.00)

      8 Sym. Ops., with inversion, found ( 6 have fractional translation)


                                    s                        frac. trans.

      isym =  1     identity                                     

 cryst.   s( 1) = (     1          0          0      )
                  (     0          1          0      )
                  (     0          0          1      )

 cart.    s( 1) = (  1.0000000  0.0000000  0.0000000 )
                  (  0.0000000  1.0000000  0.0000000 )
                  (  0.0000000  0.0000000  1.0000000 )


      isym =  2     180 deg rotation - cart. axis [0,0,1]        

 cryst.   s( 2) = (    -1          0          0      )    f =(  0.5000000 )
                  (     0         -1          0      )       (  0.0000000 )
                  (     0          0          1      )       (  0.5000000 )

 cart.    s( 2) = ( -1.0000000  0.0000000  0.0000000 )    f =(  0.5000000 )
                  (  0.0000000 -1.0000000  0.0000000 )       (  0.0000000 )
                  (  0.0000000  0.0000000  1.0000000 )       (  0.1982376 )


      isym =  3     180 deg rotation - cart. axis [0,1,0]        

 cryst.   s( 3) = (    -1          0          0      )    f =(  0.0000000 )
                  (     0          1          0      )       (  0.5000000 )
                  (     0          0         -1      )       (  0.0000000 )

 cart.    s( 3) = ( -1.0000000  0.0000000  0.0000000 )    f =(  0.0000000 )
                  (  0.0000000  1.0000000  0.0000000 )       (  0.1815231 )
                  (  0.0000000  0.0000000 -1.0000000 )       (  0.0000000 )


      isym =  4     180 deg rotation - cart. axis [1,0,0]        

 cryst.   s( 4) = (     1          0          0      )    f =(  0.5000000 )
                  (     0         -1          0      )       (  0.5000000 )
                  (     0          0         -1      )       (  0.5000000 )

 cart.    s( 4) = (  1.0000000  0.0000000  0.0000000 )    f =(  0.5000000 )
                  (  0.0000000 -1.0000000  0.0000000 )       (  0.1815231 )
                  (  0.0000000  0.0000000 -1.0000000 )       (  0.1982376 )


      isym =  5     inversion                                    

 cryst.   s( 5) = (    -1          0          0      )
                  (     0         -1          0      )
                  (     0          0         -1      )

 cart.    s( 5) = ( -1.0000000  0.0000000  0.0000000 )
                  (  0.0000000 -1.0000000  0.0000000 )
                  (  0.0000000  0.0000000 -1.0000000 )


      isym =  6     inv. 180 deg rotation - cart. axis [0,0,1]   

 cryst.   s( 6) = (     1          0          0      )    f =(  0.5000000 )
                  (     0          1          0      )       (  0.0000000 )
                  (     0          0         -1      )       (  0.5000000 )

 cart.    s( 6) = (  1.0000000  0.0000000  0.0000000 )    f =(  0.5000000 )
                  (  0.0000000  1.0000000  0.0000000 )       (  0.0000000 )
                  (  0.0000000  0.0000000 -1.0000000 )       (  0.1982376 )


      isym =  7     inv. 180 deg rotation - cart. axis [0,1,0]   

 cryst.   s( 7) = (     1          0          0      )    f =(  0.0000000 )
                  (     0         -1          0      )       (  0.5000000 )
                  (     0          0          1      )       (  0.0000000 )

 cart.    s( 7) = (  1.0000000  0.0000000  0.0000000 )    f =(  0.0000000 )
                  (  0.0000000 -1.0000000  0.0000000 )       (  0.1815231 )
                  (  0.0000000  0.0000000  1.0000000 )       (  0.0000000 )


      isym =  8     inv. 180 deg rotation - cart. axis [1,0,0]   

 cryst.   s( 8) = (    -1          0          0      )    f =(  0.5000000 )
                  (     0          1          0      )       (  0.5000000 )
                  (     0          0          1      )       (  0.5000000 )

 cart.    s( 8) = ( -1.0000000  0.0000000  0.0000000 )    f =(  0.5000000 )
                  (  0.0000000  1.0000000  0.0000000 )       (  0.1815231 )
                  (  0.0000000  0.0000000  1.0000000 )       (  0.1982376 )


     point group D_2h (mmm) 
     there are  8 classes
     the character table:

       E     C2    C2'   C2''  i     s_v   s_v'  s_v''
A_g    1.00  1.00  1.00  1.00  1.00  1.00  1.00  1.00
B_1g   1.00  1.00 -1.00 -1.00  1.00  1.00 -1.00 -1.00
B_2g   1.00 -1.00  1.00 -1.00  1.00 -1.00  1.00 -1.00
B_3g   1.00 -1.00 -1.00  1.00  1.00 -1.00 -1.00  1.00
A_u    1.00  1.00  1.00  1.00 -1.00 -1.00 -1.00 -1.00
B_1u   1.00  1.00 -1.00 -1.00 -1.00 -1.00  1.00  1.00
B_2u   1.00 -1.00  1.00 -1.00 -1.00  1.00 -1.00  1.00
B_3u   1.00 -1.00 -1.00  1.00 -1.00  1.00  1.00 -1.00

     the symmetry operations in each class and the name of the first element:

     E        1
          identity                                               
     C2       2
          180 deg rotation - cart. axis [0,0,1]                  
     C2'      4
          180 deg rotation - cart. axis [1,0,0]                  
     C2''     3
          180 deg rotation - cart. axis [0,1,0]                  
     i        5
          inversion                                              
     s_v      6
          inv. 180 deg rotation - cart. axis [0,0,1]             
     s_v'     8
          inv. 180 deg rotation - cart. axis [1,0,0]             
     s_v''    7
          inv. 180 deg rotation - cart. axis [0,1,0]             

   Cartesian axes

     site n.     atom                  positions (alat units)
         1        Se     tau(   1) = (   0.8549563   0.0907615   0.1915959  )
         2        Sn     tau(   2) = (   0.1165395   0.0907615   0.0445190  )
         3        Se     tau(   3) = (   0.6450437   0.2722846   0.3898335  )
         4        Sn     tau(   4) = (   0.3834605   0.2722846   0.2427566  )
         5        Se     tau(   5) = (   0.3549563   0.0907615   0.0066417  )
         6        Sn     tau(   6) = (   0.6165395   0.0907615   0.1537186  )
         7        Se     tau(   7) = (   0.1450437   0.2722846   0.2048793  )
         8        Sn     tau(   8) = (   0.8834605   0.2722846   0.3519562  )

     --------------------------------------------
     DFT-D3 Dispersion Correction (3-body terms):
     --------------------------------------------
       Reference C6 values for interpolation: 

         atom   Coordination number   C6
         Se         0.000           427.35
         Se         0.990           427.57
         Se         1.981           421.05
         Sn         0.000          1255.14
         Sn         0.951          1084.09
         Sn         1.950          1010.83
         Sn         2.926           818.29
         Sn         3.912           672.20

       Values used:

         atom   Coordination number  R0_AB[au]  C6      C8
         Se         3.434            3.332    421.05  29958.36
         Sn         4.147            3.957    672.64  84423.54
         Se         3.434            3.332    421.05  29958.36
         Sn         4.147            3.957    672.64  84423.54
         Se         3.434            3.332    421.05  29958.36
         Sn         4.147            3.957    672.64  84423.54
         Se         3.434            3.332    421.05  29958.36
         Sn         4.147            3.957    672.64  84423.54

         Molecular C6 ( Ry / a.u.^6 ) =     34508.54


   Crystallographic axes

     site n.     atom                  positions (cryst. coord.)
         1        Se     tau(   1) = (  0.8549563  0.2500000  0.4832481  )
         2        Sn     tau(   2) = (  0.1165395  0.2500000  0.1122870  )
         3        Se     tau(   3) = (  0.6450437  0.7500000  0.9832481  )
         4        Sn     tau(   4) = (  0.3834605  0.7500000  0.6122870  )
         5        Se     tau(   5) = (  0.3549563  0.2500000  0.0167519  )
         6        Sn     tau(   6) = (  0.6165395  0.2500000  0.3877130  )
         7        Se     tau(   7) = (  0.1450437  0.7500000  0.5167519  )
         8        Sn     tau(   8) = (  0.8834605  0.7500000  0.8877130  )

     number of k points=    32
                       cart. coord. in units 2pi/alat
        k(    1) = (   0.1666667   0.1721544   0.1576391), wk =   0.0833333
        k(    2) = (   0.1666667   0.1721544   0.4729174), wk =   0.0833333
        k(    3) = (   0.1666667   0.1721544   0.7881956), wk =   0.0833333
        k(    4) = (   0.1666667   0.1721544   1.1034738), wk =   0.0833333
        k(    5) = (   0.1666667   0.5164633   0.1576391), wk =   0.0833333
        k(    6) = (   0.1666667   0.5164633   0.4729174), wk =   0.0833333
        k(    7) = (   0.1666667   0.5164633   0.7881956), wk =   0.0833333
        k(    8) = (   0.1666667   0.5164633   1.1034738), wk =   0.0833333
        k(    9) = (   0.1666667   0.8607722   0.1576391), wk =   0.0833333
        k(   10) = (   0.1666667   0.8607722   0.4729174), wk =   0.0833333
        k(   11) = (   0.1666667   0.8607722   0.7881956), wk =   0.0833333
        k(   12) = (   0.1666667   0.8607722   1.1034738), wk =   0.0833333
        k(   13) = (   0.1666667   1.2050810   0.1576391), wk =   0.0833333
        k(   14) = (   0.1666667   1.2050810   0.4729174), wk =   0.0833333
        k(   15) = (   0.1666667   1.2050810   0.7881956), wk =   0.0833333
        k(   16) = (   0.1666667   1.2050810   1.1034738), wk =   0.0833333
        k(   17) = (  -0.5000000   0.1721544   0.1576391), wk =   0.0416667
        k(   18) = (  -0.5000000   0.1721544   0.4729174), wk =   0.0416667
        k(   19) = (  -0.5000000   0.1721544   0.7881956), wk =   0.0416667
        k(   20) = (  -0.5000000   0.1721544   1.1034738), wk =   0.0416667
        k(   21) = (  -0.5000000   0.5164633   0.1576391), wk =   0.0416667
        k(   22) = (  -0.5000000   0.5164633   0.4729174), wk =   0.0416667
        k(   23) = (  -0.5000000   0.5164633   0.7881956), wk =   0.0416667
        k(   24) = (  -0.5000000   0.5164633   1.1034738), wk =   0.0416667
        k(   25) = (  -0.5000000   0.8607722   0.1576391), wk =   0.0416667
        k(   26) = (  -0.5000000   0.8607722   0.4729174), wk =   0.0416667
        k(   27) = (  -0.5000000   0.8607722   0.7881956), wk =   0.0416667
        k(   28) = (  -0.5000000   0.8607722   1.1034738), wk =   0.0416667
        k(   29) = (  -0.5000000   1.2050810   0.1576391), wk =   0.0416667
        k(   30) = (  -0.5000000   1.2050810   0.4729174), wk =   0.0416667
        k(   31) = (  -0.5000000   1.2050810   0.7881956), wk =   0.0416667
        k(   32) = (  -0.5000000   1.2050810   1.1034738), wk =   0.0416667

                       cryst. coord.
        k(    1) = (   0.1666667   0.0625000   0.0625000), wk =   0.0833333
        k(    2) = (   0.1666667   0.0625000   0.1875000), wk =   0.0833333
        k(    3) = (   0.1666667   0.0625000   0.3125000), wk =   0.0833333
        k(    4) = (   0.1666667   0.0625000   0.4375000), wk =   0.0833333
        k(    5) = (   0.1666667   0.1875000   0.0625000), wk =   0.0833333
        k(    6) = (   0.1666667   0.1875000   0.1875000), wk =   0.0833333
        k(    7) = (   0.1666667   0.1875000   0.3125000), wk =   0.0833333
        k(    8) = (   0.1666667   0.1875000   0.4375000), wk =   0.0833333
        k(    9) = (   0.1666667   0.3125000   0.0625000), wk =   0.0833333
        k(   10) = (   0.1666667   0.3125000   0.1875000), wk =   0.0833333
        k(   11) = (   0.1666667   0.3125000   0.3125000), wk =   0.0833333
        k(   12) = (   0.1666667   0.3125000   0.4375000), wk =   0.0833333
        k(   13) = (   0.1666667   0.4375000   0.0625000), wk =   0.0833333
        k(   14) = (   0.1666667   0.4375000   0.1875000), wk =   0.0833333
        k(   15) = (   0.1666667   0.4375000   0.3125000), wk =   0.0833333
        k(   16) = (   0.1666667   0.4375000   0.4375000), wk =   0.0833333
        k(   17) = (  -0.5000000   0.0625000   0.0625000), wk =   0.0416667
        k(   18) = (  -0.5000000   0.0625000   0.1875000), wk =   0.0416667
        k(   19) = (  -0.5000000   0.0625000   0.3125000), wk =   0.0416667
        k(   20) = (  -0.5000000   0.0625000   0.4375000), wk =   0.0416667
        k(   21) = (  -0.5000000   0.1875000   0.0625000), wk =   0.0416667
        k(   22) = (  -0.5000000   0.1875000   0.1875000), wk =   0.0416667
        k(   23) = (  -0.5000000   0.1875000   0.3125000), wk =   0.0416667
        k(   24) = (  -0.5000000   0.1875000   0.4375000), wk =   0.0416667
        k(   25) = (  -0.5000000   0.3125000   0.0625000), wk =   0.0416667
        k(   26) = (  -0.5000000   0.3125000   0.1875000), wk =   0.0416667
        k(   27) = (  -0.5000000   0.3125000   0.3125000), wk =   0.0416667
        k(   28) = (  -0.5000000   0.3125000   0.4375000), wk =   0.0416667
        k(   29) = (  -0.5000000   0.4375000   0.0625000), wk =   0.0416667
        k(   30) = (  -0.5000000   0.4375000   0.1875000), wk =   0.0416667
        k(   31) = (  -0.5000000   0.4375000   0.3125000), wk =   0.0416667
        k(   32) = (  -0.5000000   0.4375000   0.4375000), wk =   0.0416667

     Dense  grid:   365783 G-vectors     FFT dimensions: ( 180,  64,  72)

     Smooth grid:    92523 G-vectors     FFT dimensions: ( 108,  40,  48)

     Dynamical RAM for                 wfc:       3.53 MB

     Dynamical RAM for     wfc (w. buffer):      42.35 MB

     Dynamical RAM for           str. fact:       5.58 MB

     Dynamical RAM for           local pot:       0.00 MB

     Dynamical RAM for          nlocal pot:      12.70 MB

     Dynamical RAM for                qrad:       3.93 MB

     Dynamical RAM for          rho,v,vnew:      17.86 MB

     Dynamical RAM for               rhoin:       5.95 MB

     Dynamical RAM for            rho*nmix:      44.65 MB

     Dynamical RAM for           G-vectors:      10.82 MB

     Dynamical RAM for          h,s,v(r/c):       0.29 MB

     Dynamical RAM for          <psi|beta>:       0.09 MB

     Dynamical RAM for                 psi:       7.06 MB

     Dynamical RAM for                hpsi:       7.06 MB

     Dynamical RAM for                spsi:       7.06 MB

     Dynamical RAM for      wfcinit/wfcrot:       9.24 MB

     Dynamical RAM for           addusdens:     178.61 MB

     Dynamical RAM for          addusforce:     183.74 MB

     Estimated static dynamical RAM per process >     123.39 MB

     Estimated max dynamical RAM per process >     351.78 MB

     Estimated total dynamical RAM >       1.89 GB

     Initial potential from superposition of free atoms

     starting charge      75.9995, renormalised to      80.0000
     Starting wfcs are   52 randomized atomic wfcs

     total cpu time spent up to now is        3.8 secs

     Self-consistent Calculation

     iteration #  1     ecut=    60.00 Ry     beta= 0.70
     Davidson diagonalization with overlap

---- Real-time Memory Report at c_bands before calling an iterative solver
           394 MiB given to the printing process from OS
             0 MiB allocation reported by mallinfo(arena+hblkhd)
          4307 MiB available memory on the node where the printing process lives
------------------
     ethr =  1.00E-02,  avg # of iterations =  2.0

     total cpu time spent up to now is       10.6 secs

     total energy              =    -826.63627466 Ry
     estimated scf accuracy    <       2.68346660 Ry

     iteration #  2     ecut=    60.00 Ry     beta= 0.70
     Davidson diagonalization with overlap

---- Real-time Memory Report at c_bands before calling an iterative solver
           497 MiB given to the printing process from OS
             0 MiB allocation reported by mallinfo(arena+hblkhd)
          4103 MiB available memory on the node where the printing process lives
------------------
     ethr =  3.35E-03,  avg # of iterations =  3.0

     total cpu time spent up to now is       18.2 secs

     total energy              =    -827.54255779 Ry
     estimated scf accuracy    <       0.98692455 Ry

     iteration #  3     ecut=    60.00 Ry     beta= 0.70
     Davidson diagonalization with overlap

---- Real-time Memory Report at c_bands before calling an iterative solver
           532 MiB given to the printing process from OS
             0 MiB allocation reported by mallinfo(arena+hblkhd)
          3951 MiB available memory on the node where the printing process lives
------------------
     ethr =  1.23E-03,  avg # of iterations =  2.5

     total cpu time spent up to now is       25.2 secs

     total energy              =    -827.74198297 Ry
     estimated scf accuracy    <       0.01023829 Ry

     iteration #  4     ecut=    60.00 Ry     beta= 0.70
     Davidson diagonalization with overlap

---- Real-time Memory Report at c_bands before calling an iterative solver
           537 MiB given to the printing process from OS
             0 MiB allocation reported by mallinfo(arena+hblkhd)
          3941 MiB available memory on the node where the printing process lives
------------------
     ethr =  1.28E-05,  avg # of iterations =  4.9

     total cpu time spent up to now is       34.0 secs

     total energy              =    -827.74853073 Ry
     estimated scf accuracy    <       0.00517773 Ry

     iteration #  5     ecut=    60.00 Ry     beta= 0.70
     Davidson diagonalization with overlap

---- Real-time Memory Report at c_bands before calling an iterative solver
           539 MiB given to the printing process from OS
             0 MiB allocation reported by mallinfo(arena+hblkhd)
          3934 MiB available memory on the node where the printing process lives
------------------
     ethr =  6.47E-06,  avg # of iterations =  3.0

     total cpu time spent up to now is       41.2 secs

     total energy              =    -827.75017586 Ry
     estimated scf accuracy    <       0.00070672 Ry

     iteration #  6     ecut=    60.00 Ry     beta= 0.70
     Davidson diagonalization with overlap

---- Real-time Memory Report at c_bands before calling an iterative solver
           542 MiB given to the printing process from OS
             0 MiB allocation reported by mallinfo(arena+hblkhd)
          3932 MiB available memory on the node where the printing process lives
------------------
     ethr =  8.83E-07,  avg # of iterations =  2.0

     total cpu time spent up to now is       47.4 secs

     total energy              =    -827.75014796 Ry
     estimated scf accuracy    <       0.00026614 Ry

     iteration #  7     ecut=    60.00 Ry     beta= 0.70
     Davidson diagonalization with overlap

---- Real-time Memory Report at c_bands before calling an iterative solver
           544 MiB given to the printing process from OS
             0 MiB allocation reported by mallinfo(arena+hblkhd)
          3930 MiB available memory on the node where the printing process lives
------------------
     ethr =  3.33E-07,  avg # of iterations =  2.0

     total cpu time spent up to now is       53.8 secs

     total energy              =    -827.75018563 Ry
     estimated scf accuracy    <       0.00001023 Ry

     iteration #  8     ecut=    60.00 Ry     beta= 0.70
     Davidson diagonalization with overlap

---- Real-time Memory Report at c_bands before calling an iterative solver
           547 MiB given to the printing process from OS
             0 MiB allocation reported by mallinfo(arena+hblkhd)
          3927 MiB available memory on the node where the printing process lives
------------------
     ethr =  1.28E-08,  avg # of iterations =  5.9

     total cpu time spent up to now is       64.0 secs

     total energy              =    -827.75019709 Ry
     estimated scf accuracy    <       0.00001062 Ry

     iteration #  9     ecut=    60.00 Ry     beta= 0.70
     Davidson diagonalization with overlap

---- Real-time Memory Report at c_bands before calling an iterative solver
           549 MiB given to the printing process from OS
             0 MiB allocation reported by mallinfo(arena+hblkhd)
          3922 MiB available memory on the node where the printing process lives
------------------
     ethr =  1.28E-08,  avg # of iterations =  2.1

     total cpu time spent up to now is       70.4 secs

     total energy              =    -827.75019842 Ry
     estimated scf accuracy    <       0.00000045 Ry

     iteration # 10     ecut=    60.00 Ry     beta= 0.70
     Davidson diagonalization with overlap

---- Real-time Memory Report at c_bands before calling an iterative solver
           553 MiB given to the printing process from OS
             0 MiB allocation reported by mallinfo(arena+hblkhd)
          3912 MiB available memory on the node where the printing process lives
------------------
     ethr =  5.59E-10,  avg # of iterations =  4.8

     total cpu time spent up to now is       78.8 secs

     total energy              =    -827.75019869 Ry
     estimated scf accuracy    <       0.00000003 Ry

     iteration # 11     ecut=    60.00 Ry     beta= 0.70
     Davidson diagonalization with overlap

---- Real-time Memory Report at c_bands before calling an iterative solver
           554 MiB given to the printing process from OS
             0 MiB allocation reported by mallinfo(arena+hblkhd)
          3912 MiB available memory on the node where the printing process lives
------------------
     ethr =  4.33E-11,  avg # of iterations =  5.2

     total cpu time spent up to now is       87.5 secs

     End of self-consistent calculation

          k = 0.1667 0.1722 0.1576 ( 11585 PWs)   bands (ev):

   -13.6932 -13.6841 -13.6802 -13.6772 -13.6767 -13.6746 -13.6705 -13.6683
   -13.6633 -13.6583 -13.6575 -13.6570 -13.6464 -13.6427 -13.6255 -13.6232
   -13.6183 -13.6171 -13.6083 -13.6026  -5.9494  -5.6651  -4.9668  -4.5807
     0.4027   1.2477   2.0978   2.4693   3.0429   4.2672   4.4065   4.6778
     4.9334   4.9939   5.5616   5.8751   6.1162   6.5092   6.9050   7.2002

     occupation numbers 
     1.0000   1.0000   1.0000   1.0000   1.0000   1.0000   1.0000   1.0000
     1.0000   1.0000   1.0000   1.0000   1.0000   1.0000   1.0000   1.0000
     1.0000   1.0000   1.0000   1.0000   1.0000   1.0000   1.0000   1.0000
     1.0000   1.0000   1.0000   1.0000   1.0000   1.0000   1.0000   1.0000
     1.0000   1.0000   1.0000   1.0000   1.0000   1.0000   1.0000   1.0000

          k = 0.1667 0.1722 0.4729 ( 11584 PWs)   bands (ev):

   -13.6918 -13.6836 -13.6802 -13.6782 -13.6766 -13.6757 -13.6710 -13.6689
   -13.6631 -13.6586 -13.6554 -13.6544 -13.6458 -13.6429 -13.6257 -13.6225
   -13.6193 -13.6176 -13.6078 -13.6031  -5.8339  -5.5593  -4.9643  -4.6152
     0.0868   0.9888   1.5666   2.1411   3.1390   4.3123   4.5236   5.0531
     5.2608   5.5199   5.5694   5.9830   6.3711   6.6750   6.9688   7.2150

     occupation numbers 
     1.0000   1.0000   1.0000   1.0000   1.0000   1.0000   1.0000   1.0000
     1.0000   1.0000   1.0000   1.0000   1.0000   1.0000   1.0000   1.0000
     1.0000   1.0000   1.0000   1.0000   1.0000   1.0000   1.0000   1.0000
     1.0000   1.0000   1.0000   1.0000   1.0000   1.0000   1.0000   1.0000
     1.0000   1.0000   1.0000   1.0000   1.0000   1.0000   1.0000   1.0000

          k = 0.1667 0.1722 0.7882 ( 11565 PWs)   bands (ev):

   -13.6895 -13.6832 -13.6805 -13.6795 -13.6773 -13.6765 -13.6716 -13.6700
   -13.6623 -13.6592 -13.6519 -13.6506 -13.6454 -13.6435 -13.6255 -13.6219
   -13.6205 -13.6184 -13.6071 -13.6039  -5.6263  -5.3708  -4.9982  -4.7067
    -0.2243   0.4855   1.1275   1.6588   3.4413   4.5432   4.7439   5.3244
     5.5467   5.6863   5.9369   6.0560   6.5401   7.0090   7.0361   7.4653

     occupation numbers 
     1.0000   1.0000   1.0000   1.0000   1.0000   1.0000   1.0000   1.0000
     1.0000   1.0000   1.0000   1.0000   1.0000   1.0000   1.0000   1.0000
     1.0000   1.0000   1.0000   1.0000   1.0000   1.0000   1.0000   1.0000
     1.0000   1.0000   1.0000   1.0000   1.0000   1.0000   1.0000   1.0000
     1.0000   1.0000   1.0000   1.0000   1.0000   1.0000   1.0000   1.0000

          k = 0.1667 0.1722 1.1035 ( 11555 PWs)   bands (ev):

   -13.6868 -13.6844 -13.6807 -13.6803 -13.6777 -13.6771 -13.6717 -13.6711
   -13.6612 -13.6601 -13.6484 -13.6472 -13.6461 -13.6448 -13.6245 -13.6230
   -13.6202 -13.6193 -13.6060 -13.6049  -5.3788  -5.2052  -5.0540  -4.8720
    -0.2870  -0.0243   1.0324   1.2364   3.9118   4.4213   5.1159   5.3817
     5.5960   5.7210   5.9759   6.2590   6.8284   7.1417   7.3118   7.3969

     occupation numbers 
     1.0000   1.0000   1.0000   1.0000   1.0000   1.0000   1.0000   1.0000
     1.0000   1.0000   1.0000   1.0000   1.0000   1.0000   1.0000   1.0000
     1.0000   1.0000   1.0000   1.0000   1.0000   1.0000   1.0000   1.0000
     1.0000   1.0000   1.0000   1.0000   1.0000   1.0000   1.0000   1.0000
     1.0000   1.0000   1.0000   1.0000   1.0000   1.0000   1.0000   1.0000

          k = 0.1667 0.5165 0.1576 ( 11593 PWs)   bands (ev):

   -13.6875 -13.6823 -13.6794 -13.6761 -13.6754 -13.6743 -13.6736 -13.6711
   -13.6646 -13.6608 -13.6562 -13.6539 -13.6443 -13.6433 -13.6253 -13.6231
   -13.6206 -13.6167 -13.6080 -13.6038  -5.7892  -5.5269  -4.9003  -4.5769
     0.2531   0.9934   1.7738   1.8817   3.1579   4.1384   4.4408   4.7614
     5.0666   5.2391   5.5831   5.9212   6.1511   6.7788   7.0360   7.1374

     occupation numbers 
     1.0000   1.0000   1.0000   1.0000   1.0000   1.0000   1.0000   1.0000
     1.0000   1.0000   1.0000   1.0000   1.0000   1.0000   1.0000   1.0000
     1.0000   1.0000   1.0000   1.0000   1.0000   1.0000   1.0000   1.0000
     1.0000   1.0000   1.0000   1.0000   1.0000   1.0000   1.0000   1.0000
     1.0000   1.0000   1.0000   1.0000   1.0000   1.0000   1.0000   1.0000

          k = 0.1667 0.5165 0.4729 ( 11570 PWs)   bands (ev):

   -13.6874 -13.6822 -13.6809 -13.6767 -13.6756 -13.6746 -13.6730 -13.6722
   -13.6643 -13.6610 -13.6540 -13.6517 -13.6447 -13.6425 -13.6251 -13.6228
   -13.6208 -13.6175 -13.6076 -13.6041  -5.6795  -5.4275  -4.8954  -4.6011
     0.0937   0.9258   1.4215   1.7836   3.2906   3.7381   4.0259   4.8380
     5.0360   5.5885   5.7959   5.9609   6.5841   6.7166   7.0287   7.2069

     occupation numbers 
     1.0000   1.0000   1.0000   1.0000   1.0000   1.0000   1.0000   1.0000
     1.0000   1.0000   1.0000   1.0000   1.0000   1.0000   1.0000   1.0000
     1.0000   1.0000   1.0000   1.0000   1.0000   1.0000   1.0000   1.0000
     1.0000   1.0000   1.0000   1.0000   1.0000   1.0000   1.0000   1.0000
     1.0000   1.0000   1.0000   1.0000   1.0000   1.0000   1.0000   1.0000

          k = 0.1667 0.5165 0.7882 ( 11560 PWs)   bands (ev):

   -13.6874 -13.6836 -13.6814 -13.6779 -13.6762 -13.6743 -13.6737 -13.6725
   -13.6635 -13.6613 -13.6509 -13.6483 -13.6448 -13.6422 -13.6245 -13.6225
   -13.6212 -13.6188 -13.6069 -13.6045  -5.4846  -5.2526  -4.9210  -4.6719
    -0.0838   0.5926   1.1590   1.5555   3.5485   3.6904   3.9756   4.7520
     4.8641   5.6143   5.6792   6.2357   6.4549   6.7118   6.9169   7.2040

     occupation numbers 
     1.0000   1.0000   1.0000   1.0000   1.0000   1.0000   1.0000   1.0000
     1.0000   1.0000   1.0000   1.0000   1.0000   1.0000   1.0000   1.0000
     1.0000   1.0000   1.0000   1.0000   1.0000   1.0000   1.0000   1.0000
     1.0000   1.0000   1.0000   1.0000   1.0000   1.0000   1.0000   1.0000
     1.0000   1.0000   1.0000   1.0000   1.0000   1.0000   1.0000   1.0000

          k = 0.1667 0.5165 1.1035 ( 11535 PWs)   bands (ev):

   -13.6870 -13.6857 -13.6806 -13.6794 -13.6762 -13.6754 -13.6734 -13.6727
   -13.6626 -13.6619 -13.6480 -13.6465 -13.6443 -13.6427 -13.6235 -13.6226
   -13.6210 -13.6201 -13.6061 -13.6052  -5.2566  -5.1009  -4.9674  -4.8090
    -0.0946   0.1531   1.1390   1.2944   3.8666   3.9290   4.2005   4.4780
     4.7750   5.0998   5.7498   6.0343   6.4034   6.6517   6.9168   7.1052

     occupation numbers 
     1.0000   1.0000   1.0000   1.0000   1.0000   1.0000   1.0000   1.0000
     1.0000   1.0000   1.0000   1.0000   1.0000   1.0000   1.0000   1.0000
     1.0000   1.0000   1.0000   1.0000   1.0000   1.0000   1.0000   1.0000
     1.0000   1.0000   1.0000   1.0000   1.0000   1.0000   1.0000   1.0000
     1.0000   1.0000   1.0000   1.0000   1.0000   1.0000   1.0000   1.0000

          k = 0.1667 0.8608 0.1576 ( 11562 PWs)   bands (ev):

   -13.6854 -13.6832 -13.6811 -13.6805 -13.6736 -13.6708 -13.6700 -13.6684
   -13.6635 -13.6628 -13.6561 -13.6498 -13.6454 -13.6408 -13.6292 -13.6282
   -13.6178 -13.6136 -13.6074 -13.6056  -5.4976  -5.2871  -4.8284  -4.6313
     0.0501   0.6676   1.0058   1.3304   3.4966   4.2561   4.6242   4.9689
     5.3226   5.3944   5.7274   5.9100   6.2770   6.7573   6.8660   7.2329

     occupation numbers 
     1.0000   1.0000   1.0000   1.0000   1.0000   1.0000   1.0000   1.0000
     1.0000   1.0000   1.0000   1.0000   1.0000   1.0000   1.0000   1.0000
     1.0000   1.0000   1.0000   1.0000   1.0000   1.0000   1.0000   1.0000
     1.0000   1.0000   1.0000   1.0000   1.0000   1.0000   1.0000   1.0000
     1.0000   1.0000   1.0000   1.0000   1.0000   1.0000   1.0000   1.0000

          k = 0.1667 0.8608 0.4729 ( 11559 PWs)   bands (ev):

   -13.6879 -13.6850 -13.6826 -13.6811 -13.6742 -13.6700 -13.6695 -13.6683
   -13.6630 -13.6625 -13.6543 -13.6486 -13.6449 -13.6403 -13.6287 -13.6277
   -13.6178 -13.6143 -13.6072 -13.6055  -5.4019  -5.2024  -4.8150  -4.6322
     0.0884   0.7611   1.0349   1.2603   3.4991   3.6143   3.9681   4.5625
     4.9940   5.5455   5.6313   6.0841   6.1770   6.5316   6.7548   6.9951

     occupation numbers 
     1.0000   1.0000   1.0000   1.0000   1.0000   1.0000   1.0000   1.0000
     1.0000   1.0000   1.0000   1.0000   1.0000   1.0000   1.0000   1.0000
     1.0000   1.0000   1.0000   1.0000   1.0000   1.0000   1.0000   1.0000
     1.0000   1.0000   1.0000   1.0000   1.0000   1.0000   1.0000   1.0000
     1.0000   1.0000   1.0000   1.0000   1.0000   1.0000   1.0000   1.0000

          k = 0.1667 0.8608 0.7882 ( 11566 PWs)   bands (ev):

   -13.6906 -13.6882 -13.6842 -13.6829 -13.6738 -13.6702 -13.6688 -13.6680
   -13.6622 -13.6621 -13.6518 -13.6478 -13.6431 -13.6398 -13.6278 -13.6271
   -13.6177 -13.6153 -13.6067 -13.6056  -5.2365  -5.0579  -4.8187  -4.6573
     0.1464   0.7173   1.0896   1.2572   3.1129   3.4518   3.8841   4.1464
     4.4553   5.0401   5.3510   5.7080   6.0104   6.2736   6.4900   6.9581

     occupation numbers 
     1.0000   1.0000   1.0000   1.0000   1.0000   1.0000   1.0000   1.0000
     1.0000   1.0000   1.0000   1.0000   1.0000   1.0000   1.0000   1.0000
     1.0000   1.0000   1.0000   1.0000   1.0000   1.0000   1.0000   1.0000
     1.0000   1.0000   1.0000   1.0000   1.0000   1.0000   1.0000   1.0000
     1.0000   1.0000   1.0000   1.0000   1.0000   1.0000   1.0000   1.0000

          k = 0.1667 0.8608 1.1035 ( 11553 PWs)   bands (ev):

   -13.6918 -13.6910 -13.6852 -13.6847 -13.6727 -13.6713 -13.6683 -13.6680
   -13.6617 -13.6617 -13.6496 -13.6481 -13.6411 -13.6399 -13.6270 -13.6267
   -13.6171 -13.6163 -13.6062 -13.6058  -5.0528  -4.9371  -4.8418  -4.7339
     0.2503   0.4575   1.2190   1.2753   3.1286   3.4706   3.5513   3.9309
     4.3113   4.7142   5.0614   5.4546   5.6704   5.9301   6.5726   6.7114

     occupation numbers 
     1.0000   1.0000   1.0000   1.0000   1.0000   1.0000   1.0000   1.0000
     1.0000   1.0000   1.0000   1.0000   1.0000   1.0000   1.0000   1.0000
     1.0000   1.0000   1.0000   1.0000   1.0000   1.0000   1.0000   1.0000
     1.0000   1.0000   1.0000   1.0000   1.0000   1.0000   1.0000   1.0000
     1.0000   1.0000   1.0000   1.0000   1.0000   1.0000   1.0000   1.0000

          k = 0.1667 1.2051 0.1576 ( 11551 PWs)   bands (ev):

   -13.6872 -13.6857 -13.6844 -13.6831 -13.6701 -13.6685 -13.6669 -13.6656
   -13.6608 -13.6586 -13.6573 -13.6520 -13.6421 -13.6376 -13.6353 -13.6334
   -13.6128 -13.6103 -13.6083 -13.6079  -5.1403  -5.0255  -4.8520  -4.8200
     0.0192   0.3429   0.5745   0.8318   4.0133   4.4597   4.8391   5.1601
     5.3443   5.3950   5.8005   6.0711   6.4024   6.6058   6.6682   6.8340

     occupation numbers 
     1.0000   1.0000   1.0000   1.0000   1.0000   1.0000   1.0000   1.0000
     1.0000   1.0000   1.0000   1.0000   1.0000   1.0000   1.0000   1.0000
     1.0000   1.0000   1.0000   1.0000   1.0000   1.0000   1.0000   1.0000
     1.0000   1.0000   1.0000   1.0000   1.0000   1.0000   1.0000   1.0000
     1.0000   1.0000   1.0000   1.0000   1.0000   1.0000   1.0000   1.0000

          k = 0.1667 1.2051 0.4729 ( 11568 PWs)   bands (ev):

   -13.6898 -13.6884 -13.6860 -13.6849 -13.6704 -13.6686 -13.6658 -13.6649
   -13.6604 -13.6587 -13.6556 -13.6515 -13.6411 -13.6381 -13.6334 -13.6324
   -13.6130 -13.6110 -13.6078 -13.6076  -5.0700  -4.9647  -4.8191  -4.7854
     0.1647   0.4809   0.7002   0.8821   3.7708   3.9635   4.2317   4.5163
     4.6975   5.1455   5.5972   5.7839   5.9044   6.1904   6.6644   6.9266

     occupation numbers 
     1.0000   1.0000   1.0000   1.0000   1.0000   1.0000   1.0000   1.0000
     1.0000   1.0000   1.0000   1.0000   1.0000   1.0000   1.0000   1.0000
     1.0000   1.0000   1.0000   1.0000   1.0000   1.0000   1.0000   1.0000
     1.0000   1.0000   1.0000   1.0000   1.0000   1.0000   1.0000   1.0000
     1.0000   1.0000   1.0000   1.0000   1.0000   1.0000   1.0000   1.0000

          k = 0.1667 1.2051 0.7882 ( 11560 PWs)   bands (ev):

   -13.6931 -13.6921 -13.6883 -13.6876 -13.6705 -13.6690 -13.6648 -13.6643
   -13.6596 -13.6584 -13.6538 -13.6512 -13.6396 -13.6379 -13.6313 -13.6309
   -13.6131 -13.6118 -13.6074 -13.6073  -4.9564  -4.8691  -4.7802  -4.7421
     0.4109   0.6941   0.8971   0.9594   3.1261   3.5735   3.6748   4.0098
     4.2555   4.6084   4.9359   5.3985   5.4970   5.7613   6.5233   6.6658

     occupation numbers 
     1.0000   1.0000   1.0000   1.0000   1.0000   1.0000   1.0000   1.0000
     1.0000   1.0000   1.0000   1.0000   1.0000   1.0000   1.0000   1.0000
     1.0000   1.0000   1.0000   1.0000   1.0000   1.0000   1.0000   1.0000
     1.0000   1.0000   1.0000   1.0000   1.0000   1.0000   1.0000   1.0000
     1.0000   1.0000   1.0000   1.0000   1.0000   1.0000   1.0000   1.0000

          k = 0.1667 1.2051 1.1035 ( 11568 PWs)   bands (ev):

   -13.6952 -13.6948 -13.6898 -13.6895 -13.6702 -13.6696 -13.6642 -13.6640
   -13.6588 -13.6583 -13.6523 -13.6514 -13.6382 -13.6377 -13.6300 -13.6299
   -13.6129 -13.6124 -13.6072 -13.6072  -4.8470  -4.7967  -4.7614  -4.7287
     0.6520   0.7748   1.0554   1.0878   2.8701   3.0737   3.4564   3.6065
     4.0573   4.1064   4.6033   4.9244   5.4672   5.6571   6.3954   6.4428

     occupation numbers 
     1.0000   1.0000   1.0000   1.0000   1.0000   1.0000   1.0000   1.0000
     1.0000   1.0000   1.0000   1.0000   1.0000   1.0000   1.0000   1.0000
     1.0000   1.0000   1.0000   1.0000   1.0000   1.0000   1.0000   1.0000
     1.0000   1.0000   1.0000   1.0000   1.0000   1.0000   1.0000   1.0000
     1.0000   1.0000   1.0000   1.0000   1.0000   1.0000   1.0000   1.0000

          k =-0.5000 0.1722 0.1576 ( 11594 PWs)   bands (ev):

   -13.6892 -13.6892 -13.6784 -13.6784 -13.6760 -13.6760 -13.6690 -13.6690
   -13.6611 -13.6611 -13.6570 -13.6570 -13.6447 -13.6447 -13.6241 -13.6241
   -13.6179 -13.6179 -13.6053 -13.6053  -5.8326  -5.8326  -4.7484  -4.7484
     0.7007   0.7007   2.3827   2.3827   3.6934   3.6934   4.5849   4.5849
     5.0406   5.0406   5.6422   5.6422   5.9890   5.9890   7.1086   7.1086

     occupation numbers 
     1.0000   1.0000   1.0000   1.0000   1.0000   1.0000   1.0000   1.0000
     1.0000   1.0000   1.0000   1.0000   1.0000   1.0000   1.0000   1.0000
     1.0000   1.0000   1.0000   1.0000   1.0000   1.0000   1.0000   1.0000
     1.0000   1.0000   1.0000   1.0000   1.0000   1.0000   1.0000   1.0000
     1.0000   1.0000   1.0000   1.0000   1.0000   1.0000   1.0000   1.0000

          k =-0.5000 0.1722 0.4729 ( 11570 PWs)   bands (ev):

   -13.6883 -13.6883 -13.6784 -13.6784 -13.6768 -13.6768 -13.6698 -13.6698
   -13.6608 -13.6608 -13.6547 -13.6547 -13.6446 -13.6446 -13.6240 -13.6240
   -13.6185 -13.6185 -13.6053 -13.6053  -5.7221  -5.7221  -4.7642  -4.7642
     0.4105   0.4105   1.9220   1.9220   3.9127   3.9127   4.6468   4.6468
     5.3326   5.3326   5.7928   5.7928   6.4432   6.4432   7.0098   7.0098

     occupation numbers 
     1.0000   1.0000   1.0000   1.0000   1.0000   1.0000   1.0000   1.0000
     1.0000   1.0000   1.0000   1.0000   1.0000   1.0000   1.0000   1.0000
     1.0000   1.0000   1.0000   1.0000   1.0000   1.0000   1.0000   1.0000
     1.0000   1.0000   1.0000   1.0000   1.0000   1.0000   1.0000   1.0000
     1.0000   1.0000   1.0000   1.0000   1.0000   1.0000   1.0000   1.0000

          k =-0.5000 0.1722 0.7882 ( 11560 PWs)   bands (ev):

   -13.6868 -13.6868 -13.6794 -13.6794 -13.6771 -13.6771 -13.6711 -13.6711
   -13.6605 -13.6605 -13.6511 -13.6511 -13.6447 -13.6447 -13.6237 -13.6237
   -13.6194 -13.6194 -13.6054 -13.6054  -5.5261  -5.5261  -4.8251  -4.8251
     0.0732   0.0732   1.3807   1.3807   4.2308   4.2308   4.9273   4.9273
     5.4723   5.4723   6.0167   6.0167   6.6561   6.6561   7.1925   7.1925

     occupation numbers 
     1.0000   1.0000   1.0000   1.0000   1.0000   1.0000   1.0000   1.0000
     1.0000   1.0000   1.0000   1.0000   1.0000   1.0000   1.0000   1.0000
     1.0000   1.0000   1.0000   1.0000   1.0000   1.0000   1.0000   1.0000
     1.0000   1.0000   1.0000   1.0000   1.0000   1.0000   1.0000   1.0000
     1.0000   1.0000   1.0000   1.0000   1.0000   1.0000   1.0000   1.0000

          k =-0.5000 0.1722 1.1035 ( 11548 PWs)   bands (ev):

   -13.6855 -13.6855 -13.6807 -13.6807 -13.6772 -13.6772 -13.6720 -13.6720
   -13.6603 -13.6603 -13.6478 -13.6478 -13.6455 -13.6455 -13.6235 -13.6235
   -13.6200 -13.6200 -13.6054 -13.6054  -5.3133  -5.3133  -4.9425  -4.9425
    -0.1186  -0.1186   1.0264   1.0264   4.6405   4.6405   5.2277   5.2277
     5.3088   5.3088   5.8673   5.8673   7.0386   7.0386   7.3168   7.3168

     occupation numbers 
     1.0000   1.0000   1.0000   1.0000   1.0000   1.0000   1.0000   1.0000
     1.0000   1.0000   1.0000   1.0000   1.0000   1.0000   1.0000   1.0000
     1.0000   1.0000   1.0000   1.0000   1.0000   1.0000   1.0000   1.0000
     1.0000   1.0000   1.0000   1.0000   1.0000   1.0000   1.0000   1.0000
     1.0000   1.0000   1.0000   1.0000   1.0000   1.0000   1.0000   1.0000

          k =-0.5000 0.5165 0.1576 ( 11580 PWs)   bands (ev):

   -13.6848 -13.6848 -13.6782 -13.6782 -13.6750 -13.6750 -13.6720 -13.6720
   -13.6627 -13.6627 -13.6548 -13.6548 -13.6440 -13.6440 -13.6242 -13.6242
   -13.6185 -13.6185 -13.6058 -13.6058  -5.6808  -5.6808  -4.7153  -4.7153
     0.5316   0.5316   1.8759   1.8759   3.8210   3.8210   4.4676   4.4676
     5.3500   5.3500   5.5342   5.5342   6.2030   6.2030   7.1840   7.1840

     occupation numbers 
     1.0000   1.0000   1.0000   1.0000   1.0000   1.0000   1.0000   1.0000
     1.0000   1.0000   1.0000   1.0000   1.0000   1.0000   1.0000   1.0000
     1.0000   1.0000   1.0000   1.0000   1.0000   1.0000   1.0000   1.0000
     1.0000   1.0000   1.0000   1.0000   1.0000   1.0000   1.0000   1.0000
     1.0000   1.0000   1.0000   1.0000   1.0000   1.0000   1.0000   1.0000

          k =-0.5000 0.5165 0.4729 ( 11570 PWs)   bands (ev):

   -13.6850 -13.6850 -13.6794 -13.6794 -13.6748 -13.6748 -13.6723 -13.6723
   -13.6625 -13.6625 -13.6527 -13.6527 -13.6438 -13.6438 -13.6241 -13.6241
   -13.6191 -13.6191 -13.6057 -13.6057  -5.5763  -5.5763  -4.7251  -4.7251
     0.4026   0.4026   1.6579   1.6579   3.7663   3.7663   4.3413   4.3413
     5.0174   5.0174   5.9892   5.9892   6.5843   6.5843   7.1125   7.1125

     occupation numbers 
     1.0000   1.0000   1.0000   1.0000   1.0000   1.0000   1.0000   1.0000
     1.0000   1.0000   1.0000   1.0000   1.0000   1.0000   1.0000   1.0000
     1.0000   1.0000   1.0000   1.0000   1.0000   1.0000   1.0000   1.0000
     1.0000   1.0000   1.0000   1.0000   1.0000   1.0000   1.0000   1.0000
     1.0000   1.0000   1.0000   1.0000   1.0000   1.0000   1.0000   1.0000

          k =-0.5000 0.5165 0.7882 ( 11558 PWs)   bands (ev):

   -13.6853 -13.6853 -13.6810 -13.6810 -13.6747 -13.6747 -13.6725 -13.6725
   -13.6622 -13.6622 -13.6499 -13.6499 -13.6434 -13.6434 -13.6237 -13.6237
   -13.6200 -13.6200 -13.6055 -13.6055  -5.3930  -5.3930  -4.7721  -4.7721
     0.2020   0.2020   1.3546   1.3546   3.7589   3.7589   4.5123   4.5123
     4.8679   4.8679   6.0575   6.0575   6.4430   6.4430   7.0706   7.0706

     occupation numbers 
     1.0000   1.0000   1.0000   1.0000   1.0000   1.0000   1.0000   1.0000
     1.0000   1.0000   1.0000   1.0000   1.0000   1.0000   1.0000   1.0000
     1.0000   1.0000   1.0000   1.0000   1.0000   1.0000   1.0000   1.0000
     1.0000   1.0000   1.0000   1.0000   1.0000   1.0000   1.0000   1.0000
     1.0000   1.0000   1.0000   1.0000   1.0000   1.0000   1.0000   1.0000

          k =-0.5000 0.5165 1.1035 ( 11548 PWs)   bands (ev):

   -13.6856 -13.6856 -13.6821 -13.6821 -13.6745 -13.6745 -13.6727 -13.6727
   -13.6621 -13.6621 -13.6478 -13.6478 -13.6432 -13.6432 -13.6234 -13.6234
   -13.6206 -13.6206 -13.6054 -13.6054  -5.1976  -5.1976  -4.8699  -4.8699
     0.0611   0.0611   1.1298   1.1298   3.9975   3.9975   4.4010   4.4010
     5.1092   5.1092   5.6627   5.6627   6.3356   6.3356   6.8989   6.8989

     occupation numbers 
     1.0000   1.0000   1.0000   1.0000   1.0000   1.0000   1.0000   1.0000
     1.0000   1.0000   1.0000   1.0000   1.0000   1.0000   1.0000   1.0000
     1.0000   1.0000   1.0000   1.0000   1.0000   1.0000   1.0000   1.0000
     1.0000   1.0000   1.0000   1.0000   1.0000   1.0000   1.0000   1.0000
     1.0000   1.0000   1.0000   1.0000   1.0000   1.0000   1.0000   1.0000

          k =-0.5000 0.8608 0.1576 ( 11570 PWs)   bands (ev):

   -13.6848 -13.6848 -13.6802 -13.6802 -13.6719 -13.6719 -13.6701 -13.6701
   -13.6629 -13.6629 -13.6533 -13.6533 -13.6425 -13.6425 -13.6288 -13.6288
   -13.6156 -13.6156 -13.6065 -13.6065  -5.4093  -5.4093  -4.7123  -4.7123
     0.3043   0.3043   1.1725   1.1725   4.1071   4.1071   4.6458   4.6458
     5.5164   5.5164   5.6801   5.6801   6.2217   6.2217   7.0572   7.0572

     occupation numbers 
     1.0000   1.0000   1.0000   1.0000   1.0000   1.0000   1.0000   1.0000
     1.0000   1.0000   1.0000   1.0000   1.0000   1.0000   1.0000   1.0000
     1.0000   1.0000   1.0000   1.0000   1.0000   1.0000   1.0000   1.0000
     1.0000   1.0000   1.0000   1.0000   1.0000   1.0000   1.0000   1.0000
     1.0000   1.0000   1.0000   1.0000   1.0000   1.0000   1.0000   1.0000

          k =-0.5000 0.8608 0.4729 ( 11572 PWs)   bands (ev):

   -13.6866 -13.6866 -13.6819 -13.6819 -13.6719 -13.6719 -13.6692 -13.6692
   -13.6624 -13.6624 -13.6521 -13.6521 -13.6419 -13.6419 -13.6285 -13.6285
   -13.6158 -13.6158 -13.6063 -13.6063  -5.3189  -5.3189  -4.7065  -4.7065
     0.3610   0.3610   1.1670   1.1670   3.6556   3.6556   4.4533   4.4533
     4.9309   4.9309   5.9325   5.9325   6.1493   6.1493   6.9525   6.9525

     occupation numbers 
     1.0000   1.0000   1.0000   1.0000   1.0000   1.0000   1.0000   1.0000
     1.0000   1.0000   1.0000   1.0000   1.0000   1.0000   1.0000   1.0000
     1.0000   1.0000   1.0000   1.0000   1.0000   1.0000   1.0000   1.0000
     1.0000   1.0000   1.0000   1.0000   1.0000   1.0000   1.0000   1.0000
     1.0000   1.0000   1.0000   1.0000   1.0000   1.0000   1.0000   1.0000

          k =-0.5000 0.8608 0.7882 ( 11540 PWs)   bands (ev):

   -13.6890 -13.6890 -13.6844 -13.6844 -13.6717 -13.6717 -13.6685 -13.6685
   -13.6617 -13.6617 -13.6507 -13.6507 -13.6406 -13.6406 -13.6281 -13.6281
   -13.6161 -13.6161 -13.6061 -13.6061  -5.1648  -5.1648  -4.7204  -4.7204
     0.3968   0.3968   1.1720   1.1720   3.3093   3.3093   4.1205   4.1205
     4.7327   4.7327   5.4102   5.4102   6.0008   6.0008   6.7996   6.7996

     occupation numbers 
     1.0000   1.0000   1.0000   1.0000   1.0000   1.0000   1.0000   1.0000
     1.0000   1.0000   1.0000   1.0000   1.0000   1.0000   1.0000   1.0000
     1.0000   1.0000   1.0000   1.0000   1.0000   1.0000   1.0000   1.0000
     1.0000   1.0000   1.0000   1.0000   1.0000   1.0000   1.0000   1.0000
     1.0000   1.0000   1.0000   1.0000   1.0000   1.0000   1.0000   1.0000

          k =-0.5000 0.8608 1.1035 ( 11546 PWs)   bands (ev):

   -13.6906 -13.6906 -13.6861 -13.6861 -13.6714 -13.6714 -13.6683 -13.6683
   -13.6613 -13.6613 -13.6498 -13.6498 -13.6395 -13.6395 -13.6277 -13.6277
   -13.6163 -13.6163 -13.6060 -13.6060  -5.0084  -5.0084  -4.7746  -4.7746
     0.3745   0.3745   1.1995   1.1995   3.3222   3.3222   3.6801   3.6801
     4.7324   4.7324   5.0415   5.0415   5.9582   5.9582   6.4650   6.4650

     occupation numbers 
     1.0000   1.0000   1.0000   1.0000   1.0000   1.0000   1.0000   1.0000
     1.0000   1.0000   1.0000   1.0000   1.0000   1.0000   1.0000   1.0000
     1.0000   1.0000   1.0000   1.0000   1.0000   1.0000   1.0000   1.0000
     1.0000   1.0000   1.0000   1.0000   1.0000   1.0000   1.0000   1.0000
     1.0000   1.0000   1.0000   1.0000   1.0000   1.0000   1.0000   1.0000

          k =-0.5000 1.2051 0.1576 ( 11570 PWs)   bands (ev):

   -13.6861 -13.6861 -13.6844 -13.6844 -13.6683 -13.6683 -13.6676 -13.6676
   -13.6592 -13.6592 -13.6548 -13.6548 -13.6394 -13.6394 -13.6346 -13.6346
   -13.6115 -13.6115 -13.6081 -13.6081  -5.0897  -5.0897  -4.8296  -4.8296
     0.2644   0.2644   0.5712   0.5712   4.5711   4.5711   4.9189   4.9189
     5.4130   5.4130   5.6528   5.6528   6.3421   6.3421   6.6994   6.6994

     occupation numbers 
     1.0000   1.0000   1.0000   1.0000   1.0000   1.0000   1.0000   1.0000
     1.0000   1.0000   1.0000   1.0000   1.0000   1.0000   1.0000   1.0000
     1.0000   1.0000   1.0000   1.0000   1.0000   1.0000   1.0000   1.0000
     1.0000   1.0000   1.0000   1.0000   1.0000   1.0000   1.0000   1.0000
     1.0000   1.0000   1.0000   1.0000   1.0000   1.0000   1.0000   1.0000

          k =-0.5000 1.2051 0.4729 ( 11564 PWs)   bands (ev):

   -13.6882 -13.6882 -13.6865 -13.6865 -13.6682 -13.6682 -13.6672 -13.6672
   -13.6585 -13.6585 -13.6543 -13.6543 -13.6384 -13.6384 -13.6338 -13.6338
   -13.6115 -13.6115 -13.6081 -13.6081  -5.0239  -5.0239  -4.7960  -4.7960
     0.3976   0.3976   0.6767   0.6767   3.9404   3.9404   4.4648   4.4648
     4.9987   4.9987   5.4407   5.4407   6.1190   6.1190   6.5534   6.5534

     occupation numbers 
     1.0000   1.0000   1.0000   1.0000   1.0000   1.0000   1.0000   1.0000
     1.0000   1.0000   1.0000   1.0000   1.0000   1.0000   1.0000   1.0000
     1.0000   1.0000   1.0000   1.0000   1.0000   1.0000   1.0000   1.0000
     1.0000   1.0000   1.0000   1.0000   1.0000   1.0000   1.0000   1.0000
     1.0000   1.0000   1.0000   1.0000   1.0000   1.0000   1.0000   1.0000

          k =-0.5000 1.2051 0.7882 ( 11570 PWs)   bands (ev):

   -13.6912 -13.6912 -13.6895 -13.6895 -13.6683 -13.6683 -13.6668 -13.6668
   -13.6576 -13.6576 -13.6536 -13.6536 -13.6368 -13.6368 -13.6326 -13.6326
   -13.6116 -13.6116 -13.6080 -13.6080  -4.9194  -4.9194  -4.7546  -4.7546
     0.5969   0.5969   0.8581   0.8581   3.3725   3.3725   3.8851   3.8851
     4.4396   4.4396   4.8965   4.8965   6.0152   6.0152   6.3857   6.3857

     occupation numbers 
     1.0000   1.0000   1.0000   1.0000   1.0000   1.0000   1.0000   1.0000
     1.0000   1.0000   1.0000   1.0000   1.0000   1.0000   1.0000   1.0000
     1.0000   1.0000   1.0000   1.0000   1.0000   1.0000   1.0000   1.0000
     1.0000   1.0000   1.0000   1.0000   1.0000   1.0000   1.0000   1.0000
     1.0000   1.0000   1.0000   1.0000   1.0000   1.0000   1.0000   1.0000

          k =-0.5000 1.2051 1.1035 ( 11570 PWs)   bands (ev):

   -13.6932 -13.6932 -13.6915 -13.6915 -13.6684 -13.6684 -13.6668 -13.6668
   -13.6569 -13.6569 -13.6530 -13.6530 -13.6356 -13.6356 -13.6318 -13.6318
   -13.6116 -13.6116 -13.6079 -13.6079  -4.8267  -4.8267  -4.7402  -4.7402
     0.7276   0.7276   1.0396   1.0396   3.1734   3.1734   3.4207   3.4207
     4.0780   4.0780   4.3757   4.3757   6.1106   6.1106   6.2966   6.2966

     occupation numbers 
     1.0000   1.0000   1.0000   1.0000   1.0000   1.0000   1.0000   1.0000
     1.0000   1.0000   1.0000   1.0000   1.0000   1.0000   1.0000   1.0000
     1.0000   1.0000   1.0000   1.0000   1.0000   1.0000   1.0000   1.0000
     1.0000   1.0000   1.0000   1.0000   1.0000   1.0000   1.0000   1.0000
     1.0000   1.0000   1.0000   1.0000   1.0000   1.0000   1.0000   1.0000

     highest occupied level (ev):     7.4653

!    total energy              =    -827.75019870 Ry
     estimated scf accuracy    <          9.7E-09 Ry

     The total energy is the sum of the following terms:
     one-electron contribution =    -265.38794748 Ry
     hartree contribution      =     182.06765727 Ry
     xc contribution           =    -309.00541344 Ry
     ewald contribution        =    -435.30430362 Ry
     DFT-D3 Dispersion         =      -0.12019142 Ry

     convergence has been achieved in  11 iterations

     Forces acting on atoms (cartesian axes, Ry/au):

     atom    1 type  2   force =     0.00153684    0.00000000   -0.00025893
     atom    2 type  1   force =    -0.00158690    0.00000000   -0.00009015
     atom    3 type  2   force =    -0.00153684    0.00000000   -0.00025893
     atom    4 type  1   force =     0.00158690   -0.00000000   -0.00009015
     atom    5 type  2   force =     0.00153684    0.00000000    0.00025893
     atom    6 type  1   force =    -0.00158690    0.00000000    0.00009015
     atom    7 type  2   force =    -0.00153684    0.00000000    0.00025893
     atom    8 type  1   force =     0.00158690   -0.00000000    0.00009015
     The non-local contrib.  to forces
     atom    1 type  2   force =    -0.10394244    0.00000000    0.11327711
     atom    2 type  1   force =     0.34715141    0.00000000    0.30357471
     atom    3 type  2   force =     0.10394244    0.00000000    0.11327711
     atom    4 type  1   force =    -0.34715141    0.00000000    0.30357471
     atom    5 type  2   force =    -0.10394244    0.00000000   -0.11327711
     atom    6 type  1   force =     0.34715141    0.00000000   -0.30357471
     atom    7 type  2   force =     0.10394244    0.00000000   -0.11327711
     atom    8 type  1   force =    -0.34715141    0.00000000   -0.30357471
     The ionic contribution  to forces
     atom    1 type  2   force =     1.18331402   -0.00000000   -1.29289153
     atom    2 type  1   force =    -0.61637168    0.00000000   -0.72345021
     atom    3 type  2   force =    -1.18331402    0.00000000   -1.29289153
     atom    4 type  1   force =     0.61637168    0.00000000   -0.72345021
     atom    5 type  2   force =     1.18331402    0.00000000    1.29289153
     atom    6 type  1   force =    -0.61637168   -0.00000000    0.72345021
     atom    7 type  2   force =    -1.18331402   -0.00000000    1.29289153
     atom    8 type  1   force =     0.61637168    0.00000000    0.72345021
     The local contribution  to forces
     atom    1 type  2   force =    -1.08870856    0.00000000    1.19027739
     atom    2 type  1   force =     0.27417457    0.00000000    0.42378406
     atom    3 type  2   force =     1.08870856   -0.00000000    1.19027739
     atom    4 type  1   force =    -0.27417457    0.00000000    0.42378406
     atom    5 type  2   force =    -1.08870856    0.00000000   -1.19027739
     atom    6 type  1   force =     0.27417457    0.00000000   -0.42378406
     atom    7 type  2   force =     1.08870856    0.00000000   -1.19027739
     atom    8 type  1   force =    -0.27417457    0.00000000   -0.42378406
     The core correction contribution to forces
     atom    1 type  2   force =     0.01159868    0.00000000   -0.01254806
     atom    2 type  1   force =    -0.00606409    0.00000000   -0.00505323
     atom    3 type  2   force =    -0.01159868    0.00000000   -0.01254806
     atom    4 type  1   force =     0.00606409    0.00000000   -0.00505323
     atom    5 type  2   force =     0.01159868   -0.00000000    0.01254806
     atom    6 type  1   force =    -0.00606409    0.00000000    0.00505323
     atom    7 type  2   force =    -0.01159868   -0.00000000    0.01254806
     atom    8 type  1   force =     0.00606409   -0.00000000    0.00505323
     The Hubbard contrib.    to forces
     atom    1 type  2   force =     0.00000000    0.00000000    0.00000000
     atom    2 type  1   force =     0.00000000    0.00000000    0.00000000
     atom    3 type  2   force =     0.00000000    0.00000000    0.00000000
     atom    4 type  1   force =     0.00000000    0.00000000    0.00000000
     atom    5 type  2   force =     0.00000000    0.00000000    0.00000000
     atom    6 type  1   force =     0.00000000    0.00000000    0.00000000
     atom    7 type  2   force =     0.00000000    0.00000000    0.00000000
     atom    8 type  1   force =     0.00000000    0.00000000    0.00000000
     The SCF correction term to forces
     atom    1 type  2   force =    -0.00001687   -0.00000000    0.00000064
     atom    2 type  1   force =     0.00017586    0.00000000    0.00008458
     atom    3 type  2   force =     0.00001687    0.00000000    0.00000064
     atom    4 type  1   force =    -0.00017586   -0.00000000    0.00008458
     atom    5 type  2   force =    -0.00001687   -0.00000000   -0.00000064
     atom    6 type  1   force =     0.00017586    0.00000000   -0.00008458
     atom    7 type  2   force =     0.00001687    0.00000000   -0.00000064
     atom    8 type  1   force =    -0.00017586   -0.00000000   -0.00008458

     DFT-D3 dispersion contribution to forces:
     atom    1 type  2   force =    -0.00070799    0.00000000    0.00162551
     atom    2 type  1   force =    -0.00065298    0.00000000    0.00096993
     atom    3 type  2   force =     0.00070799    0.00000000    0.00162551
     atom    4 type  1   force =     0.00065298   -0.00000000    0.00096993
     atom    5 type  2   force =    -0.00070799    0.00000000   -0.00162551
     atom    6 type  1   force =    -0.00065298    0.00000000   -0.00096993
     atom    7 type  2   force =     0.00070799   -0.00000000   -0.00162551
     atom    8 type  1   force =     0.00065298   -0.00000000   -0.00096993

     Total force =     0.004452     Total SCF correction =     0.000392

     DFT-D3 dispersion Force =     0.004248

     Writing all to output data dir ./tmp/SnSe_pnma.save/ :
     XML data file, charge density, pseudopotentials, collected wavefunctions
 
     init_run     :      3.26s CPU      3.56s WALL (       1 calls)
     electrons    :     79.49s CPU     83.78s WALL (       1 calls)
     forces       :      1.32s CPU      1.51s WALL (       1 calls)
     force_dftd3  :      0.05s CPU      0.05s WALL (       1 calls)

     Called by init_run:
     wfcinit      :      2.05s CPU      2.10s WALL (       1 calls)
     wfcinit:atom :      0.02s CPU      0.03s WALL (      11 calls)
     wfcinit:wfcr :      1.83s CPU      1.84s WALL (      11 calls)
     potinit      :      0.29s CPU      0.33s WALL (       1 calls)
     hinit0       :      0.29s CPU      0.31s WALL (       1 calls)

     Called by electrons:
     c_bands      :     58.44s CPU     58.74s WALL (      11 calls)
     sum_band     :     14.67s CPU     16.54s WALL (      11 calls)
     v_of_rho     :      2.42s CPU      2.61s WALL (      12 calls)
     v_h          :      0.19s CPU      0.19s WALL (      12 calls)
     v_xc         :      2.42s CPU      2.62s WALL (      13 calls)
     newd         :      4.16s CPU      6.17s WALL (      12 calls)
     mix_rho      :      0.27s CPU      0.28s WALL (      11 calls)
     energy_dftd3 :      0.04s CPU      0.04s WALL (       1 calls)

     Called by c_bands:
     init_us_2    :      1.60s CPU      1.63s WALL (     264 calls)
     cegterg      :     53.71s CPU     53.91s WALL (     121 calls)

     Called by sum_band:
     sum_band:wei :      0.00s CPU      0.00s WALL (      11 calls)
     sum_band:loo :     10.26s CPU     10.31s WALL (      11 calls)
     sum_band:buf :      0.10s CPU      0.10s WALL (     121 calls)
     sum_band:ini :      0.71s CPU      0.71s WALL (     121 calls)
     sum_band:cal :      0.94s CPU      0.94s WALL (     121 calls)
     sum_band:bec :      0.01s CPU      0.01s WALL (     121 calls)
     addusdens    :      3.91s CPU      5.65s WALL (      11 calls)
                                        0.00s GPU  (      11 calls)
     addusd:skk   :      0.03s CPU      0.04s WALL (      22 calls)
                                        0.00s GPU  (      22 calls)

     Called by *egterg:
     cdiaghg      :      0.85s CPU      0.85s WALL (     540 calls)
     cegterg:over :      2.32s CPU      2.33s WALL (     419 calls)
     cegterg:upda :      1.37s CPU      1.37s WALL (     419 calls)
     cegterg:last :      3.44s CPU      3.44s WALL (     314 calls)
     h_psi        :     42.64s CPU     42.82s WALL (     551 calls)
     s_psi        :      3.46s CPU      3.46s WALL (     551 calls)
     g_psi        :      0.14s CPU      0.14s WALL (     419 calls)

     Called by h_psi:
     h_psi:calbec :      3.11s CPU      3.12s WALL (     551 calls)
     vloc_psi     :     35.81s CPU     35.96s WALL (     551 calls)
     add_vuspsi   :      3.43s CPU      3.44s WALL (     551 calls)

     General routines
     calbec       :      4.39s CPU      4.41s WALL (     716 calls)
     fft          :      1.37s CPU      1.42s WALL (     165 calls)
     ffts         :      0.04s CPU      0.04s WALL (      23 calls)
     fftw         :     22.87s CPU     22.97s WALL (   35418 calls)
     interpolate  :      0.13s CPU      0.14s WALL (      12 calls)
 
     Parallel routines
 
     PWSCF        :   1m24.36s CPU   1m30.08s WALL

 
   This run was terminated on:  19:40: 9  20May2026            

=------------------------------------------------------------------------------=
   JOB DONE.
=------------------------------------------------------------------------------=
