
     Program PWSCF v.7.3.1 starts on 20May2026 at 15:42:39 

     This program is part of the open-source Quantum ESPRESSO suite
     for quantum simulation of materials; please cite
         "P. Giannozzi et al., J. Phys.:Condens. Matter 21 395502 (2009);
         "P. Giannozzi et al., J. Phys.:Condens. Matter 29 465901 (2017);
         "P. Giannozzi et al., J. Chem. Phys. 152 154105 (2020);
          URL http://www.quantum-espresso.org", 
     in publications or presentations arising from this work. More details at
     http://www.quantum-espresso.org/quote

     Parallel version (MPI & OpenMP), running on       6 processor cores
     Number of MPI processes:                 6
     Threads/MPI process:                     1

     MPI processes distributed on     1 nodes
     10744 MiB available memory on the printing compute node when the environment starts
 
     Waiting for input...
     Reading input from standard input

     Current dimensions of program PWSCF are:
     Max number of different atomic species (ntypx) = 10
     Max number of k-points (npk) =  40000
     Max angular momentum in pseudopotentials (lmaxx) =  4
 
     K-points division:     npool     =       3
     R & G space division:  proc/nbgrp/npool/nimage =       2
     Subspace diagonalization in iterative solution of the eigenvalue problem:
     a serial algorithm will be used

 
     Parallelization info
     --------------------
     sticks:   dense  smooth     PW     G-vecs:    dense   smooth      PW
     Min        2734    1090    319                99929    25273    3988
     Max        2735    1091    320                99930    25274    3989
     Sum        5469    2181    639               199859    50547    7977
 
     Using Slab Decomposition
 


     bravais-lattice index     =            8
     lattice parameter (alat)  =      21.8074  a.u.
     unit-cell volume          =    1479.8589 (a.u.)^3
     number of atoms/cell      =            8
     number of atomic types    =            2
     number of electrons       =        80.00
     number of Kohn-Sham states=           40
     kinetic-energy cutoff     =      40.0000  Ry
     charge density cutoff     =     400.0000  Ry
     scf convergence threshold =      1.0E-08
     mixing beta               =       0.7000
     number of iterations used =            8  plain     mixing
     Exchange-correlation= SLA  PW   PBE  PBE
                           (   1   4   3   4   0   0   0)

     celldm(1)=  21.807439  celldm(2)=   0.361473  celldm(3)=   0.394757
     celldm(4)=   0.000000  celldm(5)=   0.000000  celldm(6)=   0.000000

     crystal axes: (cart. coord. in units of alat)
               a(1) = (   1.000000   0.000000   0.000000 )  
               a(2) = (   0.000000   0.361473   0.000000 )  
               a(3) = (   0.000000   0.000000   0.394757 )  

     reciprocal axes: (cart. coord. in units 2 pi/alat)
               b(1) = (  1.000000  0.000000  0.000000 )  
               b(2) = (  0.000000  2.766457  0.000000 )  
               b(3) = (  0.000000  0.000000  2.533202 )  


     PseudoPot. # 1 for Sn read from file:
     ../pseudo/Sn_pbe_v1.uspp.F.UPF
     MD5 check sum: 4cf58ce39ec5d5d420df3dd08604eb00
     Pseudo is Ultrasoft + core correction, Zval = 14.0
     Generated by new atomic code, or converted to UPF format
     Using radial grid of  891 points,  6 beta functions with: 
                l(1) =   0
                l(2) =   0
                l(3) =   1
                l(4) =   1
                l(5) =   2
                l(6) =   2
     Q(r) pseudized with  6 coefficients,  rinner =    1.200   1.200   1.200
                                                       1.200   1.200

     PseudoPot. # 2 for Se read from file:
     ../pseudo/Se_pbe_v1.uspp.F.UPF
     MD5 check sum: 1b3568f3a8ae88f9a2a0ad0698632c85
     Pseudo is Ultrasoft + core correction, Zval =  6.0
     Generated by new atomic code, or converted to UPF format
     Using radial grid of  877 points,  6 beta functions with: 
                l(1) =   0
                l(2) =   0
                l(3) =   1
                l(4) =   1
                l(5) =   2
                l(6) =   2
     Q(r) pseudized with  8 coefficients,  rinner =    1.300   1.300   1.300
                                                       1.300   1.300

     atomic species   valence    mass     pseudopotential
     Sn               14.00   118.71000     Sn( 1.00)
     Se                6.00    78.97100     Se( 1.00)

      8 Sym. Ops., with inversion, found ( 6 have fractional translation)


                                    s                        frac. trans.

      isym =  1     identity                                     

 cryst.   s( 1) = (     1          0          0      )
                  (     0          1          0      )
                  (     0          0          1      )

 cart.    s( 1) = (  1.0000000  0.0000000  0.0000000 )
                  (  0.0000000  1.0000000  0.0000000 )
                  (  0.0000000  0.0000000  1.0000000 )


      isym =  2     180 deg rotation - cart. axis [0,0,1]        

 cryst.   s( 2) = (    -1          0          0      )    f =(  0.5000000 )
                  (     0         -1          0      )       (  0.0000000 )
                  (     0          0          1      )       (  0.5000000 )

 cart.    s( 2) = ( -1.0000000  0.0000000  0.0000000 )    f =(  0.5000000 )
                  (  0.0000000 -1.0000000  0.0000000 )       (  0.0000000 )
                  (  0.0000000  0.0000000  1.0000000 )       (  0.1973787 )


      isym =  3     180 deg rotation - cart. axis [0,1,0]        

 cryst.   s( 3) = (    -1          0          0      )    f =(  0.0000000 )
                  (     0          1          0      )       ( -0.5000000 )
                  (     0          0         -1      )       (  0.0000000 )

 cart.    s( 3) = ( -1.0000000  0.0000000  0.0000000 )    f =(  0.0000000 )
                  (  0.0000000  1.0000000  0.0000000 )       ( -0.1807366 )
                  (  0.0000000  0.0000000 -1.0000000 )       (  0.0000000 )


      isym =  4     180 deg rotation - cart. axis [1,0,0]        

 cryst.   s( 4) = (     1          0          0      )    f =(  0.5000000 )
                  (     0         -1          0      )       (  0.5000000 )
                  (     0          0         -1      )       (  0.5000000 )

 cart.    s( 4) = (  1.0000000  0.0000000  0.0000000 )    f =(  0.5000000 )
                  (  0.0000000 -1.0000000  0.0000000 )       (  0.1807366 )
                  (  0.0000000  0.0000000 -1.0000000 )       (  0.1973787 )


      isym =  5     inversion                                    

 cryst.   s( 5) = (    -1          0          0      )
                  (     0         -1          0      )
                  (     0          0         -1      )

 cart.    s( 5) = ( -1.0000000  0.0000000  0.0000000 )
                  (  0.0000000 -1.0000000  0.0000000 )
                  (  0.0000000  0.0000000 -1.0000000 )


      isym =  6     inv. 180 deg rotation - cart. axis [0,0,1]   

 cryst.   s( 6) = (     1          0          0      )    f =(  0.5000000 )
                  (     0          1          0      )       (  0.0000000 )
                  (     0          0         -1      )       (  0.5000000 )

 cart.    s( 6) = (  1.0000000  0.0000000  0.0000000 )    f =(  0.5000000 )
                  (  0.0000000  1.0000000  0.0000000 )       (  0.0000000 )
                  (  0.0000000  0.0000000 -1.0000000 )       (  0.1973787 )


      isym =  7     inv. 180 deg rotation - cart. axis [0,1,0]   

 cryst.   s( 7) = (     1          0          0      )    f =(  0.0000000 )
                  (     0         -1          0      )       (  0.5000000 )
                  (     0          0          1      )       (  0.0000000 )

 cart.    s( 7) = (  1.0000000  0.0000000  0.0000000 )    f =(  0.0000000 )
                  (  0.0000000 -1.0000000  0.0000000 )       (  0.1807366 )
                  (  0.0000000  0.0000000  1.0000000 )       (  0.0000000 )


      isym =  8     inv. 180 deg rotation - cart. axis [1,0,0]   

 cryst.   s( 8) = (    -1          0          0      )    f =(  0.5000000 )
                  (     0          1          0      )       ( -0.5000000 )
                  (     0          0          1      )       (  0.5000000 )

 cart.    s( 8) = ( -1.0000000  0.0000000  0.0000000 )    f =(  0.5000000 )
                  (  0.0000000  1.0000000  0.0000000 )       ( -0.1807366 )
                  (  0.0000000  0.0000000  1.0000000 )       (  0.1973787 )


     point group D_2h (mmm) 
     there are  8 classes
     the character table:

       E     C2    C2'   C2''  i     s_v   s_v'  s_v''
A_g    1.00  1.00  1.00  1.00  1.00  1.00  1.00  1.00
B_1g   1.00  1.00 -1.00 -1.00  1.00  1.00 -1.00 -1.00
B_2g   1.00 -1.00  1.00 -1.00  1.00 -1.00  1.00 -1.00
B_3g   1.00 -1.00 -1.00  1.00  1.00 -1.00 -1.00  1.00
A_u    1.00  1.00  1.00  1.00 -1.00 -1.00 -1.00 -1.00
B_1u   1.00  1.00 -1.00 -1.00 -1.00 -1.00  1.00  1.00
B_2u   1.00 -1.00  1.00 -1.00 -1.00  1.00 -1.00  1.00
B_3u   1.00 -1.00 -1.00  1.00 -1.00  1.00  1.00 -1.00

     the symmetry operations in each class and the name of the first element:

     E        1
          identity                                               
     C2       2
          180 deg rotation - cart. axis [0,0,1]                  
     C2'      4
          180 deg rotation - cart. axis [1,0,0]                  
     C2''     3
          180 deg rotation - cart. axis [0,1,0]                  
     i        5
          inversion                                              
     s_v      6
          inv. 180 deg rotation - cart. axis [0,0,1]             
     s_v'     8
          inv. 180 deg rotation - cart. axis [1,0,0]             
     s_v''    7
          inv. 180 deg rotation - cart. axis [0,1,0]             

   Cartesian axes

     site n.     atom                  positions (alat units)
         1        Se     tau(   1) = (   0.8549563   0.0903683   0.1907657  )
         2        Sn     tau(   2) = (   0.1165395   0.0903683   0.0443261  )
         3        Se     tau(   3) = (   0.6450437   0.2711049   0.3881444  )
         4        Sn     tau(   4) = (   0.3834605   0.2711049   0.2417048  )
         5        Se     tau(   5) = (   0.3549563   0.0903683   0.0066129  )
         6        Sn     tau(   6) = (   0.6165395   0.0903683   0.1530526  )
         7        Se     tau(   7) = (   0.1450437   0.2711049   0.2039916  )
         8        Sn     tau(   8) = (   0.8834605   0.2711049   0.3504312  )

     --------------------------------------------
     DFT-D3 Dispersion Correction (3-body terms):
     --------------------------------------------
       Reference C6 values for interpolation: 

         atom   Coordination number   C6
         Se         0.000           427.35
         Se         0.990           427.57
         Se         1.981           421.05
         Sn         0.000          1255.14
         Sn         0.951          1084.09
         Sn         1.950          1010.83
         Sn         2.926           818.29
         Sn         3.912           672.20

       Values used:

         atom   Coordination number  R0_AB[au]  C6      C8
         Se         3.415            3.332    421.05  29958.36
         Sn         4.112            3.957    672.77  84440.70
         Se         3.415            3.332    421.05  29958.36
         Sn         4.112            3.957    672.77  84440.70
         Se         3.415            3.332    421.05  29958.36
         Sn         4.112            3.957    672.77  84440.70
         Se         3.415            3.332    421.05  29958.36
         Sn         4.112            3.957    672.77  84440.70

         Molecular C6 ( Ry / a.u.^6 ) =     34512.42


   Crystallographic axes

     site n.     atom                  positions (cryst. coord.)
         1        Se     tau(   1) = (  0.8549563  0.2500000  0.4832481  )
         2        Sn     tau(   2) = (  0.1165395  0.2500000  0.1122870  )
         3        Se     tau(   3) = (  0.6450437  0.7500000  0.9832481  )
         4        Sn     tau(   4) = (  0.3834605  0.7500000  0.6122870  )
         5        Se     tau(   5) = (  0.3549563  0.2500000  0.0167519  )
         6        Sn     tau(   6) = (  0.6165395  0.2500000  0.3877130  )
         7        Se     tau(   7) = (  0.1450437  0.7500000  0.5167519  )
         8        Sn     tau(   8) = (  0.8834605  0.7500000  0.8877130  )

     number of k points=    32
                       cart. coord. in units 2pi/alat
        k(    1) = (   0.1666667   0.1729036   0.1583251), wk =   0.0833333
        k(    2) = (   0.1666667   0.1729036   0.4749753), wk =   0.0833333
        k(    3) = (   0.1666667   0.1729036   0.7916255), wk =   0.0833333
        k(    4) = (   0.1666667   0.1729036   1.1082757), wk =   0.0833333
        k(    5) = (   0.1666667   0.5187107   0.1583251), wk =   0.0833333
        k(    6) = (   0.1666667   0.5187107   0.4749753), wk =   0.0833333
        k(    7) = (   0.1666667   0.5187107   0.7916255), wk =   0.0833333
        k(    8) = (   0.1666667   0.5187107   1.1082757), wk =   0.0833333
        k(    9) = (   0.1666667   0.8645179   0.1583251), wk =   0.0833333
        k(   10) = (   0.1666667   0.8645179   0.4749753), wk =   0.0833333
        k(   11) = (   0.1666667   0.8645179   0.7916255), wk =   0.0833333
        k(   12) = (   0.1666667   0.8645179   1.1082757), wk =   0.0833333
        k(   13) = (   0.1666667   1.2103251   0.1583251), wk =   0.0833333
        k(   14) = (   0.1666667   1.2103251   0.4749753), wk =   0.0833333
        k(   15) = (   0.1666667   1.2103251   0.7916255), wk =   0.0833333
        k(   16) = (   0.1666667   1.2103251   1.1082757), wk =   0.0833333
        k(   17) = (  -0.5000000   0.1729036   0.1583251), wk =   0.0416667
        k(   18) = (  -0.5000000   0.1729036   0.4749753), wk =   0.0416667
        k(   19) = (  -0.5000000   0.1729036   0.7916255), wk =   0.0416667
        k(   20) = (  -0.5000000   0.1729036   1.1082757), wk =   0.0416667
        k(   21) = (  -0.5000000   0.5187107   0.1583251), wk =   0.0416667
        k(   22) = (  -0.5000000   0.5187107   0.4749753), wk =   0.0416667
        k(   23) = (  -0.5000000   0.5187107   0.7916255), wk =   0.0416667
        k(   24) = (  -0.5000000   0.5187107   1.1082757), wk =   0.0416667
        k(   25) = (  -0.5000000   0.8645179   0.1583251), wk =   0.0416667
        k(   26) = (  -0.5000000   0.8645179   0.4749753), wk =   0.0416667
        k(   27) = (  -0.5000000   0.8645179   0.7916255), wk =   0.0416667
        k(   28) = (  -0.5000000   0.8645179   1.1082757), wk =   0.0416667
        k(   29) = (  -0.5000000   1.2103251   0.1583251), wk =   0.0416667
        k(   30) = (  -0.5000000   1.2103251   0.4749753), wk =   0.0416667
        k(   31) = (  -0.5000000   1.2103251   0.7916255), wk =   0.0416667
        k(   32) = (  -0.5000000   1.2103251   1.1082757), wk =   0.0416667

                       cryst. coord.
        k(    1) = (   0.1666667   0.0625000   0.0625000), wk =   0.0833333
        k(    2) = (   0.1666667   0.0625000   0.1875000), wk =   0.0833333
        k(    3) = (   0.1666667   0.0625000   0.3125000), wk =   0.0833333
        k(    4) = (   0.1666667   0.0625000   0.4375000), wk =   0.0833333
        k(    5) = (   0.1666667   0.1875000   0.0625000), wk =   0.0833333
        k(    6) = (   0.1666667   0.1875000   0.1875000), wk =   0.0833333
        k(    7) = (   0.1666667   0.1875000   0.3125000), wk =   0.0833333
        k(    8) = (   0.1666667   0.1875000   0.4375000), wk =   0.0833333
        k(    9) = (   0.1666667   0.3125000   0.0625000), wk =   0.0833333
        k(   10) = (   0.1666667   0.3125000   0.1875000), wk =   0.0833333
        k(   11) = (   0.1666667   0.3125000   0.3125000), wk =   0.0833333
        k(   12) = (   0.1666667   0.3125000   0.4375000), wk =   0.0833333
        k(   13) = (   0.1666667   0.4375000   0.0625000), wk =   0.0833333
        k(   14) = (   0.1666667   0.4375000   0.1875000), wk =   0.0833333
        k(   15) = (   0.1666667   0.4375000   0.3125000), wk =   0.0833333
        k(   16) = (   0.1666667   0.4375000   0.4375000), wk =   0.0833333
        k(   17) = (  -0.5000000   0.0625000   0.0625000), wk =   0.0416667
        k(   18) = (  -0.5000000   0.0625000   0.1875000), wk =   0.0416667
        k(   19) = (  -0.5000000   0.0625000   0.3125000), wk =   0.0416667
        k(   20) = (  -0.5000000   0.0625000   0.4375000), wk =   0.0416667
        k(   21) = (  -0.5000000   0.1875000   0.0625000), wk =   0.0416667
        k(   22) = (  -0.5000000   0.1875000   0.1875000), wk =   0.0416667
        k(   23) = (  -0.5000000   0.1875000   0.3125000), wk =   0.0416667
        k(   24) = (  -0.5000000   0.1875000   0.4375000), wk =   0.0416667
        k(   25) = (  -0.5000000   0.3125000   0.0625000), wk =   0.0416667
        k(   26) = (  -0.5000000   0.3125000   0.1875000), wk =   0.0416667
        k(   27) = (  -0.5000000   0.3125000   0.3125000), wk =   0.0416667
        k(   28) = (  -0.5000000   0.3125000   0.4375000), wk =   0.0416667
        k(   29) = (  -0.5000000   0.4375000   0.0625000), wk =   0.0416667
        k(   30) = (  -0.5000000   0.4375000   0.1875000), wk =   0.0416667
        k(   31) = (  -0.5000000   0.4375000   0.3125000), wk =   0.0416667
        k(   32) = (  -0.5000000   0.4375000   0.4375000), wk =   0.0416667

     Dense  grid:   199859 G-vectors     FFT dimensions: ( 144,  54,  60)

     Smooth grid:    50547 G-vectors     FFT dimensions: (  90,  32,  36)

     Dynamical RAM for                 wfc:       1.93 MB

     Dynamical RAM for     wfc (w. buffer):      23.15 MB

     Dynamical RAM for           str. fact:       3.05 MB

     Dynamical RAM for           local pot:       0.00 MB

     Dynamical RAM for          nlocal pot:       6.95 MB

     Dynamical RAM for                qrad:       3.21 MB

     Dynamical RAM for          rho,v,vnew:       9.91 MB

     Dynamical RAM for               rhoin:       3.30 MB

     Dynamical RAM for            rho*nmix:      24.40 MB

     Dynamical RAM for           G-vectors:       5.91 MB

     Dynamical RAM for          h,s,v(r/c):       0.29 MB

     Dynamical RAM for          <psi|beta>:       0.09 MB

     Dynamical RAM for                 psi:       3.86 MB

     Dynamical RAM for                hpsi:       3.86 MB

     Dynamical RAM for                spsi:       3.86 MB

     Dynamical RAM for      wfcinit/wfcrot:       5.08 MB

     Dynamical RAM for           addusdens:      97.59 MB

     Dynamical RAM for          addusforce:     100.40 MB

     Estimated static dynamical RAM per process >      68.96 MB

     Estimated max dynamical RAM per process >     193.76 MB

     Estimated total dynamical RAM >       1.04 GB

     Initial potential from superposition of free atoms

     starting charge      75.9995, renormalised to      80.0000
     Starting wfcs are   52 randomized atomic wfcs

     total cpu time spent up to now is        2.2 secs

     Self-consistent Calculation

     iteration #  1     ecut=    40.00 Ry     beta= 0.70
     Davidson diagonalization with overlap

---- Real-time Memory Report at c_bands before calling an iterative solver
           262 MiB given to the printing process from OS
             0 MiB allocation reported by mallinfo(arena+hblkhd)
         10120 MiB available memory on the node where the printing process lives
------------------
     ethr =  1.00E-02,  avg # of iterations =  2.0

     total cpu time spent up to now is        5.6 secs

     total energy              =    -826.62632071 Ry
     estimated scf accuracy    <       2.69067054 Ry

     iteration #  2     ecut=    40.00 Ry     beta= 0.70
     Davidson diagonalization with overlap

---- Real-time Memory Report at c_bands before calling an iterative solver
           327 MiB given to the printing process from OS
             0 MiB allocation reported by mallinfo(arena+hblkhd)
          9897 MiB available memory on the node where the printing process lives
------------------
     ethr =  3.36E-03,  avg # of iterations =  3.0

     total cpu time spent up to now is        9.4 secs

     total energy              =    -827.53256326 Ry
     estimated scf accuracy    <       1.00261205 Ry

     iteration #  3     ecut=    40.00 Ry     beta= 0.70
     Davidson diagonalization with overlap

---- Real-time Memory Report at c_bands before calling an iterative solver
           348 MiB given to the printing process from OS
             0 MiB allocation reported by mallinfo(arena+hblkhd)
          9768 MiB available memory on the node where the printing process lives
------------------
     ethr =  1.25E-03,  avg # of iterations =  2.6

     total cpu time spent up to now is       12.5 secs

     total energy              =    -827.73660868 Ry
     estimated scf accuracy    <       0.01048836 Ry

     iteration #  4     ecut=    40.00 Ry     beta= 0.70
     Davidson diagonalization with overlap

---- Real-time Memory Report at c_bands before calling an iterative solver
           352 MiB given to the printing process from OS
             0 MiB allocation reported by mallinfo(arena+hblkhd)
          9759 MiB available memory on the node where the printing process lives
------------------
     ethr =  1.31E-05,  avg # of iterations =  4.9

     total cpu time spent up to now is       16.7 secs

     total energy              =    -827.74322417 Ry
     estimated scf accuracy    <       0.00523281 Ry

     iteration #  5     ecut=    40.00 Ry     beta= 0.70
     Davidson diagonalization with overlap

---- Real-time Memory Report at c_bands before calling an iterative solver
           353 MiB given to the printing process from OS
             0 MiB allocation reported by mallinfo(arena+hblkhd)
          9751 MiB available memory on the node where the printing process lives
------------------
     ethr =  6.54E-06,  avg # of iterations =  3.0

     total cpu time spent up to now is       20.1 secs

     total energy              =    -827.74483307 Ry
     estimated scf accuracy    <       0.00060546 Ry

     iteration #  6     ecut=    40.00 Ry     beta= 0.70
     Davidson diagonalization with overlap

---- Real-time Memory Report at c_bands before calling an iterative solver
           355 MiB given to the printing process from OS
             0 MiB allocation reported by mallinfo(arena+hblkhd)
          9750 MiB available memory on the node where the printing process lives
------------------
     ethr =  7.57E-07,  avg # of iterations =  2.4

     total cpu time spent up to now is       23.3 secs

     total energy              =    -827.74478248 Ry
     estimated scf accuracy    <       0.00034942 Ry

     iteration #  7     ecut=    40.00 Ry     beta= 0.70
     Davidson diagonalization with overlap

---- Real-time Memory Report at c_bands before calling an iterative solver
           358 MiB given to the printing process from OS
             0 MiB allocation reported by mallinfo(arena+hblkhd)
          9745 MiB available memory on the node where the printing process lives
------------------
     ethr =  4.37E-07,  avg # of iterations =  2.0

     total cpu time spent up to now is       26.2 secs

     total energy              =    -827.74482354 Ry
     estimated scf accuracy    <       0.00001595 Ry

     iteration #  8     ecut=    40.00 Ry     beta= 0.70
     Davidson diagonalization with overlap

---- Real-time Memory Report at c_bands before calling an iterative solver
           359 MiB given to the printing process from OS
             0 MiB allocation reported by mallinfo(arena+hblkhd)
          9743 MiB available memory on the node where the printing process lives
------------------
     ethr =  1.99E-08,  avg # of iterations =  5.2

     total cpu time spent up to now is       30.4 secs

     total energy              =    -827.74483764 Ry
     estimated scf accuracy    <       0.00001680 Ry

     iteration #  9     ecut=    40.00 Ry     beta= 0.70
     Davidson diagonalization with overlap

---- Real-time Memory Report at c_bands before calling an iterative solver
           360 MiB given to the printing process from OS
             0 MiB allocation reported by mallinfo(arena+hblkhd)
          9742 MiB available memory on the node where the printing process lives
------------------
     ethr =  1.99E-08,  avg # of iterations =  2.0

     total cpu time spent up to now is       33.2 secs

     total energy              =    -827.74483966 Ry
     estimated scf accuracy    <       0.00000086 Ry

     iteration # 10     ecut=    40.00 Ry     beta= 0.70
     Davidson diagonalization with overlap

---- Real-time Memory Report at c_bands before calling an iterative solver
           360 MiB given to the printing process from OS
             0 MiB allocation reported by mallinfo(arena+hblkhd)
          9741 MiB available memory on the node where the printing process lives
------------------
     ethr =  1.07E-09,  avg # of iterations =  4.9

     total cpu time spent up to now is       37.3 secs

     total energy              =    -827.74484025 Ry
     estimated scf accuracy    <       0.00000004 Ry

     iteration # 11     ecut=    40.00 Ry     beta= 0.70
     Davidson diagonalization with overlap

---- Real-time Memory Report at c_bands before calling an iterative solver
           360 MiB given to the printing process from OS
             0 MiB allocation reported by mallinfo(arena+hblkhd)
          9742 MiB available memory on the node where the printing process lives
------------------
     ethr =  4.84E-11,  avg # of iterations =  4.8

     total cpu time spent up to now is       41.7 secs

     total energy              =    -827.74484026 Ry
     estimated scf accuracy    <       0.00000002 Ry

     iteration # 12     ecut=    40.00 Ry     beta= 0.70
     Davidson diagonalization with overlap

---- Real-time Memory Report at c_bands before calling an iterative solver
           363 MiB given to the printing process from OS
             0 MiB allocation reported by mallinfo(arena+hblkhd)
          9737 MiB available memory on the node where the printing process lives
------------------
     ethr =  2.84E-11,  avg # of iterations =  3.0

     total cpu time spent up to now is       44.6 secs

     End of self-consistent calculation

          k = 0.1667 0.1729 0.1583 (  6299 PWs)   bands (ev):

   -13.7470 -13.7381 -13.7343 -13.7311 -13.7305 -13.7284 -13.7244 -13.7228
   -13.7168 -13.7125 -13.7119 -13.7108 -13.7007 -13.6977 -13.6806 -13.6780
   -13.6736 -13.6720 -13.6637 -13.6583  -5.9781  -5.6987  -5.0118  -4.6334
     0.3759   1.2096   2.0412   2.4192   3.0120   4.2315   4.3732   4.6421
     4.8954   4.9459   5.5112   5.8193   6.0570   6.4364   6.8548   7.1484

     occupation numbers 
     1.0000   1.0000   1.0000   1.0000   1.0000   1.0000   1.0000   1.0000
     1.0000   1.0000   1.0000   1.0000   1.0000   1.0000   1.0000   1.0000
     1.0000   1.0000   1.0000   1.0000   1.0000   1.0000   1.0000   1.0000
     1.0000   1.0000   1.0000   1.0000   1.0000   1.0000   1.0000   1.0000
     1.0000   1.0000   1.0000   1.0000   1.0000   1.0000   1.0000   1.0000

          k = 0.1667 0.1729 0.4750 (  6316 PWs)   bands (ev):

   -13.7457 -13.7376 -13.7343 -13.7320 -13.7306 -13.7296 -13.7249 -13.7232
   -13.7168 -13.7128 -13.7098 -13.7082 -13.7001 -13.6978 -13.6807 -13.6773
   -13.6745 -13.6725 -13.6633 -13.6587  -5.8633  -5.5936  -5.0081  -4.6659
     0.0587   0.9463   1.5174   2.0869   3.1063   4.2786   4.4895   5.0097
     5.2215   5.4722   5.5198   5.9274   6.3217   6.6255   6.9050   7.1563

     occupation numbers 
     1.0000   1.0000   1.0000   1.0000   1.0000   1.0000   1.0000   1.0000
     1.0000   1.0000   1.0000   1.0000   1.0000   1.0000   1.0000   1.0000
     1.0000   1.0000   1.0000   1.0000   1.0000   1.0000   1.0000   1.0000
     1.0000   1.0000   1.0000   1.0000   1.0000   1.0000   1.0000   1.0000
     1.0000   1.0000   1.0000   1.0000   1.0000   1.0000   1.0000   1.0000

          k = 0.1667 0.1729 0.7916 (  6304 PWs)   bands (ev):

   -13.7434 -13.7373 -13.7345 -13.7334 -13.7311 -13.7306 -13.7255 -13.7241
   -13.7162 -13.7134 -13.7064 -13.7045 -13.6998 -13.6981 -13.6805 -13.6769
   -13.6755 -13.6733 -13.6625 -13.6595  -5.6572  -5.4065  -5.0395  -4.7538
    -0.2552   0.4417   1.0795   1.6028   3.4079   4.5097   4.7112   5.2856
     5.4930   5.6408   5.8859   6.0120   6.4896   6.9592   6.9813   7.4069

     occupation numbers 
     1.0000   1.0000   1.0000   1.0000   1.0000   1.0000   1.0000   1.0000
     1.0000   1.0000   1.0000   1.0000   1.0000   1.0000   1.0000   1.0000
     1.0000   1.0000   1.0000   1.0000   1.0000   1.0000   1.0000   1.0000
     1.0000   1.0000   1.0000   1.0000   1.0000   1.0000   1.0000   1.0000
     1.0000   1.0000   1.0000   1.0000   1.0000   1.0000   1.0000   1.0000

          k = 0.1667 0.1729 1.1083 (  6305 PWs)   bands (ev):

   -13.7408 -13.7384 -13.7346 -13.7342 -13.7317 -13.7311 -13.7256 -13.7251
   -13.7153 -13.7142 -13.7030 -13.7013 -13.7004 -13.6989 -13.6796 -13.6781
   -13.6750 -13.6741 -13.6615 -13.6605  -5.4122  -5.2417  -5.0936  -4.9149
    -0.3223  -0.0644   0.9805   1.1813   3.8789   4.3896   5.0809   5.3411
     5.5530   5.6746   5.9204   6.2093   6.7773   7.0947   7.2606   7.3465

     occupation numbers 
     1.0000   1.0000   1.0000   1.0000   1.0000   1.0000   1.0000   1.0000
     1.0000   1.0000   1.0000   1.0000   1.0000   1.0000   1.0000   1.0000
     1.0000   1.0000   1.0000   1.0000   1.0000   1.0000   1.0000   1.0000
     1.0000   1.0000   1.0000   1.0000   1.0000   1.0000   1.0000   1.0000
     1.0000   1.0000   1.0000   1.0000   1.0000   1.0000   1.0000   1.0000

          k = 0.1667 0.5187 0.1583 (  6320 PWs)   bands (ev):

   -13.7414 -13.7362 -13.7332 -13.7300 -13.7294 -13.7282 -13.7276 -13.7253
   -13.7185 -13.7151 -13.7108 -13.7077 -13.6989 -13.6979 -13.6800 -13.6780
   -13.6755 -13.6719 -13.6633 -13.6593  -5.8185  -5.5609  -4.9444  -4.6271
     0.2242   0.9526   1.7205   1.8279   3.1270   4.1058   4.4047   4.7189
     5.0257   5.2033   5.5301   5.8635   6.1023   6.7232   6.9754   7.0766

     occupation numbers 
     1.0000   1.0000   1.0000   1.0000   1.0000   1.0000   1.0000   1.0000
     1.0000   1.0000   1.0000   1.0000   1.0000   1.0000   1.0000   1.0000
     1.0000   1.0000   1.0000   1.0000   1.0000   1.0000   1.0000   1.0000
     1.0000   1.0000   1.0000   1.0000   1.0000   1.0000   1.0000   1.0000
     1.0000   1.0000   1.0000   1.0000   1.0000   1.0000   1.0000   1.0000

          k = 0.1667 0.5187 0.4750 (  6328 PWs)   bands (ev):

   -13.7413 -13.7361 -13.7346 -13.7306 -13.7296 -13.7285 -13.7270 -13.7263
   -13.7184 -13.7153 -13.7086 -13.7055 -13.6993 -13.6970 -13.6797 -13.6778
   -13.6757 -13.6728 -13.6630 -13.6596  -5.7095  -5.4622  -4.9385  -4.6497
     0.0641   0.8821   1.3712   1.7316   3.2594   3.7057   3.9890   4.7857
     4.9852   5.5366   5.7605   5.9131   6.5400   6.6693   6.9716   7.1491

     occupation numbers 
     1.0000   1.0000   1.0000   1.0000   1.0000   1.0000   1.0000   1.0000
     1.0000   1.0000   1.0000   1.0000   1.0000   1.0000   1.0000   1.0000
     1.0000   1.0000   1.0000   1.0000   1.0000   1.0000   1.0000   1.0000
     1.0000   1.0000   1.0000   1.0000   1.0000   1.0000   1.0000   1.0000
     1.0000   1.0000   1.0000   1.0000   1.0000   1.0000   1.0000   1.0000

          k = 0.1667 0.5187 0.7916 (  6315 PWs)   bands (ev):

   -13.7412 -13.7373 -13.7353 -13.7318 -13.7301 -13.7284 -13.7277 -13.7266
   -13.7177 -13.7156 -13.7055 -13.7024 -13.6993 -13.6964 -13.6792 -13.6773
   -13.6762 -13.6741 -13.6623 -13.6601  -5.5161  -5.2885  -4.9619  -4.7176
    -0.1157   0.5481   1.1107   1.5025   3.5175   3.6577   3.9385   4.7047
     4.8134   5.5701   5.6317   6.1916   6.4084   6.6603   6.8638   7.1433

     occupation numbers 
     1.0000   1.0000   1.0000   1.0000   1.0000   1.0000   1.0000   1.0000
     1.0000   1.0000   1.0000   1.0000   1.0000   1.0000   1.0000   1.0000
     1.0000   1.0000   1.0000   1.0000   1.0000   1.0000   1.0000   1.0000
     1.0000   1.0000   1.0000   1.0000   1.0000   1.0000   1.0000   1.0000
     1.0000   1.0000   1.0000   1.0000   1.0000   1.0000   1.0000   1.0000

          k = 0.1667 0.5187 1.1083 (  6310 PWs)   bands (ev):

   -13.7408 -13.7395 -13.7345 -13.7333 -13.7302 -13.7294 -13.7275 -13.7268
   -13.7168 -13.7161 -13.7027 -13.7011 -13.6983 -13.6968 -13.6783 -13.6773
   -13.6761 -13.6753 -13.6616 -13.6608  -5.2905  -5.1375  -5.0068  -4.8512
    -0.1304   0.1128   1.0878   1.2413   3.8355   3.8966   4.1643   4.4386
     4.7297   5.0574   5.7030   5.9878   6.3493   6.5950   6.8560   7.0424

     occupation numbers 
     1.0000   1.0000   1.0000   1.0000   1.0000   1.0000   1.0000   1.0000
     1.0000   1.0000   1.0000   1.0000   1.0000   1.0000   1.0000   1.0000
     1.0000   1.0000   1.0000   1.0000   1.0000   1.0000   1.0000   1.0000
     1.0000   1.0000   1.0000   1.0000   1.0000   1.0000   1.0000   1.0000
     1.0000   1.0000   1.0000   1.0000   1.0000   1.0000   1.0000   1.0000

          k = 0.1667 0.8645 0.1583 (  6342 PWs)   bands (ev):

   -13.7391 -13.7370 -13.7348 -13.7342 -13.7279 -13.7247 -13.7241 -13.7226
   -13.7177 -13.7172 -13.7108 -13.7040 -13.6999 -13.6950 -13.6837 -13.6828
   -13.6729 -13.6688 -13.6627 -13.6610  -5.5286  -5.3221  -4.8706  -4.6766
     0.0174   0.6210   0.9607   1.2705   3.4651   4.2241   4.5897   4.9262
     5.2879   5.3542   5.6774   5.8593   6.2318   6.7055   6.8116   7.1719

     occupation numbers 
     1.0000   1.0000   1.0000   1.0000   1.0000   1.0000   1.0000   1.0000
     1.0000   1.0000   1.0000   1.0000   1.0000   1.0000   1.0000   1.0000
     1.0000   1.0000   1.0000   1.0000   1.0000   1.0000   1.0000   1.0000
     1.0000   1.0000   1.0000   1.0000   1.0000   1.0000   1.0000   1.0000
     1.0000   1.0000   1.0000   1.0000   1.0000   1.0000   1.0000   1.0000

          k = 0.1667 0.8645 0.4750 (  6341 PWs)   bands (ev):

   -13.7416 -13.7387 -13.7362 -13.7347 -13.7285 -13.7241 -13.7236 -13.7225
   -13.7173 -13.7169 -13.7090 -13.7031 -13.6991 -13.6945 -13.6832 -13.6823
   -13.6730 -13.6695 -13.6625 -13.6610  -5.4335  -5.2378  -4.8565  -4.6766
     0.0553   0.7144   0.9884   1.2057   3.4681   3.5834   3.9312   4.5151
     4.9452   5.5013   5.5937   6.0381   6.1346   6.4713   6.7029   6.9369

     occupation numbers 
     1.0000   1.0000   1.0000   1.0000   1.0000   1.0000   1.0000   1.0000
     1.0000   1.0000   1.0000   1.0000   1.0000   1.0000   1.0000   1.0000
     1.0000   1.0000   1.0000   1.0000   1.0000   1.0000   1.0000   1.0000
     1.0000   1.0000   1.0000   1.0000   1.0000   1.0000   1.0000   1.0000
     1.0000   1.0000   1.0000   1.0000   1.0000   1.0000   1.0000   1.0000

          k = 0.1667 0.8645 0.7916 (  6321 PWs)   bands (ev):

   -13.7442 -13.7419 -13.7379 -13.7366 -13.7281 -13.7245 -13.7229 -13.7222
   -13.7166 -13.7165 -13.7066 -13.7025 -13.6972 -13.6940 -13.6823 -13.6816
   -13.6728 -13.6705 -13.6621 -13.6610  -5.2694  -5.0943  -4.8587  -4.7001
     0.1122   0.6719   1.0412   1.2080   3.0809   3.4164   3.8503   4.1047
     4.4043   5.0017   5.3107   5.6621   5.9625   6.2142   6.4240   6.8962

     occupation numbers 
     1.0000   1.0000   1.0000   1.0000   1.0000   1.0000   1.0000   1.0000
     1.0000   1.0000   1.0000   1.0000   1.0000   1.0000   1.0000   1.0000
     1.0000   1.0000   1.0000   1.0000   1.0000   1.0000   1.0000   1.0000
     1.0000   1.0000   1.0000   1.0000   1.0000   1.0000   1.0000   1.0000
     1.0000   1.0000   1.0000   1.0000   1.0000   1.0000   1.0000   1.0000

          k = 0.1667 0.8645 1.1083 (  6318 PWs)   bands (ev):

   -13.7454 -13.7446 -13.7388 -13.7384 -13.7270 -13.7256 -13.7224 -13.7222
   -13.7161 -13.7160 -13.7043 -13.7029 -13.6950 -13.6940 -13.6815 -13.6812
   -13.6723 -13.6715 -13.6616 -13.6612  -5.0877  -4.9740  -4.8808  -4.7746
     0.2134   0.4166   1.1700   1.2265   3.0959   3.4368   3.5113   3.8916
     4.2717   4.6782   5.0127   5.4076   5.6169   5.8730   6.5040   6.6450

     occupation numbers 
     1.0000   1.0000   1.0000   1.0000   1.0000   1.0000   1.0000   1.0000
     1.0000   1.0000   1.0000   1.0000   1.0000   1.0000   1.0000   1.0000
     1.0000   1.0000   1.0000   1.0000   1.0000   1.0000   1.0000   1.0000
     1.0000   1.0000   1.0000   1.0000   1.0000   1.0000   1.0000   1.0000
     1.0000   1.0000   1.0000   1.0000   1.0000   1.0000   1.0000   1.0000

          k = 0.1667 1.2103 0.1583 (  6341 PWs)   bands (ev):

   -13.7409 -13.7393 -13.7381 -13.7368 -13.7244 -13.7227 -13.7210 -13.7198
   -13.7154 -13.7132 -13.7120 -13.7067 -13.6962 -13.6919 -13.6897 -13.6878
   -13.6679 -13.6655 -13.6636 -13.6631  -5.1743  -5.0622  -4.8915  -4.8592
    -0.0182   0.3012   0.5214   0.7739   3.9827   4.4308   4.8054   5.1203
     5.3026   5.3569   5.7576   6.0216   6.3582   6.5538   6.6191   6.7824

     occupation numbers 
     1.0000   1.0000   1.0000   1.0000   1.0000   1.0000   1.0000   1.0000
     1.0000   1.0000   1.0000   1.0000   1.0000   1.0000   1.0000   1.0000
     1.0000   1.0000   1.0000   1.0000   1.0000   1.0000   1.0000   1.0000
     1.0000   1.0000   1.0000   1.0000   1.0000   1.0000   1.0000   1.0000
     1.0000   1.0000   1.0000   1.0000   1.0000   1.0000   1.0000   1.0000

          k = 0.1667 1.2103 0.4750 (  6322 PWs)   bands (ev):

   -13.7434 -13.7420 -13.7397 -13.7386 -13.7247 -13.7228 -13.7199 -13.7192
   -13.7150 -13.7133 -13.7102 -13.7062 -13.6952 -13.6923 -13.6877 -13.6868
   -13.6681 -13.6662 -13.6631 -13.6629  -5.1045  -5.0017  -4.8583  -4.8245
     0.1271   0.4392   0.6484   0.8268   3.7401   3.9341   4.1987   4.4842
     4.6542   5.1062   5.5479   5.7336   5.8536   6.1401   6.5980   6.8645

     occupation numbers 
     1.0000   1.0000   1.0000   1.0000   1.0000   1.0000   1.0000   1.0000
     1.0000   1.0000   1.0000   1.0000   1.0000   1.0000   1.0000   1.0000
     1.0000   1.0000   1.0000   1.0000   1.0000   1.0000   1.0000   1.0000
     1.0000   1.0000   1.0000   1.0000   1.0000   1.0000   1.0000   1.0000
     1.0000   1.0000   1.0000   1.0000   1.0000   1.0000   1.0000   1.0000

          k = 0.1667 1.2103 0.7916 (  6324 PWs)   bands (ev):

   -13.7467 -13.7456 -13.7420 -13.7413 -13.7247 -13.7232 -13.7190 -13.7185
   -13.7142 -13.7131 -13.7084 -13.7059 -13.6936 -13.6921 -13.6857 -13.6853
   -13.6682 -13.6670 -13.6628 -13.6627  -4.9918  -4.9065  -4.8189  -4.7810
     0.3730   0.6522   0.8481   0.9095   3.0948   3.5402   3.6398   3.9829
     4.2078   4.5688   4.8837   5.3471   5.4432   5.7100   6.4549   6.5993

     occupation numbers 
     1.0000   1.0000   1.0000   1.0000   1.0000   1.0000   1.0000   1.0000
     1.0000   1.0000   1.0000   1.0000   1.0000   1.0000   1.0000   1.0000
     1.0000   1.0000   1.0000   1.0000   1.0000   1.0000   1.0000   1.0000
     1.0000   1.0000   1.0000   1.0000   1.0000   1.0000   1.0000   1.0000
     1.0000   1.0000   1.0000   1.0000   1.0000   1.0000   1.0000   1.0000

          k = 0.1667 1.2103 1.1083 (  6330 PWs)   bands (ev):

   -13.7487 -13.7483 -13.7435 -13.7433 -13.7244 -13.7238 -13.7185 -13.7183
   -13.7134 -13.7129 -13.7070 -13.7061 -13.6922 -13.6917 -13.6844 -13.6843
   -13.6680 -13.6676 -13.6625 -13.6625  -4.8835  -4.8342  -4.7996  -4.7674
     0.6130   0.7333   1.0106   1.0420   2.8380   3.0411   3.4198   3.5758
     4.0040   4.0622   4.5528   4.8721   5.4149   5.6057   6.3319   6.3781

     occupation numbers 
     1.0000   1.0000   1.0000   1.0000   1.0000   1.0000   1.0000   1.0000
     1.0000   1.0000   1.0000   1.0000   1.0000   1.0000   1.0000   1.0000
     1.0000   1.0000   1.0000   1.0000   1.0000   1.0000   1.0000   1.0000
     1.0000   1.0000   1.0000   1.0000   1.0000   1.0000   1.0000   1.0000
     1.0000   1.0000   1.0000   1.0000   1.0000   1.0000   1.0000   1.0000

          k =-0.5000 0.1729 0.1583 (  6312 PWs)   bands (ev):

   -13.7431 -13.7431 -13.7325 -13.7325 -13.7298 -13.7298 -13.7232 -13.7232
   -13.7149 -13.7149 -13.7110 -13.7110 -13.6994 -13.6994 -13.6790 -13.6790
   -13.6729 -13.6729 -13.6608 -13.6608  -5.8632  -5.8632  -4.7978  -4.7978
     0.6699   0.6699   2.3307   2.3307   3.6538   3.6538   4.5485   4.5485
     4.9940   4.9940   5.5912   5.5912   5.9364   5.9364   7.0554   7.0554

     occupation numbers 
     1.0000   1.0000   1.0000   1.0000   1.0000   1.0000   1.0000   1.0000
     1.0000   1.0000   1.0000   1.0000   1.0000   1.0000   1.0000   1.0000
     1.0000   1.0000   1.0000   1.0000   1.0000   1.0000   1.0000   1.0000
     1.0000   1.0000   1.0000   1.0000   1.0000   1.0000   1.0000   1.0000
     1.0000   1.0000   1.0000   1.0000   1.0000   1.0000   1.0000   1.0000

          k =-0.5000 0.1729 0.4750 (  6300 PWs)   bands (ev):

   -13.7423 -13.7423 -13.7324 -13.7324 -13.7306 -13.7306 -13.7239 -13.7239
   -13.7148 -13.7148 -13.7087 -13.7087 -13.6992 -13.6992 -13.6789 -13.6789
   -13.6735 -13.6735 -13.6609 -13.6609  -5.7534  -5.7534  -4.8120  -4.8120
     0.3773   0.3773   1.8719   1.8719   3.8684   3.8684   4.6084   4.6084
     5.2934   5.2934   5.7418   5.7418   6.3939   6.3939   6.9541   6.9541

     occupation numbers 
     1.0000   1.0000   1.0000   1.0000   1.0000   1.0000   1.0000   1.0000
     1.0000   1.0000   1.0000   1.0000   1.0000   1.0000   1.0000   1.0000
     1.0000   1.0000   1.0000   1.0000   1.0000   1.0000   1.0000   1.0000
     1.0000   1.0000   1.0000   1.0000   1.0000   1.0000   1.0000   1.0000
     1.0000   1.0000   1.0000   1.0000   1.0000   1.0000   1.0000   1.0000

          k =-0.5000 0.1729 0.7916 (  6296 PWs)   bands (ev):

   -13.7408 -13.7408 -13.7334 -13.7334 -13.7310 -13.7310 -13.7251 -13.7251
   -13.7146 -13.7146 -13.7053 -13.7053 -13.6991 -13.6991 -13.6788 -13.6788
   -13.6742 -13.6742 -13.6609 -13.6609  -5.5588  -5.5588  -4.8699  -4.8699
     0.0365   0.0365   1.3317   1.3317   4.1855   4.1855   4.8881   4.8881
     5.4331   5.4331   5.9688   5.9688   6.6067   6.6067   7.1414   7.1414

     occupation numbers 
     1.0000   1.0000   1.0000   1.0000   1.0000   1.0000   1.0000   1.0000
     1.0000   1.0000   1.0000   1.0000   1.0000   1.0000   1.0000   1.0000
     1.0000   1.0000   1.0000   1.0000   1.0000   1.0000   1.0000   1.0000
     1.0000   1.0000   1.0000   1.0000   1.0000   1.0000   1.0000   1.0000
     1.0000   1.0000   1.0000   1.0000   1.0000   1.0000   1.0000   1.0000

          k =-0.5000 0.1729 1.1083 (  6306 PWs)   bands (ev):

   -13.7395 -13.7395 -13.7346 -13.7346 -13.7312 -13.7312 -13.7259 -13.7259
   -13.7144 -13.7144 -13.7022 -13.7022 -13.6996 -13.6996 -13.6787 -13.6787
   -13.6748 -13.6748 -13.6610 -13.6610  -5.3479  -5.3479  -4.9840  -4.9840
    -0.1583  -0.1583   0.9786   0.9786   4.5952   4.5952   5.1884   5.1884
     5.2687   5.2687   5.8183   5.8183   6.9930   6.9930   7.2698   7.2698

     occupation numbers 
     1.0000   1.0000   1.0000   1.0000   1.0000   1.0000   1.0000   1.0000
     1.0000   1.0000   1.0000   1.0000   1.0000   1.0000   1.0000   1.0000
     1.0000   1.0000   1.0000   1.0000   1.0000   1.0000   1.0000   1.0000
     1.0000   1.0000   1.0000   1.0000   1.0000   1.0000   1.0000   1.0000
     1.0000   1.0000   1.0000   1.0000   1.0000   1.0000   1.0000   1.0000

          k =-0.5000 0.5187 0.1583 (  6334 PWs)   bands (ev):

   -13.7388 -13.7388 -13.7320 -13.7320 -13.7290 -13.7290 -13.7261 -13.7261
   -13.7168 -13.7168 -13.7090 -13.7090 -13.6985 -13.6985 -13.6790 -13.6790
   -13.6737 -13.6737 -13.6613 -13.6613  -5.7120  -5.7120  -4.7630  -4.7630
     0.4984   0.4984   1.8238   1.8238   3.7817   3.7817   4.4284   4.4284
     5.3053   5.3053   5.4868   5.4868   6.1571   6.1571   7.1242   7.1242

     occupation numbers 
     1.0000   1.0000   1.0000   1.0000   1.0000   1.0000   1.0000   1.0000
     1.0000   1.0000   1.0000   1.0000   1.0000   1.0000   1.0000   1.0000
     1.0000   1.0000   1.0000   1.0000   1.0000   1.0000   1.0000   1.0000
     1.0000   1.0000   1.0000   1.0000   1.0000   1.0000   1.0000   1.0000
     1.0000   1.0000   1.0000   1.0000   1.0000   1.0000   1.0000   1.0000

          k =-0.5000 0.5187 0.4750 (  6328 PWs)   bands (ev):

   -13.7388 -13.7388 -13.7332 -13.7332 -13.7288 -13.7288 -13.7264 -13.7264
   -13.7166 -13.7166 -13.7070 -13.7070 -13.6982 -13.6982 -13.6788 -13.6788
   -13.6743 -13.6743 -13.6612 -13.6612  -5.6082  -5.6082  -4.7714  -4.7714
     0.3677   0.3677   1.6080   1.6080   3.7298   3.7298   4.2944   4.2944
     4.9693   4.9693   5.9478   5.9478   6.5409   6.5409   7.0560   7.0560

     occupation numbers 
     1.0000   1.0000   1.0000   1.0000   1.0000   1.0000   1.0000   1.0000
     1.0000   1.0000   1.0000   1.0000   1.0000   1.0000   1.0000   1.0000
     1.0000   1.0000   1.0000   1.0000   1.0000   1.0000   1.0000   1.0000
     1.0000   1.0000   1.0000   1.0000   1.0000   1.0000   1.0000   1.0000
     1.0000   1.0000   1.0000   1.0000   1.0000   1.0000   1.0000   1.0000

          k =-0.5000 0.5187 0.7916 (  6318 PWs)   bands (ev):

   -13.7391 -13.7391 -13.7348 -13.7348 -13.7287 -13.7287 -13.7266 -13.7266
   -13.7164 -13.7164 -13.7043 -13.7043 -13.6977 -13.6977 -13.6784 -13.6784
   -13.6751 -13.6751 -13.6610 -13.6610  -5.4262  -5.4262  -4.8159  -4.8159
     0.1645   0.1645   1.3063   1.3063   3.7231   3.7231   4.4657   4.4657
     4.8220   4.8220   6.0109   6.0109   6.3999   6.3999   7.0151   7.0151

     occupation numbers 
     1.0000   1.0000   1.0000   1.0000   1.0000   1.0000   1.0000   1.0000
     1.0000   1.0000   1.0000   1.0000   1.0000   1.0000   1.0000   1.0000
     1.0000   1.0000   1.0000   1.0000   1.0000   1.0000   1.0000   1.0000
     1.0000   1.0000   1.0000   1.0000   1.0000   1.0000   1.0000   1.0000
     1.0000   1.0000   1.0000   1.0000   1.0000   1.0000   1.0000   1.0000

          k =-0.5000 0.5187 1.1083 (  6294 PWs)   bands (ev):

   -13.7394 -13.7394 -13.7359 -13.7359 -13.7286 -13.7286 -13.7268 -13.7268
   -13.7163 -13.7163 -13.7025 -13.7025 -13.6972 -13.6972 -13.6780 -13.6780
   -13.6758 -13.6758 -13.6609 -13.6609  -5.2326  -5.2326  -4.9109  -4.9109
     0.0214   0.0214   1.0822   1.0822   3.9616   3.9616   4.3617   4.3617
     5.0656   5.0656   5.6114   5.6114   6.2861   6.2861   6.8417   6.8417

     occupation numbers 
     1.0000   1.0000   1.0000   1.0000   1.0000   1.0000   1.0000   1.0000
     1.0000   1.0000   1.0000   1.0000   1.0000   1.0000   1.0000   1.0000
     1.0000   1.0000   1.0000   1.0000   1.0000   1.0000   1.0000   1.0000
     1.0000   1.0000   1.0000   1.0000   1.0000   1.0000   1.0000   1.0000
     1.0000   1.0000   1.0000   1.0000   1.0000   1.0000   1.0000   1.0000

          k =-0.5000 0.8645 0.1583 (  6340 PWs)   bands (ev):

   -13.7385 -13.7385 -13.7338 -13.7338 -13.7261 -13.7261 -13.7242 -13.7242
   -13.7172 -13.7172 -13.7078 -13.7078 -13.6969 -13.6969 -13.6834 -13.6834
   -13.6708 -13.6708 -13.6618 -13.6618  -5.4419  -5.4419  -4.7565  -4.7565
     0.2664   0.2664   1.1213   1.1213   4.0685   4.0685   4.6060   4.6060
     5.4725   5.4725   5.6380   5.6380   6.1794   6.1794   7.0010   7.0010

     occupation numbers 
     1.0000   1.0000   1.0000   1.0000   1.0000   1.0000   1.0000   1.0000
     1.0000   1.0000   1.0000   1.0000   1.0000   1.0000   1.0000   1.0000
     1.0000   1.0000   1.0000   1.0000   1.0000   1.0000   1.0000   1.0000
     1.0000   1.0000   1.0000   1.0000   1.0000   1.0000   1.0000   1.0000
     1.0000   1.0000   1.0000   1.0000   1.0000   1.0000   1.0000   1.0000

          k =-0.5000 0.8645 0.4750 (  6318 PWs)   bands (ev):

   -13.7403 -13.7403 -13.7356 -13.7356 -13.7262 -13.7262 -13.7234 -13.7234
   -13.7167 -13.7167 -13.7067 -13.7067 -13.6961 -13.6961 -13.6831 -13.6831
   -13.6710 -13.6710 -13.6617 -13.6617  -5.3520  -5.3520  -4.7499  -4.7499
     0.3224   0.3224   1.1176   1.1176   3.6208   3.6208   4.4086   4.4086
     4.8856   4.8856   5.8911   5.8911   6.1046   6.1046   6.8956   6.8956

     occupation numbers 
     1.0000   1.0000   1.0000   1.0000   1.0000   1.0000   1.0000   1.0000
     1.0000   1.0000   1.0000   1.0000   1.0000   1.0000   1.0000   1.0000
     1.0000   1.0000   1.0000   1.0000   1.0000   1.0000   1.0000   1.0000
     1.0000   1.0000   1.0000   1.0000   1.0000   1.0000   1.0000   1.0000
     1.0000   1.0000   1.0000   1.0000   1.0000   1.0000   1.0000   1.0000

          k =-0.5000 0.8645 0.7916 (  6308 PWs)   bands (ev):

   -13.7427 -13.7427 -13.7380 -13.7380 -13.7260 -13.7260 -13.7227 -13.7227
   -13.7160 -13.7160 -13.7054 -13.7054 -13.6947 -13.6947 -13.6826 -13.6826
   -13.6714 -13.6714 -13.6615 -13.6615  -5.1991  -5.1991  -4.7622  -4.7622
     0.3573   0.3573   1.1251   1.1251   3.2730   3.2730   4.0771   4.0771
     4.6943   4.6943   5.3673   5.3673   5.9458   5.9458   6.7363   6.7363

     occupation numbers 
     1.0000   1.0000   1.0000   1.0000   1.0000   1.0000   1.0000   1.0000
     1.0000   1.0000   1.0000   1.0000   1.0000   1.0000   1.0000   1.0000
     1.0000   1.0000   1.0000   1.0000   1.0000   1.0000   1.0000   1.0000
     1.0000   1.0000   1.0000   1.0000   1.0000   1.0000   1.0000   1.0000
     1.0000   1.0000   1.0000   1.0000   1.0000   1.0000   1.0000   1.0000

          k =-0.5000 0.8645 1.1083 (  6336 PWs)   bands (ev):

   -13.7443 -13.7443 -13.7397 -13.7397 -13.7258 -13.7258 -13.7224 -13.7224
   -13.7156 -13.7156 -13.7046 -13.7046 -13.6935 -13.6935 -13.6822 -13.6822
   -13.6716 -13.6716 -13.6614 -13.6614  -5.0441  -5.0441  -4.8147  -4.8147
     0.3345   0.3345   1.1532   1.1532   3.2856   3.2856   3.6413   3.6413
     4.6926   4.6926   5.0023   5.0023   5.8954   5.8954   6.3987   6.3987

     occupation numbers 
     1.0000   1.0000   1.0000   1.0000   1.0000   1.0000   1.0000   1.0000
     1.0000   1.0000   1.0000   1.0000   1.0000   1.0000   1.0000   1.0000
     1.0000   1.0000   1.0000   1.0000   1.0000   1.0000   1.0000   1.0000
     1.0000   1.0000   1.0000   1.0000   1.0000   1.0000   1.0000   1.0000
     1.0000   1.0000   1.0000   1.0000   1.0000   1.0000   1.0000   1.0000

          k =-0.5000 1.2103 0.1583 (  6336 PWs)   bands (ev):

   -13.7397 -13.7397 -13.7380 -13.7380 -13.7225 -13.7225 -13.7218 -13.7218
   -13.7138 -13.7138 -13.7095 -13.7095 -13.6936 -13.6936 -13.6890 -13.6890
   -13.6667 -13.6667 -13.6634 -13.6634  -5.1249  -5.1249  -4.8690  -4.8690
     0.2206   0.2206   0.5226   0.5226   4.5334   4.5334   4.8804   4.8804
     5.3727   5.3727   5.6099   5.6099   6.2995   6.2995   6.6516   6.6516

     occupation numbers 
     1.0000   1.0000   1.0000   1.0000   1.0000   1.0000   1.0000   1.0000
     1.0000   1.0000   1.0000   1.0000   1.0000   1.0000   1.0000   1.0000
     1.0000   1.0000   1.0000   1.0000   1.0000   1.0000   1.0000   1.0000
     1.0000   1.0000   1.0000   1.0000   1.0000   1.0000   1.0000   1.0000
     1.0000   1.0000   1.0000   1.0000   1.0000   1.0000   1.0000   1.0000

          k =-0.5000 1.2103 0.4750 (  6328 PWs)   bands (ev):

   -13.7419 -13.7419 -13.7401 -13.7401 -13.7225 -13.7225 -13.7214 -13.7214
   -13.7130 -13.7130 -13.7090 -13.7090 -13.6926 -13.6926 -13.6882 -13.6882
   -13.6667 -13.6667 -13.6634 -13.6634  -5.0595  -5.0595  -4.8353  -4.8353
     0.3541   0.3541   0.6293   0.6293   3.9066   3.9066   4.4281   4.4281
     4.9584   4.9584   5.4002   5.4002   6.0608   6.0608   6.4944   6.4944

     occupation numbers 
     1.0000   1.0000   1.0000   1.0000   1.0000   1.0000   1.0000   1.0000
     1.0000   1.0000   1.0000   1.0000   1.0000   1.0000   1.0000   1.0000
     1.0000   1.0000   1.0000   1.0000   1.0000   1.0000   1.0000   1.0000
     1.0000   1.0000   1.0000   1.0000   1.0000   1.0000   1.0000   1.0000
     1.0000   1.0000   1.0000   1.0000   1.0000   1.0000   1.0000   1.0000

          k =-0.5000 1.2103 0.7916 (  6332 PWs)   bands (ev):

   -13.7448 -13.7448 -13.7430 -13.7430 -13.7226 -13.7226 -13.7211 -13.7211
   -13.7121 -13.7121 -13.7083 -13.7083 -13.6910 -13.6910 -13.6870 -13.6870
   -13.6668 -13.6668 -13.6633 -13.6633  -4.9557  -4.9557  -4.7936  -4.7936
     0.5542   0.5542   0.8129   0.8129   3.3368   3.3368   3.8483   3.8483
     4.4007   4.4007   4.8566   4.8566   5.9506   5.9506   6.3204   6.3204

     occupation numbers 
     1.0000   1.0000   1.0000   1.0000   1.0000   1.0000   1.0000   1.0000
     1.0000   1.0000   1.0000   1.0000   1.0000   1.0000   1.0000   1.0000
     1.0000   1.0000   1.0000   1.0000   1.0000   1.0000   1.0000   1.0000
     1.0000   1.0000   1.0000   1.0000   1.0000   1.0000   1.0000   1.0000
     1.0000   1.0000   1.0000   1.0000   1.0000   1.0000   1.0000   1.0000

          k =-0.5000 1.2103 1.1083 (  6364 PWs)   bands (ev):

   -13.7468 -13.7468 -13.7451 -13.7451 -13.7227 -13.7227 -13.7210 -13.7210
   -13.7114 -13.7114 -13.7077 -13.7077 -13.6898 -13.6898 -13.6861 -13.6861
   -13.6669 -13.6669 -13.6632 -13.6632  -4.8636  -4.8636  -4.7788  -4.7788
     0.6866   0.6866   0.9962   0.9962   3.1350   3.1350   3.3826   3.3826
     4.0366   4.0366   4.3371   4.3371   6.0453   6.0453   6.2307   6.2307

     occupation numbers 
     1.0000   1.0000   1.0000   1.0000   1.0000   1.0000   1.0000   1.0000
     1.0000   1.0000   1.0000   1.0000   1.0000   1.0000   1.0000   1.0000
     1.0000   1.0000   1.0000   1.0000   1.0000   1.0000   1.0000   1.0000
     1.0000   1.0000   1.0000   1.0000   1.0000   1.0000   1.0000   1.0000
     1.0000   1.0000   1.0000   1.0000   1.0000   1.0000   1.0000   1.0000

     highest occupied level (ev):     7.4069

!    total energy              =    -827.74484027 Ry
     estimated scf accuracy    <          2.7E-11 Ry

     The total energy is the sum of the following terms:
     one-electron contribution =    -266.30978297 Ry
     hartree contribution      =     182.37316125 Ry
     xc contribution           =    -308.98945390 Ry
     ewald contribution        =    -434.69892683 Ry
     DFT-D3 Dispersion         =      -0.11983782 Ry

     convergence has been achieved in  12 iterations

     Forces acting on atoms (cartesian axes, Ry/au):

     atom    1 type  2   force =     0.00020833   -0.00000000   -0.00039402
     atom    2 type  1   force =    -0.00034106    0.00000000   -0.00007112
     atom    3 type  2   force =    -0.00020833   -0.00000000   -0.00039402
     atom    4 type  1   force =     0.00034106   -0.00000000   -0.00007112
     atom    5 type  2   force =     0.00020833    0.00000000    0.00039402
     atom    6 type  1   force =    -0.00034106    0.00000000    0.00007112
     atom    7 type  2   force =    -0.00020833    0.00000000    0.00039402
     atom    8 type  1   force =     0.00034106   -0.00000000    0.00007112
     The non-local contrib.  to forces
     atom    1 type  2   force =    -0.10330167    0.00000000    0.11357834
     atom    2 type  1   force =     0.34608996    0.00000000    0.30349352
     atom    3 type  2   force =     0.10330167    0.00000000    0.11357834
     atom    4 type  1   force =    -0.34608996    0.00000000    0.30349352
     atom    5 type  2   force =    -0.10330167    0.00000000   -0.11357834
     atom    6 type  1   force =     0.34608996    0.00000000   -0.30349352
     atom    7 type  2   force =     0.10330167    0.00000000   -0.11357834
     atom    8 type  1   force =    -0.34608996    0.00000000   -0.30349352
     The ionic contribution  to forces
     atom    1 type  2   force =     1.15231004   -0.00000000   -1.30861200
     atom    2 type  1   force =    -0.61003809   -0.00000000   -0.74273458
     atom    3 type  2   force =    -1.15231004    0.00000000   -1.30861200
     atom    4 type  1   force =     0.61003809   -0.00000000   -0.74273458
     atom    5 type  2   force =     1.15231004    0.00000000    1.30861200
     atom    6 type  1   force =    -0.61003809   -0.00000000    0.74273458
     atom    7 type  2   force =    -1.15231004   -0.00000000    1.30861200
     atom    8 type  1   force =     0.61003809   -0.00000000    0.74273458
     The local contribution  to forces
     atom    1 type  2   force =    -1.05969662    0.00000000    1.20556197
     atom    2 type  1   force =     0.27051961    0.00000000    0.44323759
     atom    3 type  2   force =     1.05969662    0.00000000    1.20556197
     atom    4 type  1   force =    -0.27051961    0.00000000    0.44323759
     atom    5 type  2   force =    -1.05969662    0.00000000   -1.20556197
     atom    6 type  1   force =     0.27051961   -0.00000000   -0.44323759
     atom    7 type  2   force =     1.05969662    0.00000000   -1.20556197
     atom    8 type  1   force =    -0.27051961    0.00000000   -0.44323759
     The core correction contribution to forces
     atom    1 type  2   force =     0.01157882    0.00000000   -0.01257553
     atom    2 type  1   force =    -0.00626530   -0.00000000   -0.00502862
     atom    3 type  2   force =    -0.01157882   -0.00000000   -0.01257553
     atom    4 type  1   force =     0.00626530    0.00000000   -0.00502862
     atom    5 type  2   force =     0.01157882   -0.00000000    0.01257553
     atom    6 type  1   force =    -0.00626530    0.00000000    0.00502862
     atom    7 type  2   force =    -0.01157882   -0.00000000    0.01257553
     atom    8 type  1   force =     0.00626530    0.00000000    0.00502862
     The Hubbard contrib.    to forces
     atom    1 type  2   force =     0.00000000    0.00000000    0.00000000
     atom    2 type  1   force =     0.00000000    0.00000000    0.00000000
     atom    3 type  2   force =     0.00000000    0.00000000    0.00000000
     atom    4 type  1   force =     0.00000000    0.00000000    0.00000000
     atom    5 type  2   force =     0.00000000    0.00000000    0.00000000
     atom    6 type  1   force =     0.00000000    0.00000000    0.00000000
     atom    7 type  2   force =     0.00000000    0.00000000    0.00000000
     atom    8 type  1   force =     0.00000000    0.00000000    0.00000000
     The SCF correction term to forces
     atom    1 type  2   force =     0.00000097   -0.00000000   -0.00000127
     atom    2 type  1   force =    -0.00001549    0.00000000   -0.00000962
     atom    3 type  2   force =    -0.00000097   -0.00000000   -0.00000127
     atom    4 type  1   force =     0.00001549    0.00000000   -0.00000962
     atom    5 type  2   force =     0.00000097    0.00000000    0.00000127
     atom    6 type  1   force =    -0.00001549    0.00000000    0.00000962
     atom    7 type  2   force =    -0.00000097    0.00000000    0.00000127
     atom    8 type  1   force =     0.00001549   -0.00000000    0.00000962

     DFT-D3 dispersion contribution to forces:
     atom    1 type  2   force =    -0.00068322    0.00000000    0.00165448
     atom    2 type  1   force =    -0.00063175    0.00000000    0.00097060
     atom    3 type  2   force =     0.00068322    0.00000000    0.00165448
     atom    4 type  1   force =     0.00063175   -0.00000000    0.00097060
     atom    5 type  2   force =    -0.00068322    0.00000000   -0.00165448
     atom    6 type  1   force =    -0.00063175   -0.00000000   -0.00097060
     atom    7 type  2   force =     0.00068322    0.00000000   -0.00165448
     atom    8 type  1   force =     0.00063175   -0.00000000   -0.00097060

     Total force =     0.001131     Total SCF correction =     0.000037

     DFT-D3 dispersion Force =     0.004264

     Writing all to output data dir ./tmp/SnSe_pnma.save/ :
     XML data file, charge density, pseudopotentials, collected wavefunctions
 
     init_run     :      1.53s CPU      1.71s WALL (       1 calls)
     electrons    :     39.67s CPU     42.46s WALL (       1 calls)
     forces       :      0.71s CPU      0.83s WALL (       1 calls)
     force_dftd3  :      0.05s CPU      0.06s WALL (       1 calls)

     Called by init_run:
     wfcinit      :      0.83s CPU      0.86s WALL (       1 calls)
     wfcinit:atom :      0.01s CPU      0.01s WALL (      11 calls)
     wfcinit:wfcr :      0.72s CPU      0.73s WALL (      11 calls)
     potinit      :      0.18s CPU      0.19s WALL (       1 calls)
     hinit0       :      0.17s CPU      0.18s WALL (       1 calls)

     Called by electrons:
     c_bands      :     29.27s CPU     29.55s WALL (      12 calls)
     sum_band     :      6.83s CPU      7.98s WALL (      12 calls)
     v_of_rho     :      1.31s CPU      1.40s WALL (      13 calls)
     v_h          :      0.10s CPU      0.10s WALL (      13 calls)
     v_xc         :      1.32s CPU      1.41s WALL (      14 calls)
     newd         :      2.30s CPU      3.64s WALL (      13 calls)
     mix_rho      :      0.14s CPU      0.15s WALL (      12 calls)
     energy_dftd3 :      0.05s CPU      0.05s WALL (       1 calls)

     Called by c_bands:
     init_us_2    :      0.89s CPU      0.90s WALL (     286 calls)
     cegterg      :     25.12s CPU     25.30s WALL (     132 calls)

     Called by sum_band:
     sum_band:wei :      0.00s CPU      0.00s WALL (      12 calls)
     sum_band:loo :      4.19s CPU      4.23s WALL (      12 calls)
     sum_band:buf :      0.06s CPU      0.06s WALL (     132 calls)
     sum_band:ini :      0.39s CPU      0.39s WALL (     132 calls)
     sum_band:cal :      0.56s CPU      0.56s WALL (     132 calls)
     sum_band:bec :      0.01s CPU      0.01s WALL (     132 calls)
     addusdens    :      2.36s CPU      3.45s WALL (      12 calls)
                                        0.00s GPU  (      12 calls)
     addusd:skk   :      0.01s CPU      0.01s WALL (      24 calls)
                                        0.00s GPU  (      24 calls)

     Called by *egterg:
     cdiaghg      :      0.88s CPU      0.88s WALL (     585 calls)
     cegterg:over :      1.33s CPU      1.34s WALL (     453 calls)
     cegterg:upda :      0.78s CPU      0.78s WALL (     453 calls)
     cegterg:last :      1.98s CPU      1.98s WALL (     337 calls)
     h_psi        :     18.11s CPU     18.27s WALL (     596 calls)
     s_psi        :      1.95s CPU      1.96s WALL (     596 calls)
     g_psi        :      0.07s CPU      0.07s WALL (     453 calls)

     Called by h_psi:
     h_psi:calbec :      1.81s CPU      1.82s WALL (     596 calls)
     vloc_psi     :     14.14s CPU     14.29s WALL (     596 calls)
     add_vuspsi   :      1.98s CPU      1.99s WALL (     596 calls)

     General routines
     calbec       :      2.55s CPU      2.57s WALL (     772 calls)
     fft          :      0.61s CPU      0.63s WALL (     178 calls)
     ffts         :      0.02s CPU      0.02s WALL (      25 calls)
     fftw         :     10.05s CPU     10.15s WALL (   37760 calls)
     interpolate  :      0.06s CPU      0.06s WALL (      13 calls)
 
     Parallel routines
 
     PWSCF        :     42.40s CPU     46.07s WALL

 
   This run was terminated on:  15:43:25  20May2026            

=------------------------------------------------------------------------------=
   JOB DONE.
=------------------------------------------------------------------------------=
