
     Program PWSCF v.7.3.1 starts on 20May2026 at 16:27:20 

     This program is part of the open-source Quantum ESPRESSO suite
     for quantum simulation of materials; please cite
         "P. Giannozzi et al., J. Phys.:Condens. Matter 21 395502 (2009);
         "P. Giannozzi et al., J. Phys.:Condens. Matter 29 465901 (2017);
         "P. Giannozzi et al., J. Chem. Phys. 152 154105 (2020);
          URL http://www.quantum-espresso.org", 
     in publications or presentations arising from this work. More details at
     http://www.quantum-espresso.org/quote

     Parallel version (MPI & OpenMP), running on       6 processor cores
     Number of MPI processes:                 6
     Threads/MPI process:                     1

     MPI processes distributed on     1 nodes
     10607 MiB available memory on the printing compute node when the environment starts
 
     Waiting for input...
     Reading input from standard input

     Current dimensions of program PWSCF are:
     Max number of different atomic species (ntypx) = 10
     Max number of k-points (npk) =  40000
     Max angular momentum in pseudopotentials (lmaxx) =  4
 
     K-points division:     npool     =       3
     R & G space division:  proc/nbgrp/npool/nimage =       2
     Subspace diagonalization in iterative solution of the eigenvalue problem:
     a serial algorithm will be used

 
     Parallelization info
     --------------------
     sticks:   dense  smooth     PW     G-vecs:    dense   smooth      PW
     Min        3564    1428    408               145628    36899    5662
     Max        3565    1429    409               145629    36900    5663
     Sum        7129    2857    817               291257    73799   11325
 
     Using Slab Decomposition
 


     bravais-lattice index     =            8
     lattice parameter (alat)  =      22.7334  a.u.
     unit-cell volume          =    1542.6952 (a.u.)^3
     number of atoms/cell      =            8
     number of atomic types    =            2
     number of electrons       =        80.00
     number of Kohn-Sham states=           40
     kinetic-energy cutoff     =      50.0000  Ry
     charge density cutoff     =     500.0000  Ry
     scf convergence threshold =      1.0E-08
     mixing beta               =       0.7000
     number of iterations used =            8  plain     mixing
     Exchange-correlation= SLA  PW   PBE  PBE
                           (   1   4   3   4   0   0   0)

     celldm(1)=  22.733405  celldm(2)=   0.346750  celldm(3)=   0.378678
     celldm(4)=   0.000000  celldm(5)=   0.000000  celldm(6)=   0.000000

     crystal axes: (cart. coord. in units of alat)
               a(1) = (   1.000000   0.000000   0.000000 )  
               a(2) = (   0.000000   0.346750   0.000000 )  
               a(3) = (   0.000000   0.000000   0.378678 )  

     reciprocal axes: (cart. coord. in units 2 pi/alat)
               b(1) = (  1.000000  0.000000  0.000000 )  
               b(2) = (  0.000000  2.883924  0.000000 )  
               b(3) = (  0.000000  0.000000  2.640764 )  


     PseudoPot. # 1 for Sn read from file:
     ../pseudo/Sn_pbe_v1.uspp.F.UPF
     MD5 check sum: 4cf58ce39ec5d5d420df3dd08604eb00
     Pseudo is Ultrasoft + core correction, Zval = 14.0
     Generated by new atomic code, or converted to UPF format
     Using radial grid of  891 points,  6 beta functions with: 
                l(1) =   0
                l(2) =   0
                l(3) =   1
                l(4) =   1
                l(5) =   2
                l(6) =   2
     Q(r) pseudized with  6 coefficients,  rinner =    1.200   1.200   1.200
                                                       1.200   1.200

     PseudoPot. # 2 for Se read from file:
     ../pseudo/Se_pbe_v1.uspp.F.UPF
     MD5 check sum: 1b3568f3a8ae88f9a2a0ad0698632c85
     Pseudo is Ultrasoft + core correction, Zval =  6.0
     Generated by new atomic code, or converted to UPF format
     Using radial grid of  877 points,  6 beta functions with: 
                l(1) =   0
                l(2) =   0
                l(3) =   1
                l(4) =   1
                l(5) =   2
                l(6) =   2
     Q(r) pseudized with  8 coefficients,  rinner =    1.300   1.300   1.300
                                                       1.300   1.300

     atomic species   valence    mass     pseudopotential
     Sn               14.00   118.71000     Sn( 1.00)
     Se                6.00    78.97100     Se( 1.00)

      8 Sym. Ops., with inversion, found ( 6 have fractional translation)


                                    s                        frac. trans.

      isym =  1     identity                                     

 cryst.   s( 1) = (     1          0          0      )
                  (     0          1          0      )
                  (     0          0          1      )

 cart.    s( 1) = (  1.0000000  0.0000000  0.0000000 )
                  (  0.0000000  1.0000000  0.0000000 )
                  (  0.0000000  0.0000000  1.0000000 )


      isym =  2     180 deg rotation - cart. axis [0,0,1]        

 cryst.   s( 2) = (    -1          0          0      )    f =(  0.5000000 )
                  (     0         -1          0      )       (  0.0000000 )
                  (     0          0          1      )       ( -0.5000000 )

 cart.    s( 2) = ( -1.0000000  0.0000000  0.0000000 )    f =(  0.5000000 )
                  (  0.0000000 -1.0000000  0.0000000 )       (  0.0000000 )
                  (  0.0000000  0.0000000  1.0000000 )       ( -0.1893392 )


      isym =  3     180 deg rotation - cart. axis [0,1,0]        

 cryst.   s( 3) = (    -1          0          0      )    f =(  0.0000000 )
                  (     0          1          0      )       ( -0.5000000 )
                  (     0          0         -1      )       ( -0.0000000 )

 cart.    s( 3) = ( -1.0000000  0.0000000  0.0000000 )    f =(  0.0000000 )
                  (  0.0000000  1.0000000  0.0000000 )       ( -0.1733749 )
                  (  0.0000000  0.0000000 -1.0000000 )       ( -0.0000000 )


      isym =  4     180 deg rotation - cart. axis [1,0,0]        

 cryst.   s( 4) = (     1          0          0      )    f =(  0.5000000 )
                  (     0         -1          0      )       (  0.5000000 )
                  (     0          0         -1      )       (  0.5000000 )

 cart.    s( 4) = (  1.0000000  0.0000000  0.0000000 )    f =(  0.5000000 )
                  (  0.0000000 -1.0000000  0.0000000 )       (  0.1733749 )
                  (  0.0000000  0.0000000 -1.0000000 )       (  0.1893392 )


      isym =  5     inversion                                    

 cryst.   s( 5) = (    -1          0          0      )
                  (     0         -1          0      )
                  (     0          0         -1      )

 cart.    s( 5) = ( -1.0000000  0.0000000  0.0000000 )
                  (  0.0000000 -1.0000000  0.0000000 )
                  (  0.0000000  0.0000000 -1.0000000 )


      isym =  6     inv. 180 deg rotation - cart. axis [0,0,1]   

 cryst.   s( 6) = (     1          0          0      )    f =(  0.5000000 )
                  (     0          1          0      )       (  0.0000000 )
                  (     0          0         -1      )       (  0.5000000 )

 cart.    s( 6) = (  1.0000000  0.0000000  0.0000000 )    f =(  0.5000000 )
                  (  0.0000000  1.0000000  0.0000000 )       (  0.0000000 )
                  (  0.0000000  0.0000000 -1.0000000 )       (  0.1893392 )


      isym =  7     inv. 180 deg rotation - cart. axis [0,1,0]   

 cryst.   s( 7) = (     1          0          0      )    f =(  0.0000000 )
                  (     0         -1          0      )       (  0.5000000 )
                  (     0          0          1      )       (  0.0000000 )

 cart.    s( 7) = (  1.0000000  0.0000000  0.0000000 )    f =(  0.0000000 )
                  (  0.0000000 -1.0000000  0.0000000 )       (  0.1733749 )
                  (  0.0000000  0.0000000  1.0000000 )       (  0.0000000 )


      isym =  8     inv. 180 deg rotation - cart. axis [1,0,0]   

 cryst.   s( 8) = (    -1          0          0      )    f =(  0.5000000 )
                  (     0          1          0      )       ( -0.5000000 )
                  (     0          0          1      )       ( -0.5000000 )

 cart.    s( 8) = ( -1.0000000  0.0000000  0.0000000 )    f =(  0.5000000 )
                  (  0.0000000  1.0000000  0.0000000 )       ( -0.1733749 )
                  (  0.0000000  0.0000000  1.0000000 )       ( -0.1893392 )


     point group D_2h (mmm) 
     there are  8 classes
     the character table:

       E     C2    C2'   C2''  i     s_v   s_v'  s_v''
A_g    1.00  1.00  1.00  1.00  1.00  1.00  1.00  1.00
B_1g   1.00  1.00 -1.00 -1.00  1.00  1.00 -1.00 -1.00
B_2g   1.00 -1.00  1.00 -1.00  1.00 -1.00  1.00 -1.00
B_3g   1.00 -1.00 -1.00  1.00  1.00 -1.00 -1.00  1.00
A_u    1.00  1.00  1.00  1.00 -1.00 -1.00 -1.00 -1.00
B_1u   1.00  1.00 -1.00 -1.00 -1.00 -1.00  1.00  1.00
B_2u   1.00 -1.00  1.00 -1.00 -1.00  1.00 -1.00  1.00
B_3u   1.00 -1.00 -1.00  1.00 -1.00  1.00  1.00 -1.00

     the symmetry operations in each class and the name of the first element:

     E        1
          identity                                               
     C2       2
          180 deg rotation - cart. axis [0,0,1]                  
     C2'      4
          180 deg rotation - cart. axis [1,0,0]                  
     C2''     3
          180 deg rotation - cart. axis [0,1,0]                  
     i        5
          inversion                                              
     s_v      6
          inv. 180 deg rotation - cart. axis [0,0,1]             
     s_v'     8
          inv. 180 deg rotation - cart. axis [1,0,0]             
     s_v''    7
          inv. 180 deg rotation - cart. axis [0,1,0]             

   Cartesian axes

     site n.     atom                  positions (alat units)
         1        Se     tau(   1) = (   0.8549563   0.0866874   0.1829956  )
         2        Sn     tau(   2) = (   0.1165395   0.0866874   0.0425207  )
         3        Se     tau(   3) = (   0.6450437   0.2600623   0.3723347  )
         4        Sn     tau(   4) = (   0.3834605   0.2600623   0.2318598  )
         5        Se     tau(   5) = (   0.3549563   0.0866874   0.0063436  )
         6        Sn     tau(   6) = (   0.6165395   0.0866874   0.1468185  )
         7        Se     tau(   7) = (   0.1450437   0.2600623   0.1956827  )
         8        Sn     tau(   8) = (   0.8834605   0.2600623   0.3361576  )

     --------------------------------------------
     DFT-D3 Dispersion Correction (3-body terms):
     --------------------------------------------
       Reference C6 values for interpolation: 

         atom   Coordination number   C6
         Se         0.000           427.35
         Se         0.990           427.57
         Se         1.981           421.05
         Sn         0.000          1255.14
         Sn         0.951          1084.09
         Sn         1.950          1010.83
         Sn         2.926           818.29
         Sn         3.912           672.20

       Values used:

         atom   Coordination number  R0_AB[au]  C6      C8
         Se         3.228            3.332    421.05  29958.36
         Sn         3.783            3.957    679.52  85287.01
         Se         3.228            3.332    421.05  29958.36
         Sn         3.783            3.957    679.52  85287.01
         Se         3.228            3.332    421.05  29958.36
         Sn         3.783            3.957    679.52  85287.01
         Se         3.228            3.332    421.05  29958.36
         Sn         3.783            3.957    679.52  85287.01

         Molecular C6 ( Ry / a.u.^6 ) =     34703.52


   Crystallographic axes

     site n.     atom                  positions (cryst. coord.)
         1        Se     tau(   1) = (  0.8549563  0.2500000  0.4832481  )
         2        Sn     tau(   2) = (  0.1165395  0.2500000  0.1122870  )
         3        Se     tau(   3) = (  0.6450437  0.7500000  0.9832481  )
         4        Sn     tau(   4) = (  0.3834605  0.7500000  0.6122870  )
         5        Se     tau(   5) = (  0.3549563  0.2500000  0.0167519  )
         6        Sn     tau(   6) = (  0.6165395  0.2500000  0.3877130  )
         7        Se     tau(   7) = (  0.1450437  0.7500000  0.5167519  )
         8        Sn     tau(   8) = (  0.8834605  0.7500000  0.8877130  )

     number of k points=    32
                       cart. coord. in units 2pi/alat
        k(    1) = (   0.1666667   0.1802452   0.1650477), wk =   0.0833333
        k(    2) = (   0.1666667   0.1802452   0.4951432), wk =   0.0833333
        k(    3) = (   0.1666667   0.1802452   0.8252387), wk =   0.0833333
        k(    4) = (   0.1666667   0.1802452   1.1553342), wk =   0.0833333
        k(    5) = (   0.1666667   0.5407357   0.1650477), wk =   0.0833333
        k(    6) = (   0.1666667   0.5407357   0.4951432), wk =   0.0833333
        k(    7) = (   0.1666667   0.5407357   0.8252387), wk =   0.0833333
        k(    8) = (   0.1666667   0.5407357   1.1553342), wk =   0.0833333
        k(    9) = (   0.1666667   0.9012262   0.1650477), wk =   0.0833333
        k(   10) = (   0.1666667   0.9012262   0.4951432), wk =   0.0833333
        k(   11) = (   0.1666667   0.9012262   0.8252387), wk =   0.0833333
        k(   12) = (   0.1666667   0.9012262   1.1553342), wk =   0.0833333
        k(   13) = (   0.1666667   1.2617167   0.1650477), wk =   0.0833333
        k(   14) = (   0.1666667   1.2617167   0.4951432), wk =   0.0833333
        k(   15) = (   0.1666667   1.2617167   0.8252387), wk =   0.0833333
        k(   16) = (   0.1666667   1.2617167   1.1553342), wk =   0.0833333
        k(   17) = (  -0.5000000   0.1802452   0.1650477), wk =   0.0416667
        k(   18) = (  -0.5000000   0.1802452   0.4951432), wk =   0.0416667
        k(   19) = (  -0.5000000   0.1802452   0.8252387), wk =   0.0416667
        k(   20) = (  -0.5000000   0.1802452   1.1553342), wk =   0.0416667
        k(   21) = (  -0.5000000   0.5407357   0.1650477), wk =   0.0416667
        k(   22) = (  -0.5000000   0.5407357   0.4951432), wk =   0.0416667
        k(   23) = (  -0.5000000   0.5407357   0.8252387), wk =   0.0416667
        k(   24) = (  -0.5000000   0.5407357   1.1553342), wk =   0.0416667
        k(   25) = (  -0.5000000   0.9012262   0.1650477), wk =   0.0416667
        k(   26) = (  -0.5000000   0.9012262   0.4951432), wk =   0.0416667
        k(   27) = (  -0.5000000   0.9012262   0.8252387), wk =   0.0416667
        k(   28) = (  -0.5000000   0.9012262   1.1553342), wk =   0.0416667
        k(   29) = (  -0.5000000   1.2617167   0.1650477), wk =   0.0416667
        k(   30) = (  -0.5000000   1.2617167   0.4951432), wk =   0.0416667
        k(   31) = (  -0.5000000   1.2617167   0.8252387), wk =   0.0416667
        k(   32) = (  -0.5000000   1.2617167   1.1553342), wk =   0.0416667

                       cryst. coord.
        k(    1) = (   0.1666667   0.0625000   0.0625000), wk =   0.0833333
        k(    2) = (   0.1666667   0.0625000   0.1875000), wk =   0.0833333
        k(    3) = (   0.1666667   0.0625000   0.3125000), wk =   0.0833333
        k(    4) = (   0.1666667   0.0625000   0.4375000), wk =   0.0833333
        k(    5) = (   0.1666667   0.1875000   0.0625000), wk =   0.0833333
        k(    6) = (   0.1666667   0.1875000   0.1875000), wk =   0.0833333
        k(    7) = (   0.1666667   0.1875000   0.3125000), wk =   0.0833333
        k(    8) = (   0.1666667   0.1875000   0.4375000), wk =   0.0833333
        k(    9) = (   0.1666667   0.3125000   0.0625000), wk =   0.0833333
        k(   10) = (   0.1666667   0.3125000   0.1875000), wk =   0.0833333
        k(   11) = (   0.1666667   0.3125000   0.3125000), wk =   0.0833333
        k(   12) = (   0.1666667   0.3125000   0.4375000), wk =   0.0833333
        k(   13) = (   0.1666667   0.4375000   0.0625000), wk =   0.0833333
        k(   14) = (   0.1666667   0.4375000   0.1875000), wk =   0.0833333
        k(   15) = (   0.1666667   0.4375000   0.3125000), wk =   0.0833333
        k(   16) = (   0.1666667   0.4375000   0.4375000), wk =   0.0833333
        k(   17) = (  -0.5000000   0.0625000   0.0625000), wk =   0.0416667
        k(   18) = (  -0.5000000   0.0625000   0.1875000), wk =   0.0416667
        k(   19) = (  -0.5000000   0.0625000   0.3125000), wk =   0.0416667
        k(   20) = (  -0.5000000   0.0625000   0.4375000), wk =   0.0416667
        k(   21) = (  -0.5000000   0.1875000   0.0625000), wk =   0.0416667
        k(   22) = (  -0.5000000   0.1875000   0.1875000), wk =   0.0416667
        k(   23) = (  -0.5000000   0.1875000   0.3125000), wk =   0.0416667
        k(   24) = (  -0.5000000   0.1875000   0.4375000), wk =   0.0416667
        k(   25) = (  -0.5000000   0.3125000   0.0625000), wk =   0.0416667
        k(   26) = (  -0.5000000   0.3125000   0.1875000), wk =   0.0416667
        k(   27) = (  -0.5000000   0.3125000   0.3125000), wk =   0.0416667
        k(   28) = (  -0.5000000   0.3125000   0.4375000), wk =   0.0416667
        k(   29) = (  -0.5000000   0.4375000   0.0625000), wk =   0.0416667
        k(   30) = (  -0.5000000   0.4375000   0.1875000), wk =   0.0416667
        k(   31) = (  -0.5000000   0.4375000   0.3125000), wk =   0.0416667
        k(   32) = (  -0.5000000   0.4375000   0.4375000), wk =   0.0416667

     Dense  grid:   291257 G-vectors     FFT dimensions: ( 162,  60,  64)

     Smooth grid:    73799 G-vectors     FFT dimensions: ( 108,  36,  40)

     Dynamical RAM for                 wfc:       2.81 MB

     Dynamical RAM for     wfc (w. buffer):      33.73 MB

     Dynamical RAM for           str. fact:       4.44 MB

     Dynamical RAM for           local pot:       0.00 MB

     Dynamical RAM for          nlocal pot:      10.12 MB

     Dynamical RAM for                qrad:       3.59 MB

     Dynamical RAM for          rho,v,vnew:      13.79 MB

     Dynamical RAM for               rhoin:       4.60 MB

     Dynamical RAM for            rho*nmix:      35.55 MB

     Dynamical RAM for           G-vectors:       8.61 MB

     Dynamical RAM for          h,s,v(r/c):       0.29 MB

     Dynamical RAM for          <psi|beta>:       0.09 MB

     Dynamical RAM for                 psi:       5.62 MB

     Dynamical RAM for                hpsi:       5.62 MB

     Dynamical RAM for                spsi:       5.62 MB

     Dynamical RAM for      wfcinit/wfcrot:       7.37 MB

     Dynamical RAM for           addusdens:     142.22 MB

     Dynamical RAM for          addusforce:     146.31 MB

     Estimated static dynamical RAM per process >      97.41 MB

     Estimated max dynamical RAM per process >     279.27 MB

     Estimated total dynamical RAM >       1.50 GB

     Initial potential from superposition of free atoms

     starting charge      75.9995, renormalised to      80.0000
     Starting wfcs are   52 randomized atomic wfcs

     total cpu time spent up to now is        3.2 secs

     Self-consistent Calculation

     iteration #  1     ecut=    50.00 Ry     beta= 0.70
     Davidson diagonalization with overlap

---- Real-time Memory Report at c_bands before calling an iterative solver
           334 MiB given to the printing process from OS
             0 MiB allocation reported by mallinfo(arena+hblkhd)
          9775 MiB available memory on the node where the printing process lives
------------------
     ethr =  1.00E-02,  avg # of iterations =  2.0

     total cpu time spent up to now is        8.3 secs

     total energy              =    -826.60579432 Ry
     estimated scf accuracy    <       2.72764723 Ry

     iteration #  2     ecut=    50.00 Ry     beta= 0.70
     Davidson diagonalization with overlap

---- Real-time Memory Report at c_bands before calling an iterative solver
           412 MiB given to the printing process from OS
             0 MiB allocation reported by mallinfo(arena+hblkhd)
          9498 MiB available memory on the node where the printing process lives
------------------
     ethr =  3.41E-03,  avg # of iterations =  3.0

     total cpu time spent up to now is       13.9 secs

     total energy              =    -827.50799434 Ry
     estimated scf accuracy    <       1.08449681 Ry

     iteration #  3     ecut=    50.00 Ry     beta= 0.70
     Davidson diagonalization with overlap

---- Real-time Memory Report at c_bands before calling an iterative solver
           445 MiB given to the printing process from OS
             0 MiB allocation reported by mallinfo(arena+hblkhd)
          9367 MiB available memory on the node where the printing process lives
------------------
     ethr =  1.36E-03,  avg # of iterations =  2.8

     total cpu time spent up to now is       18.7 secs

     total energy              =    -827.73167588 Ry
     estimated scf accuracy    <       0.01361005 Ry

     iteration #  4     ecut=    50.00 Ry     beta= 0.70
     Davidson diagonalization with overlap

---- Real-time Memory Report at c_bands before calling an iterative solver
           465 MiB given to the printing process from OS
             0 MiB allocation reported by mallinfo(arena+hblkhd)
          9330 MiB available memory on the node where the printing process lives
------------------
     ethr =  1.70E-05,  avg # of iterations =  4.9

     total cpu time spent up to now is       25.0 secs

     total energy              =    -827.73954129 Ry
     estimated scf accuracy    <       0.00571044 Ry

     iteration #  5     ecut=    50.00 Ry     beta= 0.70
     Davidson diagonalization with overlap

---- Real-time Memory Report at c_bands before calling an iterative solver
           469 MiB given to the printing process from OS
             0 MiB allocation reported by mallinfo(arena+hblkhd)
          9319 MiB available memory on the node where the printing process lives
------------------
     ethr =  7.14E-06,  avg # of iterations =  2.3

     total cpu time spent up to now is       29.6 secs

     total energy              =    -827.74060639 Ry
     estimated scf accuracy    <       0.00062555 Ry

     iteration #  6     ecut=    50.00 Ry     beta= 0.70
     Davidson diagonalization with overlap

---- Real-time Memory Report at c_bands before calling an iterative solver
           470 MiB given to the printing process from OS
             0 MiB allocation reported by mallinfo(arena+hblkhd)
          9316 MiB available memory on the node where the printing process lives
------------------
     ethr =  7.82E-07,  avg # of iterations =  4.3

     total cpu time spent up to now is       35.2 secs

     total energy              =    -827.74068012 Ry
     estimated scf accuracy    <       0.00099608 Ry

     iteration #  7     ecut=    50.00 Ry     beta= 0.70
     Davidson diagonalization with overlap

---- Real-time Memory Report at c_bands before calling an iterative solver
           471 MiB given to the printing process from OS
             0 MiB allocation reported by mallinfo(arena+hblkhd)
          9313 MiB available memory on the node where the printing process lives
------------------
     ethr =  7.82E-07,  avg # of iterations =  2.9

     total cpu time spent up to now is       40.1 secs

     total energy              =    -827.74081840 Ry
     estimated scf accuracy    <       0.00002366 Ry

     iteration #  8     ecut=    50.00 Ry     beta= 0.70
     Davidson diagonalization with overlap

---- Real-time Memory Report at c_bands before calling an iterative solver
           473 MiB given to the printing process from OS
             0 MiB allocation reported by mallinfo(arena+hblkhd)
          9311 MiB available memory on the node where the printing process lives
------------------
     ethr =  2.96E-08,  avg # of iterations =  5.0

     total cpu time spent up to now is       46.4 secs

     total energy              =    -827.74083739 Ry
     estimated scf accuracy    <       0.00002216 Ry

     iteration #  9     ecut=    50.00 Ry     beta= 0.70
     Davidson diagonalization with overlap

---- Real-time Memory Report at c_bands before calling an iterative solver
           478 MiB given to the printing process from OS
             0 MiB allocation reported by mallinfo(arena+hblkhd)
          9304 MiB available memory on the node where the printing process lives
------------------
     ethr =  2.77E-08,  avg # of iterations =  2.0

     total cpu time spent up to now is       51.1 secs

     total energy              =    -827.74083931 Ry
     estimated scf accuracy    <       0.00000168 Ry

     iteration # 10     ecut=    50.00 Ry     beta= 0.70
     Davidson diagonalization with overlap

---- Real-time Memory Report at c_bands before calling an iterative solver
           480 MiB given to the printing process from OS
             0 MiB allocation reported by mallinfo(arena+hblkhd)
          9303 MiB available memory on the node where the printing process lives
------------------
     ethr =  2.10E-09,  avg # of iterations =  4.9

     total cpu time spent up to now is       57.9 secs

     total energy              =    -827.74084045 Ry
     estimated scf accuracy    <       0.00000023 Ry

     iteration # 11     ecut=    50.00 Ry     beta= 0.70
     Davidson diagonalization with overlap

---- Real-time Memory Report at c_bands before calling an iterative solver
           480 MiB given to the printing process from OS
             0 MiB allocation reported by mallinfo(arena+hblkhd)
          9303 MiB available memory on the node where the printing process lives
------------------
     ethr =  2.84E-10,  avg # of iterations =  3.8

     total cpu time spent up to now is       63.5 secs

     total energy              =    -827.74084046 Ry
     estimated scf accuracy    <       0.00000009 Ry

     iteration # 12     ecut=    50.00 Ry     beta= 0.70
     Davidson diagonalization with overlap

---- Real-time Memory Report at c_bands before calling an iterative solver
           481 MiB given to the printing process from OS
             0 MiB allocation reported by mallinfo(arena+hblkhd)
          9303 MiB available memory on the node where the printing process lives
------------------
     ethr =  1.16E-10,  avg # of iterations =  3.1

     total cpu time spent up to now is       68.3 secs

     End of self-consistent calculation

          k = 0.1667 0.1802 0.1650 (  9202 PWs)   bands (ev):

   -14.2892 -14.2814 -14.2775 -14.2735 -14.2701 -14.2694 -14.2684 -14.2682
   -14.2594 -14.2525 -14.2514 -14.2510 -14.2481 -14.2441 -14.2310 -14.2269
   -14.2236 -14.2203 -14.2165 -14.2129  -6.2552  -6.0210  -5.4385  -5.1305
     0.1150   0.8468   1.5123   1.9399   2.7304   3.8858   4.0566   4.2827
     4.4962   4.5529   5.0344   5.2974   5.5044   5.7769   6.3822   6.6659

     occupation numbers 
     1.0000   1.0000   1.0000   1.0000   1.0000   1.0000   1.0000   1.0000
     1.0000   1.0000   1.0000   1.0000   1.0000   1.0000   1.0000   1.0000
     1.0000   1.0000   1.0000   1.0000   1.0000   1.0000   1.0000   1.0000
     1.0000   1.0000   1.0000   1.0000   1.0000   1.0000   1.0000   1.0000
     1.0000   1.0000   1.0000   1.0000   1.0000   1.0000   1.0000   1.0000

          k = 0.1667 0.1802 0.4951 (  9199 PWs)   bands (ev):

   -14.2882 -14.2813 -14.2776 -14.2738 -14.2704 -14.2700 -14.2691 -14.2683
   -14.2577 -14.2520 -14.2517 -14.2509 -14.2465 -14.2426 -14.2312 -14.2275
   -14.2233 -14.2205 -14.2163 -14.2133  -6.1471  -5.9223  -5.4243  -5.1453
    -0.2112   0.5447   1.0512   1.5745   2.8086   3.9533   4.1620   4.5723
     4.8233   5.0548   5.0779   5.4002   5.8613   6.1671   6.3152   6.6232

     occupation numbers 
     1.0000   1.0000   1.0000   1.0000   1.0000   1.0000   1.0000   1.0000
     1.0000   1.0000   1.0000   1.0000   1.0000   1.0000   1.0000   1.0000
     1.0000   1.0000   1.0000   1.0000   1.0000   1.0000   1.0000   1.0000
     1.0000   1.0000   1.0000   1.0000   1.0000   1.0000   1.0000   1.0000
     1.0000   1.0000   1.0000   1.0000   1.0000   1.0000   1.0000   1.0000

          k = 0.1667 0.1802 0.8252 (  9196 PWs)   bands (ev):

   -14.2864 -14.2814 -14.2776 -14.2747 -14.2714 -14.2708 -14.2696 -14.2687
   -14.2551 -14.2524 -14.2522 -14.2502 -14.2435 -14.2407 -14.2313 -14.2288
   -14.2226 -14.2208 -14.2160 -14.2139  -5.9556  -5.7488  -5.4338  -5.2007
    -0.5503   0.0310   0.6251   1.0750   3.1026   4.1856   4.3959   4.9141
     4.9778   5.2090   5.4032   5.6204   6.0148   6.4578   6.5123   6.8661

     occupation numbers 
     1.0000   1.0000   1.0000   1.0000   1.0000   1.0000   1.0000   1.0000
     1.0000   1.0000   1.0000   1.0000   1.0000   1.0000   1.0000   1.0000
     1.0000   1.0000   1.0000   1.0000   1.0000   1.0000   1.0000   1.0000
     1.0000   1.0000   1.0000   1.0000   1.0000   1.0000   1.0000   1.0000
     1.0000   1.0000   1.0000   1.0000   1.0000   1.0000   1.0000   1.0000

          k = 0.1667 0.1802 1.1553 (  9208 PWs)   bands (ev):

   -14.2843 -14.2824 -14.2770 -14.2759 -14.2720 -14.2718 -14.2694 -14.2691
   -14.2536 -14.2531 -14.2513 -14.2503 -14.2408 -14.2398 -14.2309 -14.2300
   -14.2219 -14.2212 -14.2154 -14.2147  -5.7344  -5.5914  -5.4722  -5.3232
    -0.6563  -0.4411   0.4917   0.6633   3.5751   4.0920   4.7450   4.9547
     5.1440   5.2306   5.4008   5.7304   6.3012   6.6557   6.7913   6.8769

     occupation numbers 
     1.0000   1.0000   1.0000   1.0000   1.0000   1.0000   1.0000   1.0000
     1.0000   1.0000   1.0000   1.0000   1.0000   1.0000   1.0000   1.0000
     1.0000   1.0000   1.0000   1.0000   1.0000   1.0000   1.0000   1.0000
     1.0000   1.0000   1.0000   1.0000   1.0000   1.0000   1.0000   1.0000
     1.0000   1.0000   1.0000   1.0000   1.0000   1.0000   1.0000   1.0000

          k = 0.1667 0.5407 0.1650 (  9208 PWs)   bands (ev):

   -14.2839 -14.2785 -14.2742 -14.2729 -14.2713 -14.2708 -14.2694 -14.2687
   -14.2598 -14.2558 -14.2556 -14.2521 -14.2453 -14.2411 -14.2282 -14.2258
   -14.2240 -14.2233 -14.2160 -14.2133  -6.1020  -5.8870  -5.3637  -5.1024
    -0.0552   0.5683   1.1980   1.3430   2.8429   3.7929   4.0594   4.3021
     4.6331   4.8791   5.0350   5.3196   5.6442   6.1796   6.4233   6.5442

     occupation numbers 
     1.0000   1.0000   1.0000   1.0000   1.0000   1.0000   1.0000   1.0000
     1.0000   1.0000   1.0000   1.0000   1.0000   1.0000   1.0000   1.0000
     1.0000   1.0000   1.0000   1.0000   1.0000   1.0000   1.0000   1.0000
     1.0000   1.0000   1.0000   1.0000   1.0000   1.0000   1.0000   1.0000
     1.0000   1.0000   1.0000   1.0000   1.0000   1.0000   1.0000   1.0000

          k = 0.1667 0.5407 0.4951 (  9205 PWs)   bands (ev):

   -14.2834 -14.2784 -14.2748 -14.2743 -14.2717 -14.2711 -14.2693 -14.2689
   -14.2591 -14.2560 -14.2549 -14.2515 -14.2437 -14.2399 -14.2284 -14.2256
   -14.2246 -14.2232 -14.2158 -14.2136  -5.9995  -5.7943  -5.3483  -5.1106
    -0.2206   0.4708   0.8952   1.2406   2.9730   3.3970   3.6395   4.2945
     4.5035   5.0266   5.4101   5.4900   6.1228   6.2298   6.4519   6.6190

     occupation numbers 
     1.0000   1.0000   1.0000   1.0000   1.0000   1.0000   1.0000   1.0000
     1.0000   1.0000   1.0000   1.0000   1.0000   1.0000   1.0000   1.0000
     1.0000   1.0000   1.0000   1.0000   1.0000   1.0000   1.0000   1.0000
     1.0000   1.0000   1.0000   1.0000   1.0000   1.0000   1.0000   1.0000
     1.0000   1.0000   1.0000   1.0000   1.0000   1.0000   1.0000   1.0000

          k = 0.1667 0.5407 0.8252 (  9198 PWs)   bands (ev):

   -14.2825 -14.2782 -14.2769 -14.2755 -14.2722 -14.2718 -14.2694 -14.2691
   -14.2582 -14.2566 -14.2533 -14.2507 -14.2410 -14.2384 -14.2285 -14.2263
   -14.2243 -14.2232 -14.2156 -14.2141  -5.8201  -5.6330  -5.3525  -5.1519
    -0.4197   0.1311   0.6539   1.0003   3.2291   3.3476   3.5873   4.2550
     4.3352   5.1102   5.2218   5.7779   5.9776   6.1909   6.3696   6.5854

     occupation numbers 
     1.0000   1.0000   1.0000   1.0000   1.0000   1.0000   1.0000   1.0000
     1.0000   1.0000   1.0000   1.0000   1.0000   1.0000   1.0000   1.0000
     1.0000   1.0000   1.0000   1.0000   1.0000   1.0000   1.0000   1.0000
     1.0000   1.0000   1.0000   1.0000   1.0000   1.0000   1.0000   1.0000
     1.0000   1.0000   1.0000   1.0000   1.0000   1.0000   1.0000   1.0000

          k = 0.1667 0.5407 1.1553 (  9202 PWs)   bands (ev):

   -14.2812 -14.2793 -14.2776 -14.2766 -14.2725 -14.2723 -14.2696 -14.2695
   -14.2576 -14.2571 -14.2516 -14.2507 -14.2385 -14.2376 -14.2282 -14.2274
   -14.2237 -14.2233 -14.2151 -14.2146  -5.6167  -5.4888  -5.3835  -5.2533
    -0.4686  -0.2666   0.6051   0.7396   3.5374   3.5898   3.8196   4.0633
     4.3046   4.6641   5.2656   5.5531   5.8503   6.0753   6.2923   6.4615

     occupation numbers 
     1.0000   1.0000   1.0000   1.0000   1.0000   1.0000   1.0000   1.0000
     1.0000   1.0000   1.0000   1.0000   1.0000   1.0000   1.0000   1.0000
     1.0000   1.0000   1.0000   1.0000   1.0000   1.0000   1.0000   1.0000
     1.0000   1.0000   1.0000   1.0000   1.0000   1.0000   1.0000   1.0000
     1.0000   1.0000   1.0000   1.0000   1.0000   1.0000   1.0000   1.0000

          k = 0.1667 0.9012 0.1650 (  9220 PWs)   bands (ev):

   -14.2787 -14.2767 -14.2746 -14.2743 -14.2732 -14.2688 -14.2668 -14.2663
   -14.2612 -14.2596 -14.2589 -14.2536 -14.2418 -14.2380 -14.2288 -14.2288
   -14.2234 -14.2206 -14.2147 -14.2135  -5.8274  -5.6572  -5.2731  -5.1082
    -0.2969   0.1887   0.5312   0.7151   3.1737   3.9163   4.2590   4.5098
     4.9342   5.0065   5.2038   5.3829   5.8076   6.2258   6.3046   6.5984

     occupation numbers 
     1.0000   1.0000   1.0000   1.0000   1.0000   1.0000   1.0000   1.0000
     1.0000   1.0000   1.0000   1.0000   1.0000   1.0000   1.0000   1.0000
     1.0000   1.0000   1.0000   1.0000   1.0000   1.0000   1.0000   1.0000
     1.0000   1.0000   1.0000   1.0000   1.0000   1.0000   1.0000   1.0000
     1.0000   1.0000   1.0000   1.0000   1.0000   1.0000   1.0000   1.0000

          k = 0.1667 0.9012 0.4951 (  9223 PWs)   bands (ev):

   -14.2807 -14.2775 -14.2757 -14.2748 -14.2738 -14.2692 -14.2667 -14.2660
   -14.2611 -14.2597 -14.2572 -14.2531 -14.2404 -14.2371 -14.2284 -14.2283
   -14.2235 -14.2212 -14.2147 -14.2137  -5.7382  -5.5778  -5.2524  -5.1004
    -0.2618   0.2781   0.5426   0.6994   3.1720   3.2946   3.5832   4.0678
     4.4767   5.0748   5.2502   5.6009   5.7358   5.9218   6.2175   6.4096

     occupation numbers 
     1.0000   1.0000   1.0000   1.0000   1.0000   1.0000   1.0000   1.0000
     1.0000   1.0000   1.0000   1.0000   1.0000   1.0000   1.0000   1.0000
     1.0000   1.0000   1.0000   1.0000   1.0000   1.0000   1.0000   1.0000
     1.0000   1.0000   1.0000   1.0000   1.0000   1.0000   1.0000   1.0000
     1.0000   1.0000   1.0000   1.0000   1.0000   1.0000   1.0000   1.0000

          k = 0.1667 0.9012 0.8252 (  9218 PWs)   bands (ev):

   -14.2825 -14.2801 -14.2770 -14.2763 -14.2732 -14.2700 -14.2667 -14.2661
   -14.2603 -14.2597 -14.2552 -14.2526 -14.2380 -14.2359 -14.2276 -14.2275
   -14.2235 -14.2220 -14.2146 -14.2139  -5.5864  -5.4439  -5.2413  -5.1088
    -0.2145   0.2447   0.5848   0.7433   2.7755   3.0751   3.5233   3.7160
     3.9273   4.6476   4.9423   5.2349   5.5201   5.6490   5.8354   6.3169

     occupation numbers 
     1.0000   1.0000   1.0000   1.0000   1.0000   1.0000   1.0000   1.0000
     1.0000   1.0000   1.0000   1.0000   1.0000   1.0000   1.0000   1.0000
     1.0000   1.0000   1.0000   1.0000   1.0000   1.0000   1.0000   1.0000
     1.0000   1.0000   1.0000   1.0000   1.0000   1.0000   1.0000   1.0000
     1.0000   1.0000   1.0000   1.0000   1.0000   1.0000   1.0000   1.0000

          k = 0.1667 0.9012 1.1553 (  9211 PWs)   bands (ev):

   -14.2833 -14.2824 -14.2778 -14.2776 -14.2722 -14.2711 -14.2667 -14.2664
   -14.2598 -14.2596 -14.2537 -14.2527 -14.2360 -14.2352 -14.2269 -14.2268
   -14.2233 -14.2228 -14.2144 -14.2141  -5.4230  -5.3286  -5.2535  -5.1639
    -0.1361   0.0305   0.7063   0.7624   2.7825   3.1024   3.1374   3.4946
     3.9305   4.3437   4.5700   4.9763   5.1230   5.3467   5.8742   6.0350

     occupation numbers 
     1.0000   1.0000   1.0000   1.0000   1.0000   1.0000   1.0000   1.0000
     1.0000   1.0000   1.0000   1.0000   1.0000   1.0000   1.0000   1.0000
     1.0000   1.0000   1.0000   1.0000   1.0000   1.0000   1.0000   1.0000
     1.0000   1.0000   1.0000   1.0000   1.0000   1.0000   1.0000   1.0000
     1.0000   1.0000   1.0000   1.0000   1.0000   1.0000   1.0000   1.0000

          k = 0.1667 1.2617 0.1650 (  9239 PWs)   bands (ev):

   -14.2792 -14.2778 -14.2769 -14.2760 -14.2689 -14.2662 -14.2650 -14.2640
   -14.2622 -14.2609 -14.2592 -14.2564 -14.2382 -14.2354 -14.2339 -14.2323
   -14.2185 -14.2168 -14.2149 -14.2146  -5.5026  -5.4145  -5.2688  -5.2350
    -0.3754  -0.0959   0.0306   0.2379   3.6976   4.1553   4.4822   4.7393
     4.9114   4.9915   5.3429   5.5599   5.9414   6.0725   6.1610   6.2993

     occupation numbers 
     1.0000   1.0000   1.0000   1.0000   1.0000   1.0000   1.0000   1.0000
     1.0000   1.0000   1.0000   1.0000   1.0000   1.0000   1.0000   1.0000
     1.0000   1.0000   1.0000   1.0000   1.0000   1.0000   1.0000   1.0000
     1.0000   1.0000   1.0000   1.0000   1.0000   1.0000   1.0000   1.0000
     1.0000   1.0000   1.0000   1.0000   1.0000   1.0000   1.0000   1.0000

          k = 0.1667 1.2617 0.4951 (  9227 PWs)   bands (ev):

   -14.2812 -14.2796 -14.2787 -14.2777 -14.2688 -14.2664 -14.2649 -14.2641
   -14.2614 -14.2606 -14.2580 -14.2558 -14.2372 -14.2353 -14.2323 -14.2314
   -14.2186 -14.2173 -14.2148 -14.2145  -5.4369  -5.3562  -5.2336  -5.1998
    -0.2312   0.0419   0.1679   0.3134   3.4454   3.6523   3.8812   4.1757
     4.2468   4.7472   5.0934   5.2657   5.3831   5.6711   5.9756   6.2841

     occupation numbers 
     1.0000   1.0000   1.0000   1.0000   1.0000   1.0000   1.0000   1.0000
     1.0000   1.0000   1.0000   1.0000   1.0000   1.0000   1.0000   1.0000
     1.0000   1.0000   1.0000   1.0000   1.0000   1.0000   1.0000   1.0000
     1.0000   1.0000   1.0000   1.0000   1.0000   1.0000   1.0000   1.0000
     1.0000   1.0000   1.0000   1.0000   1.0000   1.0000   1.0000   1.0000

          k = 0.1667 1.2617 0.8252 (  9213 PWs)   bands (ev):

   -14.2837 -14.2825 -14.2809 -14.2802 -14.2687 -14.2670 -14.2648 -14.2643
   -14.2603 -14.2600 -14.2567 -14.2552 -14.2356 -14.2345 -14.2304 -14.2300
   -14.2187 -14.2179 -14.2146 -14.2145  -5.3320  -5.2651  -5.1895  -5.1549
     0.0110   0.2511   0.3912   0.4419   2.7960   3.2139   3.3059   3.7186
     3.7687   4.2058   4.4005   4.8688   4.9467   5.2410   5.8309   5.9899

     occupation numbers 
     1.0000   1.0000   1.0000   1.0000   1.0000   1.0000   1.0000   1.0000
     1.0000   1.0000   1.0000   1.0000   1.0000   1.0000   1.0000   1.0000
     1.0000   1.0000   1.0000   1.0000   1.0000   1.0000   1.0000   1.0000
     1.0000   1.0000   1.0000   1.0000   1.0000   1.0000   1.0000   1.0000
     1.0000   1.0000   1.0000   1.0000   1.0000   1.0000   1.0000   1.0000

          k = 0.1667 1.2617 1.1553 (  9205 PWs)   bands (ev):

   -14.2852 -14.2848 -14.2822 -14.2820 -14.2684 -14.2677 -14.2646 -14.2644
   -14.2597 -14.2596 -14.2557 -14.2551 -14.2342 -14.2339 -14.2290 -14.2289
   -14.2186 -14.2183 -14.2146 -14.2145  -5.2340  -5.1941  -5.1663  -5.1379
     0.2411   0.3385   0.5863   0.6081   2.5315   2.7283   3.0600   3.2767
     3.5116   3.6561   4.0849   4.3822   4.9428   5.1430   5.7549   5.7911

     occupation numbers 
     1.0000   1.0000   1.0000   1.0000   1.0000   1.0000   1.0000   1.0000
     1.0000   1.0000   1.0000   1.0000   1.0000   1.0000   1.0000   1.0000
     1.0000   1.0000   1.0000   1.0000   1.0000   1.0000   1.0000   1.0000
     1.0000   1.0000   1.0000   1.0000   1.0000   1.0000   1.0000   1.0000
     1.0000   1.0000   1.0000   1.0000   1.0000   1.0000   1.0000   1.0000

          k =-0.5000 0.1802 0.1650 (  9188 PWs)   bands (ev):

   -14.2861 -14.2861 -14.2749 -14.2749 -14.2693 -14.2693 -14.2688 -14.2688
   -14.2561 -14.2561 -14.2514 -14.2514 -14.2456 -14.2456 -14.2292 -14.2292
   -14.2216 -14.2216 -14.2146 -14.2146  -6.1583  -6.1583  -5.2644  -5.2644
     0.3723   0.3723   1.8322   1.8322   3.2867   3.2867   4.1993   4.1993
     4.5750   4.5750   5.1081   5.1081   5.4419   5.4419   6.5629   6.5629

     occupation numbers 
     1.0000   1.0000   1.0000   1.0000   1.0000   1.0000   1.0000   1.0000
     1.0000   1.0000   1.0000   1.0000   1.0000   1.0000   1.0000   1.0000
     1.0000   1.0000   1.0000   1.0000   1.0000   1.0000   1.0000   1.0000
     1.0000   1.0000   1.0000   1.0000   1.0000   1.0000   1.0000   1.0000
     1.0000   1.0000   1.0000   1.0000   1.0000   1.0000   1.0000   1.0000

          k =-0.5000 0.1802 0.4951 (  9194 PWs)   bands (ev):

   -14.2854 -14.2854 -14.2751 -14.2751 -14.2699 -14.2699 -14.2691 -14.2691
   -14.2547 -14.2547 -14.2518 -14.2518 -14.2441 -14.2441 -14.2295 -14.2295
   -14.2217 -14.2217 -14.2147 -14.2147  -6.0549  -6.0549  -5.2646  -5.2646
     0.0608   0.0608   1.3903   1.3903   3.4598   3.4598   4.2478   4.2478
     4.9188   4.9188   5.2682   5.2682   5.9331   5.9331   6.4381   6.4381

     occupation numbers 
     1.0000   1.0000   1.0000   1.0000   1.0000   1.0000   1.0000   1.0000
     1.0000   1.0000   1.0000   1.0000   1.0000   1.0000   1.0000   1.0000
     1.0000   1.0000   1.0000   1.0000   1.0000   1.0000   1.0000   1.0000
     1.0000   1.0000   1.0000   1.0000   1.0000   1.0000   1.0000   1.0000
     1.0000   1.0000   1.0000   1.0000   1.0000   1.0000   1.0000   1.0000

          k =-0.5000 0.1802 0.8252 (  9202 PWs)   bands (ev):

   -14.2843 -14.2843 -14.2758 -14.2758 -14.2709 -14.2709 -14.2694 -14.2694
   -14.2528 -14.2528 -14.2522 -14.2522 -14.2420 -14.2420 -14.2300 -14.2300
   -14.2217 -14.2217 -14.2149 -14.2149  -5.8738  -5.8738  -5.2957  -5.2957
    -0.3091  -0.3091   0.8617   0.8617   3.7663   3.7663   4.5214   4.5214
     5.0571   5.0571   5.5216   5.5216   6.1507   6.1507   6.6607   6.6607

     occupation numbers 
     1.0000   1.0000   1.0000   1.0000   1.0000   1.0000   1.0000   1.0000
     1.0000   1.0000   1.0000   1.0000   1.0000   1.0000   1.0000   1.0000
     1.0000   1.0000   1.0000   1.0000   1.0000   1.0000   1.0000   1.0000
     1.0000   1.0000   1.0000   1.0000   1.0000   1.0000   1.0000   1.0000
     1.0000   1.0000   1.0000   1.0000   1.0000   1.0000   1.0000   1.0000

          k =-0.5000 0.1802 1.1553 (  9220 PWs)   bands (ev):

   -14.2833 -14.2833 -14.2765 -14.2765 -14.2715 -14.2715 -14.2697 -14.2697
   -14.2528 -14.2528 -14.2512 -14.2512 -14.2404 -14.2404 -14.2304 -14.2304
   -14.2217 -14.2217 -14.2150 -14.2150  -5.6810  -5.6810  -5.3799  -5.3799
    -0.5290  -0.5290   0.5186   0.5186   4.1766   4.1766   4.8211   4.8211
     4.8907   4.8907   5.3595   5.3595   6.5609   6.5609   6.8291   6.8291

     occupation numbers 
     1.0000   1.0000   1.0000   1.0000   1.0000   1.0000   1.0000   1.0000
     1.0000   1.0000   1.0000   1.0000   1.0000   1.0000   1.0000   1.0000
     1.0000   1.0000   1.0000   1.0000   1.0000   1.0000   1.0000   1.0000
     1.0000   1.0000   1.0000   1.0000   1.0000   1.0000   1.0000   1.0000
     1.0000   1.0000   1.0000   1.0000   1.0000   1.0000   1.0000   1.0000

          k =-0.5000 0.5407 0.1650 (  9214 PWs)   bands (ev):

   -14.2816 -14.2816 -14.2733 -14.2733 -14.2710 -14.2710 -14.2693 -14.2693
   -14.2563 -14.2563 -14.2556 -14.2556 -14.2427 -14.2427 -14.2270 -14.2270
   -14.2238 -14.2238 -14.2145 -14.2145  -6.0126  -6.0126  -5.2148  -5.2148
     0.1802   0.1802   1.3282   1.3282   3.4150   3.4150   4.0607   4.0607
     4.8806   4.8806   5.0482   5.0482   5.7238   5.7238   6.5737   6.5737

     occupation numbers 
     1.0000   1.0000   1.0000   1.0000   1.0000   1.0000   1.0000   1.0000
     1.0000   1.0000   1.0000   1.0000   1.0000   1.0000   1.0000   1.0000
     1.0000   1.0000   1.0000   1.0000   1.0000   1.0000   1.0000   1.0000
     1.0000   1.0000   1.0000   1.0000   1.0000   1.0000   1.0000   1.0000
     1.0000   1.0000   1.0000   1.0000   1.0000   1.0000   1.0000   1.0000

          k =-0.5000 0.5407 0.4951 (  9190 PWs)   bands (ev):

   -14.2813 -14.2813 -14.2744 -14.2744 -14.2713 -14.2713 -14.2693 -14.2693
   -14.2561 -14.2561 -14.2548 -14.2548 -14.2415 -14.2415 -14.2271 -14.2271
   -14.2239 -14.2239 -14.2146 -14.2146  -5.9149  -5.9149  -5.2114  -5.2114
     0.0358   0.0358   1.1314   1.1314   3.3882   3.3882   3.8621   3.8621
     4.5118   4.5118   5.5614   5.5614   6.1305   6.1305   6.5354   6.5354

     occupation numbers 
     1.0000   1.0000   1.0000   1.0000   1.0000   1.0000   1.0000   1.0000
     1.0000   1.0000   1.0000   1.0000   1.0000   1.0000   1.0000   1.0000
     1.0000   1.0000   1.0000   1.0000   1.0000   1.0000   1.0000   1.0000
     1.0000   1.0000   1.0000   1.0000   1.0000   1.0000   1.0000   1.0000
     1.0000   1.0000   1.0000   1.0000   1.0000   1.0000   1.0000   1.0000

          k =-0.5000 0.5407 0.8252 (  9192 PWs)   bands (ev):

   -14.2807 -14.2807 -14.2762 -14.2762 -14.2719 -14.2719 -14.2692 -14.2692
   -14.2562 -14.2562 -14.2532 -14.2532 -14.2394 -14.2394 -14.2274 -14.2274
   -14.2240 -14.2240 -14.2146 -14.2146  -5.7457  -5.7457  -5.2331  -5.2331
    -0.1893  -0.1893   0.8426   0.8426   3.3875   3.3875   4.0307   4.0307
     4.3894   4.3894   5.5800   5.5800   5.9980   5.9980   6.5006   6.5006

     occupation numbers 
     1.0000   1.0000   1.0000   1.0000   1.0000   1.0000   1.0000   1.0000
     1.0000   1.0000   1.0000   1.0000   1.0000   1.0000   1.0000   1.0000
     1.0000   1.0000   1.0000   1.0000   1.0000   1.0000   1.0000   1.0000
     1.0000   1.0000   1.0000   1.0000   1.0000   1.0000   1.0000   1.0000
     1.0000   1.0000   1.0000   1.0000   1.0000   1.0000   1.0000   1.0000

          k =-0.5000 0.5407 1.1553 (  9216 PWs)   bands (ev):

   -14.2797 -14.2797 -14.2782 -14.2782 -14.2723 -14.2723 -14.2692 -14.2692
   -14.2565 -14.2565 -14.2521 -14.2521 -14.2379 -14.2379 -14.2276 -14.2276
   -14.2240 -14.2240 -14.2146 -14.2146  -5.5688  -5.5688  -5.3026  -5.3026
    -0.3506  -0.3506   0.6251   0.6251   3.6224   3.6224   3.9870   3.9870
     4.6519   4.6519   5.1507   5.1507   5.8287   5.8287   6.3089   6.3089

     occupation numbers 
     1.0000   1.0000   1.0000   1.0000   1.0000   1.0000   1.0000   1.0000
     1.0000   1.0000   1.0000   1.0000   1.0000   1.0000   1.0000   1.0000
     1.0000   1.0000   1.0000   1.0000   1.0000   1.0000   1.0000   1.0000
     1.0000   1.0000   1.0000   1.0000   1.0000   1.0000   1.0000   1.0000
     1.0000   1.0000   1.0000   1.0000   1.0000   1.0000   1.0000   1.0000

          k =-0.5000 0.9012 0.1650 (  9224 PWs)   bands (ev):

   -14.2781 -14.2781 -14.2740 -14.2740 -14.2712 -14.2712 -14.2670 -14.2670
   -14.2596 -14.2596 -14.2568 -14.2568 -14.2396 -14.2396 -14.2289 -14.2289
   -14.2220 -14.2220 -14.2141 -14.2141  -5.7556  -5.7556  -5.1771  -5.1771
    -0.0938  -0.0938   0.6370   0.6370   3.7060   3.7060   4.2354   4.2354
     5.0479   5.0479   5.2517   5.2517   5.7840   5.7840   6.4720   6.4720

     occupation numbers 
     1.0000   1.0000   1.0000   1.0000   1.0000   1.0000   1.0000   1.0000
     1.0000   1.0000   1.0000   1.0000   1.0000   1.0000   1.0000   1.0000
     1.0000   1.0000   1.0000   1.0000   1.0000   1.0000   1.0000   1.0000
     1.0000   1.0000   1.0000   1.0000   1.0000   1.0000   1.0000   1.0000
     1.0000   1.0000   1.0000   1.0000   1.0000   1.0000   1.0000   1.0000

          k =-0.5000 0.9012 0.4951 (  9216 PWs)   bands (ev):

   -14.2794 -14.2794 -14.2752 -14.2752 -14.2715 -14.2715 -14.2665 -14.2665
   -14.2592 -14.2592 -14.2561 -14.2561 -14.2384 -14.2384 -14.2285 -14.2285
   -14.2223 -14.2223 -14.2141 -14.2141  -5.6711  -5.6711  -5.1632  -5.1632
    -0.0435  -0.0435   0.6495   0.6495   3.2932   3.2932   3.9906   3.9906
     4.4553   4.4553   5.5028   5.5028   5.6905   5.6905   6.3700   6.3700

     occupation numbers 
     1.0000   1.0000   1.0000   1.0000   1.0000   1.0000   1.0000   1.0000
     1.0000   1.0000   1.0000   1.0000   1.0000   1.0000   1.0000   1.0000
     1.0000   1.0000   1.0000   1.0000   1.0000   1.0000   1.0000   1.0000
     1.0000   1.0000   1.0000   1.0000   1.0000   1.0000   1.0000   1.0000
     1.0000   1.0000   1.0000   1.0000   1.0000   1.0000   1.0000   1.0000

          k =-0.5000 0.9012 0.8252 (  9218 PWs)   bands (ev):

   -14.2812 -14.2812 -14.2769 -14.2769 -14.2719 -14.2719 -14.2661 -14.2661
   -14.2589 -14.2589 -14.2550 -14.2550 -14.2365 -14.2365 -14.2278 -14.2278
   -14.2227 -14.2227 -14.2141 -14.2141  -5.5289  -5.5289  -5.1613  -5.1613
    -0.0163  -0.0163   0.6763   0.6763   2.9314   2.9314   3.6637   3.6637
     4.3316   4.3316   4.9708   4.9708   5.4482   5.4482   6.1514   6.1514

     occupation numbers 
     1.0000   1.0000   1.0000   1.0000   1.0000   1.0000   1.0000   1.0000
     1.0000   1.0000   1.0000   1.0000   1.0000   1.0000   1.0000   1.0000
     1.0000   1.0000   1.0000   1.0000   1.0000   1.0000   1.0000   1.0000
     1.0000   1.0000   1.0000   1.0000   1.0000   1.0000   1.0000   1.0000
     1.0000   1.0000   1.0000   1.0000   1.0000   1.0000   1.0000   1.0000

          k =-0.5000 0.9012 1.1553 (  9202 PWs)   bands (ev):

   -14.2825 -14.2825 -14.2782 -14.2782 -14.2721 -14.2721 -14.2660 -14.2660
   -14.2588 -14.2588 -14.2542 -14.2542 -14.2351 -14.2351 -14.2273 -14.2273
   -14.2229 -14.2229 -14.2141 -14.2141  -5.3873  -5.3873  -5.1973  -5.1973
    -0.0418  -0.0418   0.7089   0.7089   2.9385   2.9385   3.2708   3.2708
     4.3155   4.3155   4.6471   4.6471   5.3253   5.3253   5.7891   5.7891

     occupation numbers 
     1.0000   1.0000   1.0000   1.0000   1.0000   1.0000   1.0000   1.0000
     1.0000   1.0000   1.0000   1.0000   1.0000   1.0000   1.0000   1.0000
     1.0000   1.0000   1.0000   1.0000   1.0000   1.0000   1.0000   1.0000
     1.0000   1.0000   1.0000   1.0000   1.0000   1.0000   1.0000   1.0000
     1.0000   1.0000   1.0000   1.0000   1.0000   1.0000   1.0000   1.0000

          k =-0.5000 1.2617 0.1650 (  9216 PWs)   bands (ev):

   -14.2782 -14.2782 -14.2769 -14.2769 -14.2669 -14.2669 -14.2657 -14.2657
   -14.2603 -14.2603 -14.2585 -14.2585 -14.2366 -14.2366 -14.2332 -14.2332
   -14.2176 -14.2176 -14.2147 -14.2147  -5.4638  -5.4638  -5.2468  -5.2468
    -0.1922  -0.1922   0.0651   0.0651   4.1776   4.1776   4.5184   4.5184
     4.9967   4.9967   5.2061   5.2061   5.8964   5.8964   6.1997   6.1997

     occupation numbers 
     1.0000   1.0000   1.0000   1.0000   1.0000   1.0000   1.0000   1.0000
     1.0000   1.0000   1.0000   1.0000   1.0000   1.0000   1.0000   1.0000
     1.0000   1.0000   1.0000   1.0000   1.0000   1.0000   1.0000   1.0000
     1.0000   1.0000   1.0000   1.0000   1.0000   1.0000   1.0000   1.0000
     1.0000   1.0000   1.0000   1.0000   1.0000   1.0000   1.0000   1.0000

          k =-0.5000 1.2617 0.4951 (  9228 PWs)   bands (ev):

   -14.2801 -14.2801 -14.2786 -14.2786 -14.2673 -14.2673 -14.2655 -14.2655
   -14.2595 -14.2595 -14.2579 -14.2579 -14.2356 -14.2356 -14.2324 -14.2324
   -14.2177 -14.2177 -14.2148 -14.2148  -5.4016  -5.4016  -5.2118  -5.2118
    -0.0563  -0.0563   0.1813   0.1813   3.5853   3.5853   4.0746   4.0746
     4.5876   4.5876   5.0260   5.0260   5.5192   5.5192   5.9454   5.9454

     occupation numbers 
     1.0000   1.0000   1.0000   1.0000   1.0000   1.0000   1.0000   1.0000
     1.0000   1.0000   1.0000   1.0000   1.0000   1.0000   1.0000   1.0000
     1.0000   1.0000   1.0000   1.0000   1.0000   1.0000   1.0000   1.0000
     1.0000   1.0000   1.0000   1.0000   1.0000   1.0000   1.0000   1.0000
     1.0000   1.0000   1.0000   1.0000   1.0000   1.0000   1.0000   1.0000

          k =-0.5000 1.2617 0.8252 (  9198 PWs)   bands (ev):

   -14.2826 -14.2826 -14.2809 -14.2809 -14.2678 -14.2678 -14.2655 -14.2655
   -14.2585 -14.2585 -14.2569 -14.2569 -14.2339 -14.2339 -14.2312 -14.2312
   -14.2179 -14.2179 -14.2148 -14.2148  -5.3037  -5.3037  -5.1671  -5.1671
     0.1511   0.1511   0.3832   0.3832   2.9990   2.9990   3.4933   3.4933
     4.0382   4.0382   4.4853   4.4853   5.3604   5.3604   5.7257   5.7257

     occupation numbers 
     1.0000   1.0000   1.0000   1.0000   1.0000   1.0000   1.0000   1.0000
     1.0000   1.0000   1.0000   1.0000   1.0000   1.0000   1.0000   1.0000
     1.0000   1.0000   1.0000   1.0000   1.0000   1.0000   1.0000   1.0000
     1.0000   1.0000   1.0000   1.0000   1.0000   1.0000   1.0000   1.0000
     1.0000   1.0000   1.0000   1.0000   1.0000   1.0000   1.0000   1.0000

          k =-0.5000 1.2617 1.1553 (  9226 PWs)   bands (ev):

   -14.2843 -14.2843 -14.2826 -14.2826 -14.2682 -14.2682 -14.2656 -14.2656
   -14.2579 -14.2579 -14.2563 -14.2563 -14.2327 -14.2327 -14.2303 -14.2303
   -14.2180 -14.2180 -14.2149 -14.2149  -5.2182  -5.2182  -5.1479  -5.1479
     0.2975   0.2975   0.5810   0.5810   2.7718   2.7718   3.0217   3.0217
     3.6455   3.6455   3.9712   3.9712   5.4574   5.4574   5.6362   5.6362

     occupation numbers 
     1.0000   1.0000   1.0000   1.0000   1.0000   1.0000   1.0000   1.0000
     1.0000   1.0000   1.0000   1.0000   1.0000   1.0000   1.0000   1.0000
     1.0000   1.0000   1.0000   1.0000   1.0000   1.0000   1.0000   1.0000
     1.0000   1.0000   1.0000   1.0000   1.0000   1.0000   1.0000   1.0000
     1.0000   1.0000   1.0000   1.0000   1.0000   1.0000   1.0000   1.0000

     highest occupied level (ev):     6.8769

!    total energy              =    -827.74084048 Ry
     estimated scf accuracy    <          2.6E-10 Ry

     The total energy is the sum of the following terms:
     one-electron contribution =    -275.40387991 Ry
     hartree contribution      =     185.40434404 Ry
     xc contribution           =    -308.82640720 Ry
     ewald contribution        =    -428.79798465 Ry
     DFT-D3 Dispersion         =      -0.11691276 Ry

     convergence has been achieved in  12 iterations

     Forces acting on atoms (cartesian axes, Ry/au):

     atom    1 type  2   force =    -0.00922931   -0.00000000   -0.00025398
     atom    2 type  1   force =     0.01036303   -0.00000000    0.00191234
     atom    3 type  2   force =     0.00922931    0.00000000   -0.00025398
     atom    4 type  1   force =    -0.01036303   -0.00000000    0.00191234
     atom    5 type  2   force =    -0.00922931    0.00000000    0.00025398
     atom    6 type  1   force =     0.01036303   -0.00000000   -0.00191234
     atom    7 type  2   force =     0.00922931    0.00000000    0.00025398
     atom    8 type  1   force =    -0.01036303   -0.00000000   -0.00191234
     The non-local contrib.  to forces
     atom    1 type  2   force =    -0.09271745    0.00000000    0.11663929
     atom    2 type  1   force =     0.33427437    0.00000000    0.30233572
     atom    3 type  2   force =     0.09271745    0.00000000    0.11663929
     atom    4 type  1   force =    -0.33427437    0.00000000    0.30233572
     atom    5 type  2   force =    -0.09271745    0.00000000   -0.11663929
     atom    6 type  1   force =     0.33427437    0.00000000   -0.30233572
     atom    7 type  2   force =     0.09271745    0.00000000   -0.11663929
     atom    8 type  1   force =    -0.33427437    0.00000000   -0.30233572
     The ionic contribution  to forces
     atom    1 type  2   force =     0.86912967   -0.00000000   -1.44688009
     atom    2 type  1   force =    -0.56855866    0.00000000   -0.91892188
     atom    3 type  2   force =    -0.86912967    0.00000000   -1.44688009
     atom    4 type  1   force =     0.56855866   -0.00000000   -0.91892188
     atom    5 type  2   force =     0.86912967   -0.00000000    1.44688009
     atom    6 type  1   force =    -0.56855866   -0.00000000    0.91892188
     atom    7 type  2   force =    -0.86912967    0.00000000    1.44688009
     atom    8 type  1   force =     0.56855866   -0.00000000    0.91892188
     The local contribution  to forces
     atom    1 type  2   force =    -0.79604688    0.00000000    1.34073864
     atom    2 type  1   force =     0.25225284   -0.00000000    0.62172259
     atom    3 type  2   force =     0.79604688    0.00000000    1.34073864
     atom    4 type  1   force =    -0.25225284    0.00000000    0.62172259
     atom    5 type  2   force =    -0.79604688   -0.00000000   -1.34073864
     atom    6 type  1   force =     0.25225284    0.00000000   -0.62172259
     atom    7 type  2   force =     0.79604688    0.00000000   -1.34073864
     atom    8 type  1   force =    -0.25225284    0.00000000   -0.62172259
     The core correction contribution to forces
     atom    1 type  2   force =     0.01071795    0.00000000   -0.01286032
     atom    2 type  1   force =    -0.00755592    0.00000000   -0.00460429
     atom    3 type  2   force =    -0.01071795   -0.00000000   -0.01286032
     atom    4 type  1   force =     0.00755592    0.00000000   -0.00460429
     atom    5 type  2   force =     0.01071795   -0.00000000    0.01286032
     atom    6 type  1   force =    -0.00755592    0.00000000    0.00460429
     atom    7 type  2   force =    -0.01071795    0.00000000    0.01286032
     atom    8 type  1   force =     0.00755592    0.00000000    0.00460429
     The Hubbard contrib.    to forces
     atom    1 type  2   force =     0.00000000    0.00000000    0.00000000
     atom    2 type  1   force =     0.00000000    0.00000000    0.00000000
     atom    3 type  2   force =     0.00000000    0.00000000    0.00000000
     atom    4 type  1   force =     0.00000000    0.00000000    0.00000000
     atom    5 type  2   force =     0.00000000    0.00000000    0.00000000
     atom    6 type  1   force =     0.00000000    0.00000000    0.00000000
     atom    7 type  2   force =     0.00000000    0.00000000    0.00000000
     atom    8 type  1   force =     0.00000000    0.00000000    0.00000000
     The SCF correction term to forces
     atom    1 type  2   force =     0.00000267   -0.00000000   -0.00000123
     atom    2 type  1   force =    -0.00000333    0.00000000    0.00000122
     atom    3 type  2   force =    -0.00000267    0.00000000   -0.00000123
     atom    4 type  1   force =     0.00000333   -0.00000000    0.00000122
     atom    5 type  2   force =     0.00000267    0.00000000    0.00000123
     atom    6 type  1   force =    -0.00000333   -0.00000000   -0.00000122
     atom    7 type  2   force =    -0.00000267    0.00000000    0.00000123
     atom    8 type  1   force =     0.00000333    0.00000000   -0.00000122

     DFT-D3 dispersion contribution to forces:
     atom    1 type  2   force =    -0.00031527    0.00000000    0.00210971
     atom    2 type  1   force =    -0.00004628    0.00000000    0.00137898
     atom    3 type  2   force =     0.00031527    0.00000000    0.00210971
     atom    4 type  1   force =     0.00004628    0.00000000    0.00137898
     atom    5 type  2   force =    -0.00031527   -0.00000000   -0.00210971
     atom    6 type  1   force =    -0.00004628   -0.00000000   -0.00137898
     atom    7 type  2   force =     0.00031527   -0.00000000   -0.00210971
     atom    8 type  1   force =     0.00004628   -0.00000000   -0.00137898

     Total force =     0.028021     Total SCF correction =     0.000009

     DFT-D3 dispersion Force =     0.005081

     Writing all to output data dir ./tmp/SnSe_pnma.save/ :
     XML data file, charge density, pseudopotentials, collected wavefunctions
 
     init_run     :      2.71s CPU      3.01s WALL (       1 calls)
     electrons    :     61.38s CPU     65.12s WALL (       1 calls)
     forces       :      1.09s CPU      1.26s WALL (       1 calls)
     force_dftd3  :      0.05s CPU      0.05s WALL (       1 calls)

     Called by init_run:
     wfcinit      :      1.82s CPU      1.84s WALL (       1 calls)
     wfcinit:atom :      0.02s CPU      0.03s WALL (      11 calls)
     wfcinit:wfcr :      1.59s CPU      1.59s WALL (      11 calls)
     potinit      :      0.20s CPU      0.24s WALL (       1 calls)
     hinit0       :      0.26s CPU      0.28s WALL (       1 calls)

     Called by electrons:
     c_bands      :     45.07s CPU     45.41s WALL (      12 calls)
     sum_band     :     11.05s CPU     12.72s WALL (      12 calls)
     v_of_rho     :      1.92s CPU      1.97s WALL (      13 calls)
     v_h          :      0.15s CPU      0.15s WALL (      13 calls)
     v_xc         :      1.92s CPU      1.97s WALL (      14 calls)
     newd         :      3.39s CPU      5.22s WALL (      13 calls)
     mix_rho      :      0.21s CPU      0.22s WALL (      12 calls)
     energy_dftd3 :      0.03s CPU      0.04s WALL (       1 calls)

     Called by c_bands:
     init_us_2    :      1.37s CPU      1.39s WALL (     286 calls)
     cegterg      :     40.21s CPU     40.42s WALL (     132 calls)

     Called by sum_band:
     sum_band:wei :      0.00s CPU      0.00s WALL (      12 calls)
     sum_band:loo :      7.25s CPU      7.26s WALL (      12 calls)
     sum_band:buf :      0.09s CPU      0.09s WALL (     132 calls)
     sum_band:ini :      0.60s CPU      0.60s WALL (     132 calls)
     sum_band:cal :      0.82s CPU      0.82s WALL (     132 calls)
     sum_band:bec :      0.01s CPU      0.01s WALL (     132 calls)
     addusdens    :      3.39s CPU      4.99s WALL (      12 calls)
                                        0.00s GPU  (      12 calls)
     addusd:skk   :      0.02s CPU      0.02s WALL (      24 calls)
                                        0.00s GPU  (      24 calls)

     Called by *egterg:
     cdiaghg      :      0.95s CPU      0.95s WALL (     597 calls)
     cegterg:over :      1.97s CPU      1.98s WALL (     465 calls)
     cegterg:upda :      1.12s CPU      1.12s WALL (     465 calls)
     cegterg:last :      2.94s CPU      2.94s WALL (     330 calls)
     h_psi        :     30.65s CPU     30.83s WALL (     608 calls)
     s_psi        :      2.91s CPU      2.92s WALL (     608 calls)
     g_psi        :      0.11s CPU      0.11s WALL (     465 calls)

     Called by h_psi:
     h_psi:calbec :      2.68s CPU      2.69s WALL (     608 calls)
     vloc_psi     :     24.80s CPU     24.96s WALL (     608 calls)
     add_vuspsi   :      2.93s CPU      2.93s WALL (     608 calls)

     General routines
     calbec       :      3.75s CPU      3.77s WALL (     784 calls)
     fft          :      0.96s CPU      0.99s WALL (     178 calls)
     ffts         :      0.02s CPU      0.03s WALL (      25 calls)
     fftw         :     17.14s CPU     17.25s WALL (   37162 calls)
     interpolate  :      0.10s CPU      0.11s WALL (      13 calls)
 
     Parallel routines
 
     PWSCF        :   1m 5.42s CPU   1m10.38s WALL

 
   This run was terminated on:  16:28:31  20May2026            

=------------------------------------------------------------------------------=
   JOB DONE.
=------------------------------------------------------------------------------=
