
     Program PWSCF v.7.3.1 starts on 20May2026 at 17:42:52 

     This program is part of the open-source Quantum ESPRESSO suite
     for quantum simulation of materials; please cite
         "P. Giannozzi et al., J. Phys.:Condens. Matter 21 395502 (2009);
         "P. Giannozzi et al., J. Phys.:Condens. Matter 29 465901 (2017);
         "P. Giannozzi et al., J. Chem. Phys. 152 154105 (2020);
          URL http://www.quantum-espresso.org", 
     in publications or presentations arising from this work. More details at
     http://www.quantum-espresso.org/quote

     Parallel version (MPI & OpenMP), running on       6 processor cores
     Number of MPI processes:                 6
     Threads/MPI process:                     1

     MPI processes distributed on     1 nodes
     10642 MiB available memory on the printing compute node when the environment starts
 
     Waiting for input...
     Reading input from standard input

     Current dimensions of program PWSCF are:
     Max number of different atomic species (ntypx) = 10
     Max number of k-points (npk) =  40000
     Max angular momentum in pseudopotentials (lmaxx) =  4
 
     K-points division:     npool     =       3
     R & G space division:  proc/nbgrp/npool/nimage =       2
     Subspace diagonalization in iterative solution of the eigenvalue problem:
     a serial algorithm will be used

 
     Parallelization info
     --------------------
     sticks:   dense  smooth     PW     G-vecs:    dense   smooth      PW
     Min        3311    1324    382               135303    34261    5262
     Max        3312    1325    383               135304    34262    5263
     Sum        6623    2649    765               270607    68523   10525
 
     Using Slab Decomposition
 


     bravais-lattice index     =            8
     lattice parameter (alat)  =      21.1271  a.u.
     unit-cell volume          =    1433.6934 (a.u.)^3
     number of atoms/cell      =            8
     number of atomic types    =            2
     number of electrons       =        80.00
     number of Kohn-Sham states=           40
     kinetic-energy cutoff     =      50.0000  Ry
     charge density cutoff     =     500.0000  Ry
     scf convergence threshold =      1.0E-08
     mixing beta               =       0.7000
     number of iterations used =            8  plain     mixing
     Exchange-correlation= SLA  PW   PBE  PBE
                           (   1   4   3   4   0   0   0)

     celldm(1)=  21.127138  celldm(2)=   0.373113  celldm(3)=   0.407469
     celldm(4)=   0.000000  celldm(5)=   0.000000  celldm(6)=   0.000000

     crystal axes: (cart. coord. in units of alat)
               a(1) = (   1.000000   0.000000   0.000000 )  
               a(2) = (   0.000000   0.373113   0.000000 )  
               a(3) = (   0.000000   0.000000   0.407469 )  

     reciprocal axes: (cart. coord. in units 2 pi/alat)
               b(1) = (  1.000000  0.000000  0.000000 )  
               b(2) = (  0.000000  2.680155  0.000000 )  
               b(3) = (  0.000000  0.000000  2.454176 )  


     PseudoPot. # 1 for Sn read from file:
     ../pseudo/Sn_pbe_v1.uspp.F.UPF
     MD5 check sum: 4cf58ce39ec5d5d420df3dd08604eb00
     Pseudo is Ultrasoft + core correction, Zval = 14.0
     Generated by new atomic code, or converted to UPF format
     Using radial grid of  891 points,  6 beta functions with: 
                l(1) =   0
                l(2) =   0
                l(3) =   1
                l(4) =   1
                l(5) =   2
                l(6) =   2
     Q(r) pseudized with  6 coefficients,  rinner =    1.200   1.200   1.200
                                                       1.200   1.200

     PseudoPot. # 2 for Se read from file:
     ../pseudo/Se_pbe_v1.uspp.F.UPF
     MD5 check sum: 1b3568f3a8ae88f9a2a0ad0698632c85
     Pseudo is Ultrasoft + core correction, Zval =  6.0
     Generated by new atomic code, or converted to UPF format
     Using radial grid of  877 points,  6 beta functions with: 
                l(1) =   0
                l(2) =   0
                l(3) =   1
                l(4) =   1
                l(5) =   2
                l(6) =   2
     Q(r) pseudized with  8 coefficients,  rinner =    1.300   1.300   1.300
                                                       1.300   1.300

     atomic species   valence    mass     pseudopotential
     Sn               14.00   118.71000     Sn( 1.00)
     Se                6.00    78.97100     Se( 1.00)

      8 Sym. Ops., with inversion, found ( 6 have fractional translation)


                                    s                        frac. trans.

      isym =  1     identity                                     

 cryst.   s( 1) = (     1          0          0      )
                  (     0          1          0      )
                  (     0          0          1      )

 cart.    s( 1) = (  1.0000000  0.0000000  0.0000000 )
                  (  0.0000000  1.0000000  0.0000000 )
                  (  0.0000000  0.0000000  1.0000000 )


      isym =  2     180 deg rotation - cart. axis [0,0,1]        

 cryst.   s( 2) = (    -1          0          0      )    f =(  0.5000000 )
                  (     0         -1          0      )       (  0.0000000 )
                  (     0          0          1      )       (  0.5000000 )

 cart.    s( 2) = ( -1.0000000  0.0000000  0.0000000 )    f =(  0.5000000 )
                  (  0.0000000 -1.0000000  0.0000000 )       (  0.0000000 )
                  (  0.0000000  0.0000000  1.0000000 )       (  0.2037343 )


      isym =  3     180 deg rotation - cart. axis [0,1,0]        

 cryst.   s( 3) = (    -1          0          0      )    f =(  0.0000000 )
                  (     0          1          0      )       (  0.5000000 )
                  (     0          0         -1      )       (  0.0000000 )

 cart.    s( 3) = ( -1.0000000  0.0000000  0.0000000 )    f =(  0.0000000 )
                  (  0.0000000  1.0000000  0.0000000 )       (  0.1865564 )
                  (  0.0000000  0.0000000 -1.0000000 )       (  0.0000000 )


      isym =  4     180 deg rotation - cart. axis [1,0,0]        

 cryst.   s( 4) = (     1          0          0      )    f =(  0.5000000 )
                  (     0         -1          0      )       ( -0.5000000 )
                  (     0          0         -1      )       ( -0.5000000 )

 cart.    s( 4) = (  1.0000000  0.0000000  0.0000000 )    f =(  0.5000000 )
                  (  0.0000000 -1.0000000  0.0000000 )       ( -0.1865564 )
                  (  0.0000000  0.0000000 -1.0000000 )       ( -0.2037343 )


      isym =  5     inversion                                    

 cryst.   s( 5) = (    -1          0          0      )
                  (     0         -1          0      )
                  (     0          0         -1      )

 cart.    s( 5) = ( -1.0000000  0.0000000  0.0000000 )
                  (  0.0000000 -1.0000000  0.0000000 )
                  (  0.0000000  0.0000000 -1.0000000 )


      isym =  6     inv. 180 deg rotation - cart. axis [0,0,1]   

 cryst.   s( 6) = (     1          0          0      )    f =(  0.5000000 )
                  (     0          1          0      )       (  0.0000000 )
                  (     0          0         -1      )       ( -0.5000000 )

 cart.    s( 6) = (  1.0000000  0.0000000  0.0000000 )    f =(  0.5000000 )
                  (  0.0000000  1.0000000  0.0000000 )       (  0.0000000 )
                  (  0.0000000  0.0000000 -1.0000000 )       ( -0.2037343 )


      isym =  7     inv. 180 deg rotation - cart. axis [0,1,0]   

 cryst.   s( 7) = (     1          0          0      )    f =(  0.0000000 )
                  (     0         -1          0      )       ( -0.5000000 )
                  (     0          0          1      )       (  0.0000000 )

 cart.    s( 7) = (  1.0000000  0.0000000  0.0000000 )    f =(  0.0000000 )
                  (  0.0000000 -1.0000000  0.0000000 )       ( -0.1865564 )
                  (  0.0000000  0.0000000  1.0000000 )       (  0.0000000 )


      isym =  8     inv. 180 deg rotation - cart. axis [1,0,0]   

 cryst.   s( 8) = (    -1          0          0      )    f =(  0.5000000 )
                  (     0          1          0      )       (  0.5000000 )
                  (     0          0          1      )       (  0.5000000 )

 cart.    s( 8) = ( -1.0000000  0.0000000  0.0000000 )    f =(  0.5000000 )
                  (  0.0000000  1.0000000  0.0000000 )       (  0.1865564 )
                  (  0.0000000  0.0000000  1.0000000 )       (  0.2037343 )


     point group D_2h (mmm) 
     there are  8 classes
     the character table:

       E     C2    C2'   C2''  i     s_v   s_v'  s_v''
A_g    1.00  1.00  1.00  1.00  1.00  1.00  1.00  1.00
B_1g   1.00  1.00 -1.00 -1.00  1.00  1.00 -1.00 -1.00
B_2g   1.00 -1.00  1.00 -1.00  1.00 -1.00  1.00 -1.00
B_3g   1.00 -1.00 -1.00  1.00  1.00 -1.00 -1.00  1.00
A_u    1.00  1.00  1.00  1.00 -1.00 -1.00 -1.00 -1.00
B_1u   1.00  1.00 -1.00 -1.00 -1.00 -1.00  1.00  1.00
B_2u   1.00 -1.00  1.00 -1.00 -1.00  1.00 -1.00  1.00
B_3u   1.00 -1.00 -1.00  1.00 -1.00  1.00  1.00 -1.00

     the symmetry operations in each class and the name of the first element:

     E        1
          identity                                               
     C2       2
          180 deg rotation - cart. axis [0,0,1]                  
     C2'      4
          180 deg rotation - cart. axis [1,0,0]                  
     C2''     3
          180 deg rotation - cart. axis [0,1,0]                  
     i        5
          inversion                                              
     s_v      6
          inv. 180 deg rotation - cart. axis [0,0,1]             
     s_v'     8
          inv. 180 deg rotation - cart. axis [1,0,0]             
     s_v''    7
          inv. 180 deg rotation - cart. axis [0,1,0]             

   Cartesian axes

     site n.     atom                  positions (alat units)
         1        Se     tau(   1) = (   0.8549563   0.0932782   0.1969085  )
         2        Sn     tau(   2) = (   0.1165395   0.0932782   0.0457534  )
         3        Se     tau(   3) = (   0.6450437   0.2798345   0.4006428  )
         4        Sn     tau(   4) = (   0.3834605   0.2798345   0.2494878  )
         5        Se     tau(   5) = (   0.3549563   0.0932782   0.0068259  )
         6        Sn     tau(   6) = (   0.6165395   0.0932782   0.1579809  )
         7        Se     tau(   7) = (   0.1450437   0.2798345   0.2105602  )
         8        Sn     tau(   8) = (   0.8834605   0.2798345   0.3617152  )

     --------------------------------------------
     DFT-D3 Dispersion Correction (3-body terms):
     --------------------------------------------
       Reference C6 values for interpolation: 

         atom   Coordination number   C6
         Se         0.000           427.35
         Se         0.990           427.57
         Se         1.981           421.05
         Sn         0.000          1255.14
         Sn         0.951          1084.09
         Sn         1.950          1010.83
         Sn         2.926           818.29
         Sn         3.912           672.20

       Values used:

         atom   Coordination number  R0_AB[au]  C6      C8
         Se         3.550            3.332    421.05  29958.36
         Sn         4.370            3.957    672.28  84378.50
         Se         3.550            3.332    421.05  29958.36
         Sn         4.370            3.957    672.28  84378.50
         Se         3.550            3.332    421.05  29958.36
         Sn         4.370            3.957    672.28  84378.50
         Se         3.550            3.332    421.05  29958.36
         Sn         4.370            3.957    672.28  84378.50

         Molecular C6 ( Ry / a.u.^6 ) =     34498.36


   Crystallographic axes

     site n.     atom                  positions (cryst. coord.)
         1        Se     tau(   1) = (  0.8549563  0.2500000  0.4832481  )
         2        Sn     tau(   2) = (  0.1165395  0.2500000  0.1122870  )
         3        Se     tau(   3) = (  0.6450437  0.7500000  0.9832481  )
         4        Sn     tau(   4) = (  0.3834605  0.7500000  0.6122870  )
         5        Se     tau(   5) = (  0.3549563  0.2500000  0.0167519  )
         6        Sn     tau(   6) = (  0.6165395  0.2500000  0.3877130  )
         7        Se     tau(   7) = (  0.1450437  0.7500000  0.5167519  )
         8        Sn     tau(   8) = (  0.8834605  0.7500000  0.8877130  )

     number of k points=    32
                       cart. coord. in units 2pi/alat
        k(    1) = (   0.1666667   0.1675097   0.1533860), wk =   0.0833333
        k(    2) = (   0.1666667   0.1675097   0.4601581), wk =   0.0833333
        k(    3) = (   0.1666667   0.1675097   0.7669301), wk =   0.0833333
        k(    4) = (   0.1666667   0.1675097   1.0737021), wk =   0.0833333
        k(    5) = (   0.1666667   0.5025291   0.1533860), wk =   0.0833333
        k(    6) = (   0.1666667   0.5025291   0.4601581), wk =   0.0833333
        k(    7) = (   0.1666667   0.5025291   0.7669301), wk =   0.0833333
        k(    8) = (   0.1666667   0.5025291   1.0737021), wk =   0.0833333
        k(    9) = (   0.1666667   0.8375485   0.1533860), wk =   0.0833333
        k(   10) = (   0.1666667   0.8375485   0.4601581), wk =   0.0833333
        k(   11) = (   0.1666667   0.8375485   0.7669301), wk =   0.0833333
        k(   12) = (   0.1666667   0.8375485   1.0737021), wk =   0.0833333
        k(   13) = (   0.1666667   1.1725680   0.1533860), wk =   0.0833333
        k(   14) = (   0.1666667   1.1725680   0.4601581), wk =   0.0833333
        k(   15) = (   0.1666667   1.1725680   0.7669301), wk =   0.0833333
        k(   16) = (   0.1666667   1.1725680   1.0737021), wk =   0.0833333
        k(   17) = (  -0.5000000   0.1675097   0.1533860), wk =   0.0416667
        k(   18) = (  -0.5000000   0.1675097   0.4601581), wk =   0.0416667
        k(   19) = (  -0.5000000   0.1675097   0.7669301), wk =   0.0416667
        k(   20) = (  -0.5000000   0.1675097   1.0737021), wk =   0.0416667
        k(   21) = (  -0.5000000   0.5025291   0.1533860), wk =   0.0416667
        k(   22) = (  -0.5000000   0.5025291   0.4601581), wk =   0.0416667
        k(   23) = (  -0.5000000   0.5025291   0.7669301), wk =   0.0416667
        k(   24) = (  -0.5000000   0.5025291   1.0737021), wk =   0.0416667
        k(   25) = (  -0.5000000   0.8375485   0.1533860), wk =   0.0416667
        k(   26) = (  -0.5000000   0.8375485   0.4601581), wk =   0.0416667
        k(   27) = (  -0.5000000   0.8375485   0.7669301), wk =   0.0416667
        k(   28) = (  -0.5000000   0.8375485   1.0737021), wk =   0.0416667
        k(   29) = (  -0.5000000   1.1725680   0.1533860), wk =   0.0416667
        k(   30) = (  -0.5000000   1.1725680   0.4601581), wk =   0.0416667
        k(   31) = (  -0.5000000   1.1725680   0.7669301), wk =   0.0416667
        k(   32) = (  -0.5000000   1.1725680   1.0737021), wk =   0.0416667

                       cryst. coord.
        k(    1) = (   0.1666667   0.0625000   0.0625000), wk =   0.0833333
        k(    2) = (   0.1666667   0.0625000   0.1875000), wk =   0.0833333
        k(    3) = (   0.1666667   0.0625000   0.3125000), wk =   0.0833333
        k(    4) = (   0.1666667   0.0625000   0.4375000), wk =   0.0833333
        k(    5) = (   0.1666667   0.1875000   0.0625000), wk =   0.0833333
        k(    6) = (   0.1666667   0.1875000   0.1875000), wk =   0.0833333
        k(    7) = (   0.1666667   0.1875000   0.3125000), wk =   0.0833333
        k(    8) = (   0.1666667   0.1875000   0.4375000), wk =   0.0833333
        k(    9) = (   0.1666667   0.3125000   0.0625000), wk =   0.0833333
        k(   10) = (   0.1666667   0.3125000   0.1875000), wk =   0.0833333
        k(   11) = (   0.1666667   0.3125000   0.3125000), wk =   0.0833333
        k(   12) = (   0.1666667   0.3125000   0.4375000), wk =   0.0833333
        k(   13) = (   0.1666667   0.4375000   0.0625000), wk =   0.0833333
        k(   14) = (   0.1666667   0.4375000   0.1875000), wk =   0.0833333
        k(   15) = (   0.1666667   0.4375000   0.3125000), wk =   0.0833333
        k(   16) = (   0.1666667   0.4375000   0.4375000), wk =   0.0833333
        k(   17) = (  -0.5000000   0.0625000   0.0625000), wk =   0.0416667
        k(   18) = (  -0.5000000   0.0625000   0.1875000), wk =   0.0416667
        k(   19) = (  -0.5000000   0.0625000   0.3125000), wk =   0.0416667
        k(   20) = (  -0.5000000   0.0625000   0.4375000), wk =   0.0416667
        k(   21) = (  -0.5000000   0.1875000   0.0625000), wk =   0.0416667
        k(   22) = (  -0.5000000   0.1875000   0.1875000), wk =   0.0416667
        k(   23) = (  -0.5000000   0.1875000   0.3125000), wk =   0.0416667
        k(   24) = (  -0.5000000   0.1875000   0.4375000), wk =   0.0416667
        k(   25) = (  -0.5000000   0.3125000   0.0625000), wk =   0.0416667
        k(   26) = (  -0.5000000   0.3125000   0.1875000), wk =   0.0416667
        k(   27) = (  -0.5000000   0.3125000   0.3125000), wk =   0.0416667
        k(   28) = (  -0.5000000   0.3125000   0.4375000), wk =   0.0416667
        k(   29) = (  -0.5000000   0.4375000   0.0625000), wk =   0.0416667
        k(   30) = (  -0.5000000   0.4375000   0.1875000), wk =   0.0416667
        k(   31) = (  -0.5000000   0.4375000   0.3125000), wk =   0.0416667
        k(   32) = (  -0.5000000   0.4375000   0.4375000), wk =   0.0416667

     Dense  grid:   270607 G-vectors     FFT dimensions: ( 160,  60,  64)

     Smooth grid:    68523 G-vectors     FFT dimensions: (  96,  36,  40)

     Dynamical RAM for                 wfc:       2.61 MB

     Dynamical RAM for     wfc (w. buffer):      31.35 MB

     Dynamical RAM for           str. fact:       4.13 MB

     Dynamical RAM for           local pot:       0.00 MB

     Dynamical RAM for          nlocal pot:       9.40 MB

     Dynamical RAM for                qrad:       3.59 MB

     Dynamical RAM for          rho,v,vnew:      13.22 MB

     Dynamical RAM for               rhoin:       4.41 MB

     Dynamical RAM for            rho*nmix:      33.03 MB

     Dynamical RAM for           G-vectors:       8.00 MB

     Dynamical RAM for          h,s,v(r/c):       0.29 MB

     Dynamical RAM for          <psi|beta>:       0.09 MB

     Dynamical RAM for                 psi:       5.22 MB

     Dynamical RAM for                hpsi:       5.22 MB

     Dynamical RAM for                spsi:       5.22 MB

     Dynamical RAM for      wfcinit/wfcrot:       6.85 MB

     Dynamical RAM for           addusdens:     132.13 MB

     Dynamical RAM for          addusforce:     135.93 MB

     Estimated static dynamical RAM per process >      92.02 MB

     Estimated max dynamical RAM per process >     260.99 MB

     Estimated total dynamical RAM >       1.40 GB

     Initial potential from superposition of free atoms

     starting charge      75.9995, renormalised to      80.0000
     Starting wfcs are   52 randomized atomic wfcs

     total cpu time spent up to now is        2.6 secs

     Self-consistent Calculation

     iteration #  1     ecut=    50.00 Ry     beta= 0.70
     Davidson diagonalization with overlap

---- Real-time Memory Report at c_bands before calling an iterative solver
           320 MiB given to the printing process from OS
             0 MiB allocation reported by mallinfo(arena+hblkhd)
          9864 MiB available memory on the node where the printing process lives
------------------
     ethr =  1.00E-02,  avg # of iterations =  2.0

     total cpu time spent up to now is        6.9 secs

     total energy              =    -826.63895755 Ry
     estimated scf accuracy    <       2.66021962 Ry

     iteration #  2     ecut=    50.00 Ry     beta= 0.70
     Davidson diagonalization with overlap

---- Real-time Memory Report at c_bands before calling an iterative solver
           411 MiB given to the printing process from OS
             0 MiB allocation reported by mallinfo(arena+hblkhd)
          9553 MiB available memory on the node where the printing process lives
------------------
     ethr =  3.33E-03,  avg # of iterations =  3.0

     total cpu time spent up to now is       11.7 secs

     total energy              =    -827.54806711 Ry
     estimated scf accuracy    <       0.92919540 Ry

     iteration #  3     ecut=    50.00 Ry     beta= 0.70
     Davidson diagonalization with overlap

---- Real-time Memory Report at c_bands before calling an iterative solver
           433 MiB given to the printing process from OS
             0 MiB allocation reported by mallinfo(arena+hblkhd)
          9459 MiB available memory on the node where the printing process lives
------------------
     ethr =  1.16E-03,  avg # of iterations =  2.5

     total cpu time spent up to now is       15.9 secs

     total energy              =    -827.73343596 Ry
     estimated scf accuracy    <       0.00929929 Ry

     iteration #  4     ecut=    50.00 Ry     beta= 0.70
     Davidson diagonalization with overlap

---- Real-time Memory Report at c_bands before calling an iterative solver
           445 MiB given to the printing process from OS
             0 MiB allocation reported by mallinfo(arena+hblkhd)
          9438 MiB available memory on the node where the printing process lives
------------------
     ethr =  1.16E-05,  avg # of iterations =  5.0

     total cpu time spent up to now is       21.4 secs

     total energy              =    -827.73939620 Ry
     estimated scf accuracy    <       0.00440976 Ry

     iteration #  5     ecut=    50.00 Ry     beta= 0.70
     Davidson diagonalization with overlap

---- Real-time Memory Report at c_bands before calling an iterative solver
           447 MiB given to the printing process from OS
             0 MiB allocation reported by mallinfo(arena+hblkhd)
          9416 MiB available memory on the node where the printing process lives
------------------
     ethr =  5.51E-06,  avg # of iterations =  3.3

     total cpu time spent up to now is       25.9 secs

     total energy              =    -827.74080705 Ry
     estimated scf accuracy    <       0.00113224 Ry

     iteration #  6     ecut=    50.00 Ry     beta= 0.70
     Davidson diagonalization with overlap

---- Real-time Memory Report at c_bands before calling an iterative solver
           449 MiB given to the printing process from OS
             0 MiB allocation reported by mallinfo(arena+hblkhd)
          9413 MiB available memory on the node where the printing process lives
------------------
     ethr =  1.42E-06,  avg # of iterations =  2.3

     total cpu time spent up to now is       30.0 secs

     total energy              =    -827.74096692 Ry
     estimated scf accuracy    <       0.00003191 Ry

     iteration #  7     ecut=    50.00 Ry     beta= 0.70
     Davidson diagonalization with overlap

---- Real-time Memory Report at c_bands before calling an iterative solver
           453 MiB given to the printing process from OS
             0 MiB allocation reported by mallinfo(arena+hblkhd)
          9409 MiB available memory on the node where the printing process lives
------------------
     ethr =  3.99E-08,  avg # of iterations =  5.2

     total cpu time spent up to now is       35.6 secs

     total energy              =    -827.74099312 Ry
     estimated scf accuracy    <       0.00001265 Ry

     iteration #  8     ecut=    50.00 Ry     beta= 0.70
     Davidson diagonalization with overlap

---- Real-time Memory Report at c_bands before calling an iterative solver
           453 MiB given to the printing process from OS
             0 MiB allocation reported by mallinfo(arena+hblkhd)
          9408 MiB available memory on the node where the printing process lives
------------------
     ethr =  1.58E-08,  avg # of iterations =  3.2

     total cpu time spent up to now is       40.1 secs

     total energy              =    -827.74099761 Ry
     estimated scf accuracy    <       0.00000164 Ry

     iteration #  9     ecut=    50.00 Ry     beta= 0.70
     Davidson diagonalization with overlap

---- Real-time Memory Report at c_bands before calling an iterative solver
           454 MiB given to the printing process from OS
             0 MiB allocation reported by mallinfo(arena+hblkhd)
          9405 MiB available memory on the node where the printing process lives
------------------
     ethr =  2.05E-09,  avg # of iterations =  3.7

     total cpu time spent up to now is       45.0 secs

     total energy              =    -827.74099807 Ry
     estimated scf accuracy    <       0.00000008 Ry

     iteration # 10     ecut=    50.00 Ry     beta= 0.70
     Davidson diagonalization with overlap

---- Real-time Memory Report at c_bands before calling an iterative solver
           455 MiB given to the printing process from OS
             0 MiB allocation reported by mallinfo(arena+hblkhd)
          9401 MiB available memory on the node where the printing process lives
------------------
     ethr =  9.86E-11,  avg # of iterations =  6.6

     total cpu time spent up to now is       53.0 secs

     total energy              =    -827.74099818 Ry
     estimated scf accuracy    <       0.00000008 Ry

     iteration # 11     ecut=    50.00 Ry     beta= 0.70
     Davidson diagonalization with overlap

---- Real-time Memory Report at c_bands before calling an iterative solver
           455 MiB given to the printing process from OS
             0 MiB allocation reported by mallinfo(arena+hblkhd)
          9401 MiB available memory on the node where the printing process lives
------------------
     ethr =  9.86E-11,  avg # of iterations =  2.0

     total cpu time spent up to now is       57.0 secs

     End of self-consistent calculation

          k = 0.1667 0.1675 0.1534 (  8542 PWs)   bands (ev):

   -13.3341 -13.3229 -13.3187 -13.3168 -13.3151 -13.3138 -13.3102 -13.3066
   -13.3015 -13.2976 -13.2949 -13.2947 -13.2833 -13.2760 -13.2576 -13.2566
   -13.2494 -13.2488 -13.2372 -13.2302  -5.7705  -5.4541  -4.6814  -4.2446
     0.5671   1.4853   2.4569   2.7825   3.2461   4.4912   4.6186   4.8996
     5.1731   5.3096   5.8828   6.2334   6.4960   6.9780   7.2375   7.5349

     occupation numbers 
     1.0000   1.0000   1.0000   1.0000   1.0000   1.0000   1.0000   1.0000
     1.0000   1.0000   1.0000   1.0000   1.0000   1.0000   1.0000   1.0000
     1.0000   1.0000   1.0000   1.0000   1.0000   1.0000   1.0000   1.0000
     1.0000   1.0000   1.0000   1.0000   1.0000   1.0000   1.0000   1.0000
     1.0000   1.0000   1.0000   1.0000   1.0000   1.0000   1.0000   1.0000

          k = 0.1667 0.1675 0.4602 (  8542 PWs)   bands (ev):

   -13.3324 -13.3223 -13.3187 -13.3179 -13.3152 -13.3147 -13.3109 -13.3077
   -13.3006 -13.2951 -13.2948 -13.2924 -13.2830 -13.2768 -13.2580 -13.2556
   -13.2500 -13.2500 -13.2366 -13.2307  -5.6505  -5.3439  -4.6869  -4.2925
     0.2598   1.2563   1.8749   2.4825   3.3548   4.5246   4.7401   5.3182
     5.4967   5.8475   5.8915   6.3360   6.6901   6.9947   7.3772   7.6042

     occupation numbers 
     1.0000   1.0000   1.0000   1.0000   1.0000   1.0000   1.0000   1.0000
     1.0000   1.0000   1.0000   1.0000   1.0000   1.0000   1.0000   1.0000
     1.0000   1.0000   1.0000   1.0000   1.0000   1.0000   1.0000   1.0000
     1.0000   1.0000   1.0000   1.0000   1.0000   1.0000   1.0000   1.0000
     1.0000   1.0000   1.0000   1.0000   1.0000   1.0000   1.0000   1.0000

          k = 0.1667 0.1675 0.7669 (  8549 PWs)   bands (ev):

   -13.3296 -13.3220 -13.3197 -13.3186 -13.3167 -13.3148 -13.3115 -13.3093
   -13.2992 -13.2953 -13.2908 -13.2886 -13.2829 -13.2784 -13.2576 -13.2544
   -13.2519 -13.2510 -13.2356 -13.2316  -5.4330  -5.1461  -4.7372  -4.4081
    -0.0312   0.7627   1.4284   2.0128   3.6604   4.7546   4.9512   5.5718
     5.8755   5.9773   6.2614   6.3533   6.8641   7.3216   7.3993   7.8431

     occupation numbers 
     1.0000   1.0000   1.0000   1.0000   1.0000   1.0000   1.0000   1.0000
     1.0000   1.0000   1.0000   1.0000   1.0000   1.0000   1.0000   1.0000
     1.0000   1.0000   1.0000   1.0000   1.0000   1.0000   1.0000   1.0000
     1.0000   1.0000   1.0000   1.0000   1.0000   1.0000   1.0000   1.0000
     1.0000   1.0000   1.0000   1.0000   1.0000   1.0000   1.0000   1.0000

          k = 0.1667 0.1675 1.0737 (  8565 PWs)   bands (ev):

   -13.3263 -13.3235 -13.3202 -13.3197 -13.3165 -13.3155 -13.3116 -13.3108
   -13.2976 -13.2963 -13.2867 -13.2851 -13.2836 -13.2810 -13.2563 -13.2543
   -13.2531 -13.2520 -13.2343 -13.2329  -5.1693  -4.9763  -4.8040  -4.6011
    -0.0649   0.2284   1.3604   1.5850   4.1267   4.6257   5.3376   5.6394
     5.8696   6.0154   6.3290   6.5725   7.1564   7.4465   7.6439   7.7242

     occupation numbers 
     1.0000   1.0000   1.0000   1.0000   1.0000   1.0000   1.0000   1.0000
     1.0000   1.0000   1.0000   1.0000   1.0000   1.0000   1.0000   1.0000
     1.0000   1.0000   1.0000   1.0000   1.0000   1.0000   1.0000   1.0000
     1.0000   1.0000   1.0000   1.0000   1.0000   1.0000   1.0000   1.0000
     1.0000   1.0000   1.0000   1.0000   1.0000   1.0000   1.0000   1.0000

          k = 0.1667 0.5025 0.1534 (  8556 PWs)   bands (ev):

   -13.3281 -13.3214 -13.3194 -13.3164 -13.3138 -13.3135 -13.3118 -13.3098
   -13.3020 -13.2967 -13.2939 -13.2925 -13.2810 -13.2773 -13.2595 -13.2555
   -13.2526 -13.2471 -13.2372 -13.2319  -5.6059  -5.3133  -4.6205  -4.2577
     0.4305   1.2509   2.0960   2.2355   3.3597   4.3449   4.6705   5.0236
     5.3194   5.4826   5.9240   6.2880   6.4645   7.1275   7.4178   7.5566

     occupation numbers 
     1.0000   1.0000   1.0000   1.0000   1.0000   1.0000   1.0000   1.0000
     1.0000   1.0000   1.0000   1.0000   1.0000   1.0000   1.0000   1.0000
     1.0000   1.0000   1.0000   1.0000   1.0000   1.0000   1.0000   1.0000
     1.0000   1.0000   1.0000   1.0000   1.0000   1.0000   1.0000   1.0000
     1.0000   1.0000   1.0000   1.0000   1.0000   1.0000   1.0000   1.0000

          k = 0.1667 0.5025 0.4602 (  8558 PWs)   bands (ev):

   -13.3280 -13.3215 -13.3208 -13.3171 -13.3141 -13.3135 -13.3115 -13.3107
   -13.3013 -13.2970 -13.2915 -13.2901 -13.2812 -13.2773 -13.2591 -13.2555
   -13.2529 -13.2482 -13.2367 -13.2321  -5.4918  -5.2098  -4.6226  -4.2926
     0.2767   1.2016   1.7362   2.1122   3.4950   3.9436   4.2624   5.1717
     5.3594   5.9084   6.0246   6.2716   6.8652   7.0229   7.4031   7.5840

     occupation numbers 
     1.0000   1.0000   1.0000   1.0000   1.0000   1.0000   1.0000   1.0000
     1.0000   1.0000   1.0000   1.0000   1.0000   1.0000   1.0000   1.0000
     1.0000   1.0000   1.0000   1.0000   1.0000   1.0000   1.0000   1.0000
     1.0000   1.0000   1.0000   1.0000   1.0000   1.0000   1.0000   1.0000
     1.0000   1.0000   1.0000   1.0000   1.0000   1.0000   1.0000   1.0000

          k = 0.1667 0.5025 0.7669 (  8550 PWs)   bands (ev):

   -13.3279 -13.3235 -13.3211 -13.3183 -13.3151 -13.3129 -13.3125 -13.3104
   -13.3001 -13.2975 -13.2878 -13.2865 -13.2815 -13.2780 -13.2583 -13.2556
   -13.2530 -13.2497 -13.2357 -13.2327  -5.2874  -5.0264  -4.6626  -4.3826
     0.1149   0.8735   1.4620   1.8893   3.7495   3.8982   4.2135   5.0523
     5.1864   5.8856   5.9921   6.5179   6.7552   7.0467   7.2647   7.5975

     occupation numbers 
     1.0000   1.0000   1.0000   1.0000   1.0000   1.0000   1.0000   1.0000
     1.0000   1.0000   1.0000   1.0000   1.0000   1.0000   1.0000   1.0000
     1.0000   1.0000   1.0000   1.0000   1.0000   1.0000   1.0000   1.0000
     1.0000   1.0000   1.0000   1.0000   1.0000   1.0000   1.0000   1.0000
     1.0000   1.0000   1.0000   1.0000   1.0000   1.0000   1.0000   1.0000

          k = 0.1667 0.5025 1.0737 (  8560 PWs)   bands (ev):

   -13.3274 -13.3259 -13.3206 -13.3197 -13.3152 -13.3141 -13.3114 -13.3106
   -13.2991 -13.2982 -13.2844 -13.2829 -13.2823 -13.2798 -13.2572 -13.2562
   -13.2524 -13.2512 -13.2346 -13.2335  -5.0442  -4.8709  -4.7187  -4.5426
     0.1298   0.4072   1.4612   1.6291   4.0647   4.1356   4.4303   4.7285
     5.0650   5.3736   6.0523   6.3337   6.7530   7.0206   7.3080   7.5114

     occupation numbers 
     1.0000   1.0000   1.0000   1.0000   1.0000   1.0000   1.0000   1.0000
     1.0000   1.0000   1.0000   1.0000   1.0000   1.0000   1.0000   1.0000
     1.0000   1.0000   1.0000   1.0000   1.0000   1.0000   1.0000   1.0000
     1.0000   1.0000   1.0000   1.0000   1.0000   1.0000   1.0000   1.0000
     1.0000   1.0000   1.0000   1.0000   1.0000   1.0000   1.0000   1.0000

          k = 0.1667 0.8375 0.1534 (  8580 PWs)   bands (ev):

   -13.3258 -13.3236 -13.3222 -13.3213 -13.3110 -13.3093 -13.3077 -13.3061
   -13.3007 -13.2984 -13.2912 -13.2881 -13.2805 -13.2775 -13.2642 -13.2624
   -13.2489 -13.2441 -13.2372 -13.2345  -5.3040  -5.0672  -4.5608  -4.3452
     0.2524   0.9638   1.2877   1.7126   3.7019   4.4585   4.8419   5.2339
     5.5445   5.6567   6.0444   6.2363   6.5674   7.0941   7.2160   7.6193

     occupation numbers 
     1.0000   1.0000   1.0000   1.0000   1.0000   1.0000   1.0000   1.0000
     1.0000   1.0000   1.0000   1.0000   1.0000   1.0000   1.0000   1.0000
     1.0000   1.0000   1.0000   1.0000   1.0000   1.0000   1.0000   1.0000
     1.0000   1.0000   1.0000   1.0000   1.0000   1.0000   1.0000   1.0000
     1.0000   1.0000   1.0000   1.0000   1.0000   1.0000   1.0000   1.0000

          k = 0.1667 0.8375 0.4602 (  8564 PWs)   bands (ev):

   -13.3287 -13.3255 -13.3236 -13.3219 -13.3115 -13.3083 -13.3073 -13.3059
   -13.2997 -13.2983 -13.2895 -13.2865 -13.2809 -13.2770 -13.2636 -13.2621
   -13.2489 -13.2449 -13.2368 -13.2344  -5.2043  -4.9792  -4.5523  -4.3515
     0.2933   1.0572   1.3249   1.6081   3.6961   3.8131   4.2049   4.8646
     5.2990   5.8252   5.8805   6.3757   6.4493   6.9201   7.0888   7.3796

     occupation numbers 
     1.0000   1.0000   1.0000   1.0000   1.0000   1.0000   1.0000   1.0000
     1.0000   1.0000   1.0000   1.0000   1.0000   1.0000   1.0000   1.0000
     1.0000   1.0000   1.0000   1.0000   1.0000   1.0000   1.0000   1.0000
     1.0000   1.0000   1.0000   1.0000   1.0000   1.0000   1.0000   1.0000
     1.0000   1.0000   1.0000   1.0000   1.0000   1.0000   1.0000   1.0000

          k = 0.1667 0.8375 0.7669 (  8562 PWs)   bands (ev):

   -13.3317 -13.3292 -13.3251 -13.3237 -13.3111 -13.3076 -13.3069 -13.3057
   -13.2986 -13.2982 -13.2867 -13.2841 -13.2806 -13.2771 -13.2628 -13.2617
   -13.2488 -13.2460 -13.2360 -13.2344  -5.0305  -4.8281  -4.5659  -4.3869
     0.3596   1.0028   1.3933   1.5662   3.3159   3.6747   4.1011   4.4112
     4.7808   5.2907   5.6161   6.0049   6.3218   6.6517   6.9246   7.3549

     occupation numbers 
     1.0000   1.0000   1.0000   1.0000   1.0000   1.0000   1.0000   1.0000
     1.0000   1.0000   1.0000   1.0000   1.0000   1.0000   1.0000   1.0000
     1.0000   1.0000   1.0000   1.0000   1.0000   1.0000   1.0000   1.0000
     1.0000   1.0000   1.0000   1.0000   1.0000   1.0000   1.0000   1.0000
     1.0000   1.0000   1.0000   1.0000   1.0000   1.0000   1.0000   1.0000

          k = 0.1667 0.8375 1.0737 (  8556 PWs)   bands (ev):

   -13.3331 -13.3322 -13.3259 -13.3254 -13.3100 -13.3085 -13.3061 -13.3056
   -13.2980 -13.2980 -13.2843 -13.2831 -13.2795 -13.2780 -13.2620 -13.2616
   -13.2481 -13.2471 -13.2353 -13.2347  -4.8340  -4.7045  -4.5960  -4.4767
     0.4811   0.7146   1.5256   1.5807   3.3359   3.6819   3.8057   4.1689
     4.5809   4.9479   5.3798   5.7608   6.0173   6.2997   7.0176   7.1409

     occupation numbers 
     1.0000   1.0000   1.0000   1.0000   1.0000   1.0000   1.0000   1.0000
     1.0000   1.0000   1.0000   1.0000   1.0000   1.0000   1.0000   1.0000
     1.0000   1.0000   1.0000   1.0000   1.0000   1.0000   1.0000   1.0000
     1.0000   1.0000   1.0000   1.0000   1.0000   1.0000   1.0000   1.0000
     1.0000   1.0000   1.0000   1.0000   1.0000   1.0000   1.0000   1.0000

          k = 0.1667 1.1726 0.1534 (  8585 PWs)   bands (ev):

   -13.3282 -13.3270 -13.3249 -13.3237 -13.3071 -13.3058 -13.3046 -13.3028
   -13.2962 -13.2951 -13.2925 -13.2876 -13.2795 -13.2741 -13.2711 -13.2692
   -13.2434 -13.2409 -13.2382 -13.2381  -4.9268  -4.7937  -4.6026  -4.5740
     0.2519   0.6033   0.9142   1.2024   4.2112   4.6439   5.0526   5.4120
     5.6084   5.6377   6.0699   6.3890   6.6860   6.9398   6.9865   7.1666

     occupation numbers 
     1.0000   1.0000   1.0000   1.0000   1.0000   1.0000   1.0000   1.0000
     1.0000   1.0000   1.0000   1.0000   1.0000   1.0000   1.0000   1.0000
     1.0000   1.0000   1.0000   1.0000   1.0000   1.0000   1.0000   1.0000
     1.0000   1.0000   1.0000   1.0000   1.0000   1.0000   1.0000   1.0000
     1.0000   1.0000   1.0000   1.0000   1.0000   1.0000   1.0000   1.0000

          k = 0.1667 1.1726 0.4602 (  8581 PWs)   bands (ev):

   -13.3312 -13.3300 -13.3263 -13.3254 -13.3077 -13.3059 -13.3034 -13.3022
   -13.2957 -13.2944 -13.2910 -13.2871 -13.2788 -13.2750 -13.2692 -13.2682
   -13.2437 -13.2417 -13.2377 -13.2374  -4.8536  -4.7314  -4.5713  -4.5393
     0.3981   0.7408   1.0305   1.2343   3.9655   4.1505   4.4408   4.7205
     4.9752   5.4014   5.9159   6.1075   6.2338   6.5143   7.0856   7.3262

     occupation numbers 
     1.0000   1.0000   1.0000   1.0000   1.0000   1.0000   1.0000   1.0000
     1.0000   1.0000   1.0000   1.0000   1.0000   1.0000   1.0000   1.0000
     1.0000   1.0000   1.0000   1.0000   1.0000   1.0000   1.0000   1.0000
     1.0000   1.0000   1.0000   1.0000   1.0000   1.0000   1.0000   1.0000
     1.0000   1.0000   1.0000   1.0000   1.0000   1.0000   1.0000   1.0000

          k = 0.1667 1.1726 0.7669 (  8549 PWs)   bands (ev):

   -13.3350 -13.3340 -13.3284 -13.3279 -13.3078 -13.3063 -13.3022 -13.3016
   -13.2948 -13.2937 -13.2891 -13.2864 -13.2775 -13.2754 -13.2672 -13.2667
   -13.2438 -13.2426 -13.2371 -13.2368  -4.7344  -4.6331  -4.5358  -4.4966
     0.6467   0.9546   1.2074   1.2748   3.3245   3.7812   3.8955   4.1834
     4.5602   4.8690   5.2738   5.7293   5.8467   6.0966   6.9677   7.0962

     occupation numbers 
     1.0000   1.0000   1.0000   1.0000   1.0000   1.0000   1.0000   1.0000
     1.0000   1.0000   1.0000   1.0000   1.0000   1.0000   1.0000   1.0000
     1.0000   1.0000   1.0000   1.0000   1.0000   1.0000   1.0000   1.0000
     1.0000   1.0000   1.0000   1.0000   1.0000   1.0000   1.0000   1.0000
     1.0000   1.0000   1.0000   1.0000   1.0000   1.0000   1.0000   1.0000

          k = 0.1667 1.1726 1.0737 (  8557 PWs)   bands (ev):

   -13.3373 -13.3370 -13.3300 -13.3298 -13.3076 -13.3070 -13.3015 -13.3012
   -13.2939 -13.2935 -13.2874 -13.2864 -13.2762 -13.2755 -13.2660 -13.2658
   -13.2436 -13.2432 -13.2366 -13.2365  -4.6175  -4.5602  -4.5199  -4.4849
     0.8952   1.0333   1.3363   1.3747   3.0738   3.2803   3.6825   3.8005
     4.3899   4.4070   4.9297   5.2604   5.8102   5.9959   6.8098   6.8649

     occupation numbers 
     1.0000   1.0000   1.0000   1.0000   1.0000   1.0000   1.0000   1.0000
     1.0000   1.0000   1.0000   1.0000   1.0000   1.0000   1.0000   1.0000
     1.0000   1.0000   1.0000   1.0000   1.0000   1.0000   1.0000   1.0000
     1.0000   1.0000   1.0000   1.0000   1.0000   1.0000   1.0000   1.0000
     1.0000   1.0000   1.0000   1.0000   1.0000   1.0000   1.0000   1.0000

          k =-0.5000 0.1675 0.1534 (  8554 PWs)   bands (ev):

   -13.3291 -13.3291 -13.3168 -13.3168 -13.3158 -13.3158 -13.3078 -13.3078
   -13.2984 -13.2984 -13.2964 -13.2964 -13.2793 -13.2793 -13.2567 -13.2567
   -13.2494 -13.2494 -13.2335 -13.2335  -5.6410  -5.6410  -4.4341  -4.4341
     0.8913   0.8913   2.7067   2.7067   3.9478   3.9478   4.8147   4.8147
     5.3494   5.3494   5.9670   5.9670   6.3267   6.3267   7.4539   7.4539

     occupation numbers 
     1.0000   1.0000   1.0000   1.0000   1.0000   1.0000   1.0000   1.0000
     1.0000   1.0000   1.0000   1.0000   1.0000   1.0000   1.0000   1.0000
     1.0000   1.0000   1.0000   1.0000   1.0000   1.0000   1.0000   1.0000
     1.0000   1.0000   1.0000   1.0000   1.0000   1.0000   1.0000   1.0000
     1.0000   1.0000   1.0000   1.0000   1.0000   1.0000   1.0000   1.0000

          k =-0.5000 0.1675 0.4602 (  8552 PWs)   bands (ev):

   -13.3280 -13.3280 -13.3171 -13.3171 -13.3161 -13.3161 -13.3091 -13.3091
   -13.2978 -13.2978 -13.2939 -13.2939 -13.2796 -13.2796 -13.2564 -13.2564
   -13.2503 -13.2503 -13.2335 -13.2335  -5.5262  -5.5262  -4.4605  -4.4605
     0.6172   0.6172   2.2344   2.2344   4.1979   4.1979   4.8939   4.8939
     5.5851   5.5851   6.1220   6.1220   6.7607   6.7607   7.3699   7.3699

     occupation numbers 
     1.0000   1.0000   1.0000   1.0000   1.0000   1.0000   1.0000   1.0000
     1.0000   1.0000   1.0000   1.0000   1.0000   1.0000   1.0000   1.0000
     1.0000   1.0000   1.0000   1.0000   1.0000   1.0000   1.0000   1.0000
     1.0000   1.0000   1.0000   1.0000   1.0000   1.0000   1.0000   1.0000
     1.0000   1.0000   1.0000   1.0000   1.0000   1.0000   1.0000   1.0000

          k =-0.5000 0.1675 0.7669 (  8540 PWs)   bands (ev):

   -13.3262 -13.3262 -13.3188 -13.3188 -13.3156 -13.3156 -13.3108 -13.3108
   -13.2970 -13.2970 -13.2899 -13.2899 -13.2805 -13.2805 -13.2558 -13.2558
   -13.2516 -13.2516 -13.2335 -13.2335  -5.3210  -5.3210  -4.5415  -4.5415
     0.3044   0.3044   1.6857   1.6857   4.5232   4.5232   5.1807   5.1807
     5.7218   5.7218   6.3245   6.3245   6.9770   6.9770   7.5186   7.5186

     occupation numbers 
     1.0000   1.0000   1.0000   1.0000   1.0000   1.0000   1.0000   1.0000
     1.0000   1.0000   1.0000   1.0000   1.0000   1.0000   1.0000   1.0000
     1.0000   1.0000   1.0000   1.0000   1.0000   1.0000   1.0000   1.0000
     1.0000   1.0000   1.0000   1.0000   1.0000   1.0000   1.0000   1.0000
     1.0000   1.0000   1.0000   1.0000   1.0000   1.0000   1.0000   1.0000

          k =-0.5000 0.1675 1.0737 (  8550 PWs)   bands (ev):

   -13.3247 -13.3247 -13.3201 -13.3201 -13.3156 -13.3156 -13.3120 -13.3120
   -13.2965 -13.2965 -13.2862 -13.2862 -13.2820 -13.2820 -13.2550 -13.2550
   -13.2529 -13.2529 -13.2335 -13.2335  -5.0959  -5.0959  -4.6806  -4.6806
     0.1335   0.1335   1.3239   1.3239   4.9324   4.9324   5.4815   5.4815
     5.5661   5.5661   6.1817   6.1817   7.3288   7.3288   7.6179   7.6179

     occupation numbers 
     1.0000   1.0000   1.0000   1.0000   1.0000   1.0000   1.0000   1.0000
     1.0000   1.0000   1.0000   1.0000   1.0000   1.0000   1.0000   1.0000
     1.0000   1.0000   1.0000   1.0000   1.0000   1.0000   1.0000   1.0000
     1.0000   1.0000   1.0000   1.0000   1.0000   1.0000   1.0000   1.0000
     1.0000   1.0000   1.0000   1.0000   1.0000   1.0000   1.0000   1.0000

          k =-0.5000 0.5025 0.1534 (  8558 PWs)   bands (ev):

   -13.3248 -13.3248 -13.3184 -13.3184 -13.3134 -13.3134 -13.3108 -13.3108
   -13.2994 -13.2994 -13.2932 -13.2932 -13.2790 -13.2790 -13.2579 -13.2579
   -13.2494 -13.2494 -13.2344 -13.2344  -5.4855  -5.4855  -4.4124  -4.4124
     0.7377   0.7377   2.2026   2.2026   4.0726   4.0726   4.7197   4.7197
     5.6383   5.6383   5.8394   5.8394   6.4982   6.4982   7.5712   7.5712

     occupation numbers 
     1.0000   1.0000   1.0000   1.0000   1.0000   1.0000   1.0000   1.0000
     1.0000   1.0000   1.0000   1.0000   1.0000   1.0000   1.0000   1.0000
     1.0000   1.0000   1.0000   1.0000   1.0000   1.0000   1.0000   1.0000
     1.0000   1.0000   1.0000   1.0000   1.0000   1.0000   1.0000   1.0000
     1.0000   1.0000   1.0000   1.0000   1.0000   1.0000   1.0000   1.0000

          k =-0.5000 0.5025 0.4602 (  8548 PWs)   bands (ev):

   -13.3249 -13.3249 -13.3194 -13.3194 -13.3136 -13.3136 -13.3108 -13.3108
   -13.2991 -13.2991 -13.2908 -13.2908 -13.2793 -13.2793 -13.2577 -13.2577
   -13.2501 -13.2501 -13.2342 -13.2342  -5.3768  -5.3768  -4.4311  -4.4311
     0.6200   0.6200   1.9689   1.9689   4.0014   4.0014   4.6450   4.6450
     5.3238   5.3238   6.2562   6.2562   6.8616   6.8616   7.4791   7.4791

     occupation numbers 
     1.0000   1.0000   1.0000   1.0000   1.0000   1.0000   1.0000   1.0000
     1.0000   1.0000   1.0000   1.0000   1.0000   1.0000   1.0000   1.0000
     1.0000   1.0000   1.0000   1.0000   1.0000   1.0000   1.0000   1.0000
     1.0000   1.0000   1.0000   1.0000   1.0000   1.0000   1.0000   1.0000
     1.0000   1.0000   1.0000   1.0000   1.0000   1.0000   1.0000   1.0000

          k =-0.5000 0.5025 0.7669 (  8548 PWs)   bands (ev):

   -13.3253 -13.3253 -13.3213 -13.3213 -13.3134 -13.3134 -13.3108 -13.3108
   -13.2988 -13.2988 -13.2872 -13.2872 -13.2799 -13.2799 -13.2574 -13.2574
   -13.2510 -13.2510 -13.2340 -13.2340  -5.1849  -5.1849  -4.4948  -4.4948
     0.4382   0.4382   1.6554   1.6554   3.9885   3.9885   4.8098   4.8098
     5.1634   5.1634   6.3586   6.3586   6.7208   6.7208   7.4300   7.4300

     occupation numbers 
     1.0000   1.0000   1.0000   1.0000   1.0000   1.0000   1.0000   1.0000
     1.0000   1.0000   1.0000   1.0000   1.0000   1.0000   1.0000   1.0000
     1.0000   1.0000   1.0000   1.0000   1.0000   1.0000   1.0000   1.0000
     1.0000   1.0000   1.0000   1.0000   1.0000   1.0000   1.0000   1.0000
     1.0000   1.0000   1.0000   1.0000   1.0000   1.0000   1.0000   1.0000

          k =-0.5000 0.5025 1.0737 (  8570 PWs)   bands (ev):

   -13.3256 -13.3256 -13.3227 -13.3227 -13.3129 -13.3129 -13.3109 -13.3109
   -13.2986 -13.2986 -13.2837 -13.2837 -13.2812 -13.2812 -13.2572 -13.2572
   -13.2517 -13.2517 -13.2338 -13.2338  -4.9780  -4.9780  -4.6110  -4.6110
     0.3130   0.3130   1.4252   1.4252   4.2271   4.2271   4.6502   4.6502
     5.3867   5.3867   6.0014   6.0014   6.6578   6.6578   7.2664   7.2664

     occupation numbers 
     1.0000   1.0000   1.0000   1.0000   1.0000   1.0000   1.0000   1.0000
     1.0000   1.0000   1.0000   1.0000   1.0000   1.0000   1.0000   1.0000
     1.0000   1.0000   1.0000   1.0000   1.0000   1.0000   1.0000   1.0000
     1.0000   1.0000   1.0000   1.0000   1.0000   1.0000   1.0000   1.0000
     1.0000   1.0000   1.0000   1.0000   1.0000   1.0000   1.0000   1.0000

          k =-0.5000 0.8375 0.1534 (  8574 PWs)   bands (ev):

   -13.3253 -13.3253 -13.3211 -13.3211 -13.3096 -13.3096 -13.3079 -13.3079
   -13.2992 -13.2992 -13.2898 -13.2898 -13.2788 -13.2788 -13.2635 -13.2635
   -13.2464 -13.2464 -13.2358 -13.2358  -5.2049  -5.2049  -4.4328  -4.4328
     0.5417   0.5417   1.4953   1.4953   4.3533   4.3533   4.9028   4.9028
     5.7939   5.7939   5.9555   5.9555   6.4937   6.4937   7.4150   7.4150

     occupation numbers 
     1.0000   1.0000   1.0000   1.0000   1.0000   1.0000   1.0000   1.0000
     1.0000   1.0000   1.0000   1.0000   1.0000   1.0000   1.0000   1.0000
     1.0000   1.0000   1.0000   1.0000   1.0000   1.0000   1.0000   1.0000
     1.0000   1.0000   1.0000   1.0000   1.0000   1.0000   1.0000   1.0000
     1.0000   1.0000   1.0000   1.0000   1.0000   1.0000   1.0000   1.0000

          k =-0.5000 0.8375 0.4602 (  8574 PWs)   bands (ev):

   -13.3271 -13.3271 -13.3230 -13.3230 -13.3095 -13.3095 -13.3069 -13.3069
   -13.2989 -13.2989 -13.2881 -13.2881 -13.2787 -13.2787 -13.2633 -13.2633
   -13.2466 -13.2466 -13.2356 -13.2356  -5.1109  -5.1109  -4.4323  -4.4323
     0.6026   0.6026   1.4763   1.4763   3.8789   3.8789   4.7411   4.7411
     5.2191   5.2191   6.1998   6.1998   6.4377   6.4377   7.3205   7.3205

     occupation numbers 
     1.0000   1.0000   1.0000   1.0000   1.0000   1.0000   1.0000   1.0000
     1.0000   1.0000   1.0000   1.0000   1.0000   1.0000   1.0000   1.0000
     1.0000   1.0000   1.0000   1.0000   1.0000   1.0000   1.0000   1.0000
     1.0000   1.0000   1.0000   1.0000   1.0000   1.0000   1.0000   1.0000
     1.0000   1.0000   1.0000   1.0000   1.0000   1.0000   1.0000   1.0000

          k =-0.5000 0.8375 0.7669 (  8580 PWs)   bands (ev):

   -13.3296 -13.3296 -13.3257 -13.3257 -13.3088 -13.3088 -13.3062 -13.3062
   -13.2984 -13.2984 -13.2860 -13.2860 -13.2782 -13.2782 -13.2630 -13.2630
   -13.2469 -13.2469 -13.2352 -13.2352  -4.9495  -4.9495  -4.4562  -4.4562
     0.6452   0.6452   1.4645   1.4645   3.5419   3.5419   4.3954   4.3954
     4.9779   4.9779   5.6885   5.6885   6.3621   6.3621   7.2096   7.2096

     occupation numbers 
     1.0000   1.0000   1.0000   1.0000   1.0000   1.0000   1.0000   1.0000
     1.0000   1.0000   1.0000   1.0000   1.0000   1.0000   1.0000   1.0000
     1.0000   1.0000   1.0000   1.0000   1.0000   1.0000   1.0000   1.0000
     1.0000   1.0000   1.0000   1.0000   1.0000   1.0000   1.0000   1.0000
     1.0000   1.0000   1.0000   1.0000   1.0000   1.0000   1.0000   1.0000

          k =-0.5000 0.8375 1.0737 (  8544 PWs)   bands (ev):

   -13.3312 -13.3312 -13.3276 -13.3276 -13.3081 -13.3081 -13.3061 -13.3061
   -13.2981 -13.2981 -13.2846 -13.2846 -13.2776 -13.2776 -13.2627 -13.2627
   -13.2471 -13.2471 -13.2349 -13.2349  -4.7839  -4.7839  -4.5222  -4.5222
     0.6265   0.6265   1.4867   1.4867   3.5553   3.5553   3.9265   3.9265
     4.9852   4.9852   5.3015   5.3015   6.3694   6.3694   6.8945   6.8945

     occupation numbers 
     1.0000   1.0000   1.0000   1.0000   1.0000   1.0000   1.0000   1.0000
     1.0000   1.0000   1.0000   1.0000   1.0000   1.0000   1.0000   1.0000
     1.0000   1.0000   1.0000   1.0000   1.0000   1.0000   1.0000   1.0000
     1.0000   1.0000   1.0000   1.0000   1.0000   1.0000   1.0000   1.0000
     1.0000   1.0000   1.0000   1.0000   1.0000   1.0000   1.0000   1.0000

          k =-0.5000 1.1726 0.1534 (  8578 PWs)   bands (ev):

   -13.3269 -13.3269 -13.3253 -13.3253 -13.3056 -13.3056 -13.3049 -13.3049
   -13.2951 -13.2951 -13.2902 -13.2902 -13.2763 -13.2763 -13.2706 -13.2706
   -13.2420 -13.2420 -13.2382 -13.2382  -4.8682  -4.8682  -4.5810  -4.5810
     0.5399   0.5399   0.8774   0.8774   4.8124   4.8124   5.1667   5.1667
     5.6733   5.6733   5.9276   5.9276   6.6145   6.6145   7.0038   7.0038

     occupation numbers 
     1.0000   1.0000   1.0000   1.0000   1.0000   1.0000   1.0000   1.0000
     1.0000   1.0000   1.0000   1.0000   1.0000   1.0000   1.0000   1.0000
     1.0000   1.0000   1.0000   1.0000   1.0000   1.0000   1.0000   1.0000
     1.0000   1.0000   1.0000   1.0000   1.0000   1.0000   1.0000   1.0000
     1.0000   1.0000   1.0000   1.0000   1.0000   1.0000   1.0000   1.0000

          k =-0.5000 1.1726 0.4602 (  8572 PWs)   bands (ev):

   -13.3291 -13.3291 -13.3276 -13.3276 -13.3054 -13.3054 -13.3044 -13.3044
   -13.2944 -13.2944 -13.2896 -13.2896 -13.2754 -13.2754 -13.2698 -13.2698
   -13.2420 -13.2420 -13.2381 -13.2381  -4.8001  -4.8001  -4.5482  -4.5482
     0.6707   0.6707   0.9751   0.9751   4.1565   4.1565   4.6975   4.6975
     5.2612   5.2612   5.7038   5.7038   6.4920   6.4920   6.9336   6.9336

     occupation numbers 
     1.0000   1.0000   1.0000   1.0000   1.0000   1.0000   1.0000   1.0000
     1.0000   1.0000   1.0000   1.0000   1.0000   1.0000   1.0000   1.0000
     1.0000   1.0000   1.0000   1.0000   1.0000   1.0000   1.0000   1.0000
     1.0000   1.0000   1.0000   1.0000   1.0000   1.0000   1.0000   1.0000
     1.0000   1.0000   1.0000   1.0000   1.0000   1.0000   1.0000   1.0000

          k =-0.5000 1.1726 0.7669 (  8570 PWs)   bands (ev):

   -13.3322 -13.3322 -13.3307 -13.3307 -13.3052 -13.3052 -13.3041 -13.3041
   -13.2935 -13.2935 -13.2887 -13.2887 -13.2740 -13.2740 -13.2688 -13.2688
   -13.2420 -13.2420 -13.2378 -13.2378  -4.6914  -4.6914  -4.5088  -4.5088
     0.8638   0.8638   1.1410   1.1410   3.6005   3.6005   4.1180   4.1180
     4.6914   4.6914   5.1544   5.1544   6.4359   6.4359   6.8111   6.8111

     occupation numbers 
     1.0000   1.0000   1.0000   1.0000   1.0000   1.0000   1.0000   1.0000
     1.0000   1.0000   1.0000   1.0000   1.0000   1.0000   1.0000   1.0000
     1.0000   1.0000   1.0000   1.0000   1.0000   1.0000   1.0000   1.0000
     1.0000   1.0000   1.0000   1.0000   1.0000   1.0000   1.0000   1.0000
     1.0000   1.0000   1.0000   1.0000   1.0000   1.0000   1.0000   1.0000

          k =-0.5000 1.1726 1.0737 (  8550 PWs)   bands (ev):

   -13.3343 -13.3343 -13.3329 -13.3329 -13.3051 -13.3051 -13.3040 -13.3040
   -13.2929 -13.2929 -13.2881 -13.2881 -13.2730 -13.2730 -13.2681 -13.2681
   -13.2419 -13.2419 -13.2376 -13.2376  -4.5941  -4.5941  -4.4973  -4.4973
     0.9838   0.9838   1.3092   1.3092   3.4193   3.4193   3.6641   3.6641
     4.3429   4.3429   4.6234   4.6234   6.5391   6.5391   6.7289   6.7289

     occupation numbers 
     1.0000   1.0000   1.0000   1.0000   1.0000   1.0000   1.0000   1.0000
     1.0000   1.0000   1.0000   1.0000   1.0000   1.0000   1.0000   1.0000
     1.0000   1.0000   1.0000   1.0000   1.0000   1.0000   1.0000   1.0000
     1.0000   1.0000   1.0000   1.0000   1.0000   1.0000   1.0000   1.0000
     1.0000   1.0000   1.0000   1.0000   1.0000   1.0000   1.0000   1.0000

     highest occupied level (ev):     7.8431

!    total energy              =    -827.74099819 Ry
     estimated scf accuracy    <          7.5E-09 Ry

     The total energy is the sum of the following terms:
     one-electron contribution =    -259.63936837 Ry
     hartree contribution      =     180.21901524 Ry
     xc contribution           =    -309.12675190 Ry
     ewald contribution        =    -439.07140100 Ry
     DFT-D3 Dispersion         =      -0.12249216 Ry

     convergence has been achieved in  11 iterations

     Forces acting on atoms (cartesian axes, Ry/au):

     atom    1 type  2   force =     0.01172477    0.00000000    0.00110968
     atom    2 type  1   force =    -0.01199794    0.00000000   -0.00041425
     atom    3 type  2   force =    -0.01172477    0.00000000    0.00110968
     atom    4 type  1   force =     0.01199794    0.00000000   -0.00041425
     atom    5 type  2   force =     0.01172477    0.00000000   -0.00110968
     atom    6 type  1   force =    -0.01199794    0.00000000    0.00041425
     atom    7 type  2   force =    -0.01172477    0.00000000   -0.00110968
     atom    8 type  1   force =     0.01199794   -0.00000000    0.00041425
     The non-local contrib.  to forces
     atom    1 type  2   force =    -0.10676163    0.00000000    0.11229301
     atom    2 type  1   force =     0.35298063    0.00000000    0.30434023
     atom    3 type  2   force =     0.10676163   -0.00000000    0.11229301
     atom    4 type  1   force =    -0.35298063    0.00000000    0.30434023
     atom    5 type  2   force =    -0.10676163   -0.00000000   -0.11229301
     atom    6 type  1   force =     0.35298063    0.00000000   -0.30434023
     atom    7 type  2   force =     0.10676163    0.00000000   -0.11229301
     atom    8 type  1   force =    -0.35298063    0.00000000   -0.30434023
     The ionic contribution  to forces
     atom    1 type  2   force =     1.38548125   -0.00000000   -1.18796558
     atom    2 type  1   force =    -0.66557366    0.00000000   -0.59818750
     atom    3 type  2   force =    -1.38548125    0.00000000   -1.18796558
     atom    4 type  1   force =     0.66557366    0.00000000   -0.59818750
     atom    5 type  2   force =     1.38548125    0.00000000    1.18796558
     atom    6 type  1   force =    -0.66557366    0.00000000    0.59818750
     atom    7 type  2   force =    -1.38548125   -0.00000000    1.18796558
     atom    8 type  1   force =     0.66557366    0.00000000    0.59818750
     The local contribution  to forces
     atom    1 type  2   force =    -1.27771229    0.00000000    1.08781530
     atom    2 type  1   force =     0.30617657    0.00000000    0.29788348
     atom    3 type  2   force =     1.27771229   -0.00000000    1.08781530
     atom    4 type  1   force =    -0.30617657    0.00000000    0.29788348
     atom    5 type  2   force =    -1.27771229    0.00000000   -1.08781530
     atom    6 type  1   force =     0.30617657    0.00000000   -0.29788348
     atom    7 type  2   force =     1.27771229    0.00000000   -1.08781530
     atom    8 type  1   force =    -0.30617657    0.00000000   -0.29788348
     The core correction contribution to forces
     atom    1 type  2   force =     0.01157715   -0.00000000   -0.01249561
     atom    2 type  1   force =    -0.00481856    0.00000000   -0.00542789
     atom    3 type  2   force =    -0.01157715   -0.00000000   -0.01249561
     atom    4 type  1   force =     0.00481856    0.00000000   -0.00542789
     atom    5 type  2   force =     0.01157715   -0.00000000    0.01249561
     atom    6 type  1   force =    -0.00481856   -0.00000000    0.00542789
     atom    7 type  2   force =    -0.01157715    0.00000000    0.01249561
     atom    8 type  1   force =     0.00481856    0.00000000    0.00542789
     The Hubbard contrib.    to forces
     atom    1 type  2   force =     0.00000000    0.00000000    0.00000000
     atom    2 type  1   force =     0.00000000    0.00000000    0.00000000
     atom    3 type  2   force =     0.00000000    0.00000000    0.00000000
     atom    4 type  1   force =     0.00000000    0.00000000    0.00000000
     atom    5 type  2   force =     0.00000000    0.00000000    0.00000000
     atom    6 type  1   force =     0.00000000    0.00000000    0.00000000
     atom    7 type  2   force =     0.00000000    0.00000000    0.00000000
     atom    8 type  1   force =     0.00000000    0.00000000    0.00000000
     The SCF correction term to forces
     atom    1 type  2   force =     0.00000119    0.00000000    0.00000479
     atom    2 type  1   force =    -0.00006488   -0.00000000   -0.00003913
     atom    3 type  2   force =    -0.00000119   -0.00000000    0.00000479
     atom    4 type  1   force =     0.00006488   -0.00000000   -0.00003913
     atom    5 type  2   force =     0.00000119   -0.00000000   -0.00000479
     atom    6 type  1   force =    -0.00006488   -0.00000000    0.00003913
     atom    7 type  2   force =    -0.00000119   -0.00000000   -0.00000479
     atom    8 type  1   force =     0.00006488    0.00000000    0.00003913

     DFT-D3 dispersion contribution to forces:
     atom    1 type  2   force =    -0.00086090    0.00000000    0.00145776
     atom    2 type  1   force =    -0.00069805    0.00000000    0.00101657
     atom    3 type  2   force =     0.00086090   -0.00000000    0.00145776
     atom    4 type  1   force =     0.00069805   -0.00000000    0.00101657
     atom    5 type  2   force =    -0.00086090   -0.00000000   -0.00145776
     atom    6 type  1   force =    -0.00069805    0.00000000   -0.00101657
     atom    7 type  2   force =     0.00086090   -0.00000000   -0.00145776
     atom    8 type  1   force =     0.00069805   -0.00000000   -0.00101657

     Total force =     0.033635     Total SCF correction =     0.000152

     DFT-D3 dispersion Force =     0.004189

     Writing all to output data dir ./tmp/SnSe_pnma.save/ :
     XML data file, charge density, pseudopotentials, collected wavefunctions
 
     init_run     :      2.21s CPU      2.43s WALL (       1 calls)
     electrons    :     51.18s CPU     54.51s WALL (       1 calls)
     forces       :      0.94s CPU      1.10s WALL (       1 calls)
     force_dftd3  :      0.06s CPU      0.06s WALL (       1 calls)

     Called by init_run:
     wfcinit      :      1.29s CPU      1.34s WALL (       1 calls)
     wfcinit:atom :      0.02s CPU      0.02s WALL (      11 calls)
     wfcinit:wfcr :      1.14s CPU      1.16s WALL (      11 calls)
     potinit      :      0.21s CPU      0.23s WALL (       1 calls)
     hinit0       :      0.25s CPU      0.27s WALL (       1 calls)

     Called by electrons:
     c_bands      :     37.75s CPU     38.05s WALL (      11 calls)
     sum_band     :      8.98s CPU     10.38s WALL (      11 calls)
     v_of_rho     :      1.70s CPU      1.75s WALL (      12 calls)
     v_h          :      0.13s CPU      0.13s WALL (      12 calls)
     v_xc         :      1.71s CPU      1.75s WALL (      13 calls)
     newd         :      2.88s CPU      4.44s WALL (      12 calls)
     mix_rho      :      0.17s CPU      0.19s WALL (      11 calls)
     energy_dftd3 :      0.04s CPU      0.04s WALL (       1 calls)

     Called by c_bands:
     init_us_2    :      1.17s CPU      1.17s WALL (     264 calls)
     cegterg      :     33.96s CPU     34.15s WALL (     121 calls)

     Called by sum_band:
     sum_band:wei :      0.00s CPU      0.00s WALL (      11 calls)
     sum_band:loo :      5.78s CPU      5.82s WALL (      11 calls)
     sum_band:buf :      0.07s CPU      0.07s WALL (     121 calls)
     sum_band:ini :      0.50s CPU      0.50s WALL (     121 calls)
     sum_band:cal :      0.67s CPU      0.67s WALL (     121 calls)
     sum_band:bec :      0.01s CPU      0.01s WALL (     121 calls)
     addusdens    :      2.87s CPU      4.21s WALL (      11 calls)
                                        0.00s GPU  (      11 calls)
     addusd:skk   :      0.01s CPU      0.01s WALL (      22 calls)
                                        0.00s GPU  (      22 calls)

     Called by *egterg:
     cdiaghg      :      0.89s CPU      0.89s WALL (     565 calls)
     cegterg:over :      1.78s CPU      1.78s WALL (     444 calls)
     cegterg:upda :      1.10s CPU      1.11s WALL (     444 calls)
     cegterg:last :      2.55s CPU      2.55s WALL (     323 calls)
     h_psi        :     25.16s CPU     25.32s WALL (     576 calls)
     s_psi        :      2.53s CPU      2.55s WALL (     576 calls)
     g_psi        :      0.11s CPU      0.11s WALL (     444 calls)

     Called by h_psi:
     h_psi:calbec :      2.34s CPU      2.35s WALL (     576 calls)
     vloc_psi     :     20.02s CPU     20.16s WALL (     576 calls)
     add_vuspsi   :      2.57s CPU      2.58s WALL (     576 calls)

     General routines
     calbec       :      3.25s CPU      3.26s WALL (     741 calls)
     fft          :      0.88s CPU      0.90s WALL (     165 calls)
     ffts         :      0.02s CPU      0.02s WALL (      23 calls)
     fftw         :     12.17s CPU     12.26s WALL (   36694 calls)
     interpolate  :      0.09s CPU      0.09s WALL (      12 calls)
 
     Parallel routines
 
     PWSCF        :     54.58s CPU     58.95s WALL

 
   This run was terminated on:  17:43:51  20May2026            

=------------------------------------------------------------------------------=
   JOB DONE.
=------------------------------------------------------------------------------=
