
     Program PWSCF v.7.3.1 starts on 20May2026 at 16:18:46 

     This program is part of the open-source Quantum ESPRESSO suite
     for quantum simulation of materials; please cite
         "P. Giannozzi et al., J. Phys.:Condens. Matter 21 395502 (2009);
         "P. Giannozzi et al., J. Phys.:Condens. Matter 29 465901 (2017);
         "P. Giannozzi et al., J. Chem. Phys. 152 154105 (2020);
          URL http://www.quantum-espresso.org", 
     in publications or presentations arising from this work. More details at
     http://www.quantum-espresso.org/quote

     Parallel version (MPI & OpenMP), running on       6 processor cores
     Number of MPI processes:                 6
     Threads/MPI process:                     1

     MPI processes distributed on     1 nodes
     10624 MiB available memory on the printing compute node when the environment starts
 
     Waiting for input...
     Reading input from standard input

     Current dimensions of program PWSCF are:
     Max number of different atomic species (ntypx) = 10
     Max number of k-points (npk) =  40000
     Max angular momentum in pseudopotentials (lmaxx) =  4
 
     K-points division:     npool     =       3
     R & G space division:  proc/nbgrp/npool/nimage =       2
     Subspace diagonalization in iterative solution of the eigenvalue problem:
     a serial algorithm will be used

 
     Parallelization info
     --------------------
     sticks:   dense  smooth     PW     G-vecs:    dense   smooth      PW
     Min        3591    1436    412               146731    37169    5686
     Max        3592    1437    413               146732    37170    5687
     Sum        7183    2873    825               293463    74339   11373
 
     Using Slab Decomposition
 


     bravais-lattice index     =            8
     lattice parameter (alat)  =      22.9035  a.u.
     unit-cell volume          =    1554.2365 (a.u.)^3
     number of atoms/cell      =            8
     number of atomic types    =            2
     number of electrons       =        80.00
     number of Kohn-Sham states=           40
     kinetic-energy cutoff     =      50.0000  Ry
     charge density cutoff     =     500.0000  Ry
     scf convergence threshold =      1.0E-08
     mixing beta               =       0.7000
     number of iterations used =            8  plain     mixing
     Exchange-correlation= SLA  PW   PBE  PBE
                           (   1   4   3   4   0   0   0)

     celldm(1)=  22.903481  celldm(2)=   0.344175  celldm(3)=   0.375866
     celldm(4)=   0.000000  celldm(5)=   0.000000  celldm(6)=   0.000000

     crystal axes: (cart. coord. in units of alat)
               a(1) = (   1.000000   0.000000   0.000000 )  
               a(2) = (   0.000000   0.344175   0.000000 )  
               a(3) = (   0.000000   0.000000   0.375866 )  

     reciprocal axes: (cart. coord. in units 2 pi/alat)
               b(1) = (  1.000000  0.000000  0.000000 )  
               b(2) = (  0.000000  2.905499  0.000000 )  
               b(3) = (  0.000000  0.000000  2.660520 )  


     PseudoPot. # 1 for Sn read from file:
     ../pseudo/Sn_pbe_v1.uspp.F.UPF
     MD5 check sum: 4cf58ce39ec5d5d420df3dd08604eb00
     Pseudo is Ultrasoft + core correction, Zval = 14.0
     Generated by new atomic code, or converted to UPF format
     Using radial grid of  891 points,  6 beta functions with: 
                l(1) =   0
                l(2) =   0
                l(3) =   1
                l(4) =   1
                l(5) =   2
                l(6) =   2
     Q(r) pseudized with  6 coefficients,  rinner =    1.200   1.200   1.200
                                                       1.200   1.200

     PseudoPot. # 2 for Se read from file:
     ../pseudo/Se_pbe_v1.uspp.F.UPF
     MD5 check sum: 1b3568f3a8ae88f9a2a0ad0698632c85
     Pseudo is Ultrasoft + core correction, Zval =  6.0
     Generated by new atomic code, or converted to UPF format
     Using radial grid of  877 points,  6 beta functions with: 
                l(1) =   0
                l(2) =   0
                l(3) =   1
                l(4) =   1
                l(5) =   2
                l(6) =   2
     Q(r) pseudized with  8 coefficients,  rinner =    1.300   1.300   1.300
                                                       1.300   1.300

     atomic species   valence    mass     pseudopotential
     Sn               14.00   118.71000     Sn( 1.00)
     Se                6.00    78.97100     Se( 1.00)

      8 Sym. Ops., with inversion, found ( 6 have fractional translation)


                                    s                        frac. trans.

      isym =  1     identity                                     

 cryst.   s( 1) = (     1          0          0      )
                  (     0          1          0      )
                  (     0          0          1      )

 cart.    s( 1) = (  1.0000000  0.0000000  0.0000000 )
                  (  0.0000000  1.0000000  0.0000000 )
                  (  0.0000000  0.0000000  1.0000000 )


      isym =  2     180 deg rotation - cart. axis [0,0,1]        

 cryst.   s( 2) = (    -1          0          0      )    f =(  0.5000000 )
                  (     0         -1          0      )       (  0.0000000 )
                  (     0          0          1      )       ( -0.5000000 )

 cart.    s( 2) = ( -1.0000000  0.0000000  0.0000000 )    f =(  0.5000000 )
                  (  0.0000000 -1.0000000  0.0000000 )       (  0.0000000 )
                  (  0.0000000  0.0000000  1.0000000 )       ( -0.1879332 )


      isym =  3     180 deg rotation - cart. axis [0,1,0]        

 cryst.   s( 3) = (    -1          0          0      )    f =(  0.0000000 )
                  (     0          1          0      )       ( -0.5000000 )
                  (     0          0         -1      )       (  0.0000000 )

 cart.    s( 3) = ( -1.0000000  0.0000000  0.0000000 )    f =(  0.0000000 )
                  (  0.0000000  1.0000000  0.0000000 )       ( -0.1720875 )
                  (  0.0000000  0.0000000 -1.0000000 )       (  0.0000000 )


      isym =  4     180 deg rotation - cart. axis [1,0,0]        

 cryst.   s( 4) = (     1          0          0      )    f =(  0.5000000 )
                  (     0         -1          0      )       (  0.5000000 )
                  (     0          0         -1      )       (  0.5000000 )

 cart.    s( 4) = (  1.0000000  0.0000000  0.0000000 )    f =(  0.5000000 )
                  (  0.0000000 -1.0000000  0.0000000 )       (  0.1720875 )
                  (  0.0000000  0.0000000 -1.0000000 )       (  0.1879332 )


      isym =  5     inversion                                    

 cryst.   s( 5) = (    -1          0          0      )
                  (     0         -1          0      )
                  (     0          0         -1      )

 cart.    s( 5) = ( -1.0000000  0.0000000  0.0000000 )
                  (  0.0000000 -1.0000000  0.0000000 )
                  (  0.0000000  0.0000000 -1.0000000 )


      isym =  6     inv. 180 deg rotation - cart. axis [0,0,1]   

 cryst.   s( 6) = (     1          0          0      )    f =(  0.5000000 )
                  (     0          1          0      )       (  0.0000000 )
                  (     0          0         -1      )       (  0.5000000 )

 cart.    s( 6) = (  1.0000000  0.0000000  0.0000000 )    f =(  0.5000000 )
                  (  0.0000000  1.0000000  0.0000000 )       (  0.0000000 )
                  (  0.0000000  0.0000000 -1.0000000 )       (  0.1879332 )


      isym =  7     inv. 180 deg rotation - cart. axis [0,1,0]   

 cryst.   s( 7) = (     1          0          0      )    f =(  0.0000000 )
                  (     0         -1          0      )       (  0.5000000 )
                  (     0          0          1      )       (  0.0000000 )

 cart.    s( 7) = (  1.0000000  0.0000000  0.0000000 )    f =(  0.0000000 )
                  (  0.0000000 -1.0000000  0.0000000 )       (  0.1720875 )
                  (  0.0000000  0.0000000  1.0000000 )       (  0.0000000 )


      isym =  8     inv. 180 deg rotation - cart. axis [1,0,0]   

 cryst.   s( 8) = (    -1          0          0      )    f =(  0.5000000 )
                  (     0          1          0      )       ( -0.5000000 )
                  (     0          0          1      )       ( -0.5000000 )

 cart.    s( 8) = ( -1.0000000  0.0000000  0.0000000 )    f =(  0.5000000 )
                  (  0.0000000  1.0000000  0.0000000 )       ( -0.1720875 )
                  (  0.0000000  0.0000000  1.0000000 )       ( -0.1879332 )


     point group D_2h (mmm) 
     there are  8 classes
     the character table:

       E     C2    C2'   C2''  i     s_v   s_v'  s_v''
A_g    1.00  1.00  1.00  1.00  1.00  1.00  1.00  1.00
B_1g   1.00  1.00 -1.00 -1.00  1.00  1.00 -1.00 -1.00
B_2g   1.00 -1.00  1.00 -1.00  1.00 -1.00  1.00 -1.00
B_3g   1.00 -1.00 -1.00  1.00  1.00 -1.00 -1.00  1.00
A_u    1.00  1.00  1.00  1.00 -1.00 -1.00 -1.00 -1.00
B_1u   1.00  1.00 -1.00 -1.00 -1.00 -1.00  1.00  1.00
B_2u   1.00 -1.00  1.00 -1.00 -1.00  1.00 -1.00  1.00
B_3u   1.00 -1.00 -1.00  1.00 -1.00  1.00  1.00 -1.00

     the symmetry operations in each class and the name of the first element:

     E        1
          identity                                               
     C2       2
          180 deg rotation - cart. axis [0,0,1]                  
     C2'      4
          180 deg rotation - cart. axis [1,0,0]                  
     C2''     3
          180 deg rotation - cart. axis [0,1,0]                  
     i        5
          inversion                                              
     s_v      6
          inv. 180 deg rotation - cart. axis [0,0,1]             
     s_v'     8
          inv. 180 deg rotation - cart. axis [1,0,0]             
     s_v''    7
          inv. 180 deg rotation - cart. axis [0,1,0]             

   Cartesian axes

     site n.     atom                  positions (alat units)
         1        Se     tau(   1) = (   0.8549563   0.0860437   0.1816367  )
         2        Sn     tau(   2) = (   0.1165395   0.0860437   0.0422049  )
         3        Se     tau(   3) = (   0.6450437   0.2581312   0.3695699  )
         4        Sn     tau(   4) = (   0.3834605   0.2581312   0.2301381  )
         5        Se     tau(   5) = (   0.3549563   0.0860437   0.0062965  )
         6        Sn     tau(   6) = (   0.6165395   0.0860437   0.1457283  )
         7        Se     tau(   7) = (   0.1450437   0.2581312   0.1942297  )
         8        Sn     tau(   8) = (   0.8834605   0.2581312   0.3336614  )

     --------------------------------------------
     DFT-D3 Dispersion Correction (3-body terms):
     --------------------------------------------
       Reference C6 values for interpolation: 

         atom   Coordination number   C6
         Se         0.000           427.35
         Se         0.990           427.57
         Se         1.981           421.05
         Sn         0.000          1255.14
         Sn         0.951          1084.09
         Sn         1.950          1010.83
         Sn         2.926           818.29
         Sn         3.912           672.20

       Values used:

         atom   Coordination number  R0_AB[au]  C6      C8
         Se         3.192            3.332    421.05  29958.36
         Sn         3.725            3.957    683.47  85783.29
         Se         3.192            3.332    421.05  29958.36
         Sn         3.725            3.957    683.47  85783.29
         Se         3.192            3.332    421.05  29958.36
         Sn         3.725            3.957    683.47  85783.29
         Se         3.192            3.332    421.05  29958.36
         Sn         3.725            3.957    683.47  85783.29

         Molecular C6 ( Ry / a.u.^6 ) =     34815.31


   Crystallographic axes

     site n.     atom                  positions (cryst. coord.)
         1        Se     tau(   1) = (  0.8549563  0.2500000  0.4832481  )
         2        Sn     tau(   2) = (  0.1165395  0.2500000  0.1122870  )
         3        Se     tau(   3) = (  0.6450437  0.7500000  0.9832481  )
         4        Sn     tau(   4) = (  0.3834605  0.7500000  0.6122870  )
         5        Se     tau(   5) = (  0.3549563  0.2500000  0.0167519  )
         6        Sn     tau(   6) = (  0.6165395  0.2500000  0.3877130  )
         7        Se     tau(   7) = (  0.1450437  0.7500000  0.5167519  )
         8        Sn     tau(   8) = (  0.8834605  0.7500000  0.8877130  )

     number of k points=    32
                       cart. coord. in units 2pi/alat
        k(    1) = (   0.1666667   0.1815937   0.1662825), wk =   0.0833333
        k(    2) = (   0.1666667   0.1815937   0.4988475), wk =   0.0833333
        k(    3) = (   0.1666667   0.1815937   0.8314126), wk =   0.0833333
        k(    4) = (   0.1666667   0.1815937   1.1639776), wk =   0.0833333
        k(    5) = (   0.1666667   0.5447811   0.1662825), wk =   0.0833333
        k(    6) = (   0.1666667   0.5447811   0.4988475), wk =   0.0833333
        k(    7) = (   0.1666667   0.5447811   0.8314126), wk =   0.0833333
        k(    8) = (   0.1666667   0.5447811   1.1639776), wk =   0.0833333
        k(    9) = (   0.1666667   0.9079685   0.1662825), wk =   0.0833333
        k(   10) = (   0.1666667   0.9079685   0.4988475), wk =   0.0833333
        k(   11) = (   0.1666667   0.9079685   0.8314126), wk =   0.0833333
        k(   12) = (   0.1666667   0.9079685   1.1639776), wk =   0.0833333
        k(   13) = (   0.1666667   1.2711560   0.1662825), wk =   0.0833333
        k(   14) = (   0.1666667   1.2711560   0.4988475), wk =   0.0833333
        k(   15) = (   0.1666667   1.2711560   0.8314126), wk =   0.0833333
        k(   16) = (   0.1666667   1.2711560   1.1639776), wk =   0.0833333
        k(   17) = (  -0.5000000   0.1815937   0.1662825), wk =   0.0416667
        k(   18) = (  -0.5000000   0.1815937   0.4988475), wk =   0.0416667
        k(   19) = (  -0.5000000   0.1815937   0.8314126), wk =   0.0416667
        k(   20) = (  -0.5000000   0.1815937   1.1639776), wk =   0.0416667
        k(   21) = (  -0.5000000   0.5447811   0.1662825), wk =   0.0416667
        k(   22) = (  -0.5000000   0.5447811   0.4988475), wk =   0.0416667
        k(   23) = (  -0.5000000   0.5447811   0.8314126), wk =   0.0416667
        k(   24) = (  -0.5000000   0.5447811   1.1639776), wk =   0.0416667
        k(   25) = (  -0.5000000   0.9079685   0.1662825), wk =   0.0416667
        k(   26) = (  -0.5000000   0.9079685   0.4988475), wk =   0.0416667
        k(   27) = (  -0.5000000   0.9079685   0.8314126), wk =   0.0416667
        k(   28) = (  -0.5000000   0.9079685   1.1639776), wk =   0.0416667
        k(   29) = (  -0.5000000   1.2711560   0.1662825), wk =   0.0416667
        k(   30) = (  -0.5000000   1.2711560   0.4988475), wk =   0.0416667
        k(   31) = (  -0.5000000   1.2711560   0.8314126), wk =   0.0416667
        k(   32) = (  -0.5000000   1.2711560   1.1639776), wk =   0.0416667

                       cryst. coord.
        k(    1) = (   0.1666667   0.0625000   0.0625000), wk =   0.0833333
        k(    2) = (   0.1666667   0.0625000   0.1875000), wk =   0.0833333
        k(    3) = (   0.1666667   0.0625000   0.3125000), wk =   0.0833333
        k(    4) = (   0.1666667   0.0625000   0.4375000), wk =   0.0833333
        k(    5) = (   0.1666667   0.1875000   0.0625000), wk =   0.0833333
        k(    6) = (   0.1666667   0.1875000   0.1875000), wk =   0.0833333
        k(    7) = (   0.1666667   0.1875000   0.3125000), wk =   0.0833333
        k(    8) = (   0.1666667   0.1875000   0.4375000), wk =   0.0833333
        k(    9) = (   0.1666667   0.3125000   0.0625000), wk =   0.0833333
        k(   10) = (   0.1666667   0.3125000   0.1875000), wk =   0.0833333
        k(   11) = (   0.1666667   0.3125000   0.3125000), wk =   0.0833333
        k(   12) = (   0.1666667   0.3125000   0.4375000), wk =   0.0833333
        k(   13) = (   0.1666667   0.4375000   0.0625000), wk =   0.0833333
        k(   14) = (   0.1666667   0.4375000   0.1875000), wk =   0.0833333
        k(   15) = (   0.1666667   0.4375000   0.3125000), wk =   0.0833333
        k(   16) = (   0.1666667   0.4375000   0.4375000), wk =   0.0833333
        k(   17) = (  -0.5000000   0.0625000   0.0625000), wk =   0.0416667
        k(   18) = (  -0.5000000   0.0625000   0.1875000), wk =   0.0416667
        k(   19) = (  -0.5000000   0.0625000   0.3125000), wk =   0.0416667
        k(   20) = (  -0.5000000   0.0625000   0.4375000), wk =   0.0416667
        k(   21) = (  -0.5000000   0.1875000   0.0625000), wk =   0.0416667
        k(   22) = (  -0.5000000   0.1875000   0.1875000), wk =   0.0416667
        k(   23) = (  -0.5000000   0.1875000   0.3125000), wk =   0.0416667
        k(   24) = (  -0.5000000   0.1875000   0.4375000), wk =   0.0416667
        k(   25) = (  -0.5000000   0.3125000   0.0625000), wk =   0.0416667
        k(   26) = (  -0.5000000   0.3125000   0.1875000), wk =   0.0416667
        k(   27) = (  -0.5000000   0.3125000   0.3125000), wk =   0.0416667
        k(   28) = (  -0.5000000   0.3125000   0.4375000), wk =   0.0416667
        k(   29) = (  -0.5000000   0.4375000   0.0625000), wk =   0.0416667
        k(   30) = (  -0.5000000   0.4375000   0.1875000), wk =   0.0416667
        k(   31) = (  -0.5000000   0.4375000   0.3125000), wk =   0.0416667
        k(   32) = (  -0.5000000   0.4375000   0.4375000), wk =   0.0416667

     Dense  grid:   293463 G-vectors     FFT dimensions: ( 180,  60,  64)

     Smooth grid:    74339 G-vectors     FFT dimensions: ( 108,  36,  40)

     Dynamical RAM for                 wfc:       2.83 MB

     Dynamical RAM for     wfc (w. buffer):      33.98 MB

     Dynamical RAM for           str. fact:       4.48 MB

     Dynamical RAM for           local pot:       0.00 MB

     Dynamical RAM for          nlocal pot:      10.19 MB

     Dynamical RAM for                qrad:       3.59 MB

     Dynamical RAM for          rho,v,vnew:      14.63 MB

     Dynamical RAM for               rhoin:       4.88 MB

     Dynamical RAM for            rho*nmix:      35.82 MB

     Dynamical RAM for           G-vectors:       8.68 MB

     Dynamical RAM for          h,s,v(r/c):       0.29 MB

     Dynamical RAM for          <psi|beta>:       0.09 MB

     Dynamical RAM for                 psi:       5.66 MB

     Dynamical RAM for                hpsi:       5.66 MB

     Dynamical RAM for                spsi:       5.66 MB

     Dynamical RAM for      wfcinit/wfcrot:       7.42 MB

     Dynamical RAM for           addusdens:     143.29 MB

     Dynamical RAM for          addusforce:     147.41 MB

     Estimated static dynamical RAM per process >     100.32 MB

     Estimated max dynamical RAM per process >     283.55 MB

     Estimated total dynamical RAM >       1.52 GB

     Initial potential from superposition of free atoms

     starting charge      75.9995, renormalised to      80.0000
     Starting wfcs are   52 randomized atomic wfcs

     total cpu time spent up to now is        3.3 secs

     Self-consistent Calculation

     iteration #  1     ecut=    50.00 Ry     beta= 0.70
     Davidson diagonalization with overlap

---- Real-time Memory Report at c_bands before calling an iterative solver
           342 MiB given to the printing process from OS
             0 MiB allocation reported by mallinfo(arena+hblkhd)
          9770 MiB available memory on the node where the printing process lives
------------------
     ethr =  1.00E-02,  avg # of iterations =  2.0

     total cpu time spent up to now is        8.5 secs

     total energy              =    -826.59961745 Ry
     estimated scf accuracy    <       2.73499128 Ry

     iteration #  2     ecut=    50.00 Ry     beta= 0.70
     Davidson diagonalization with overlap

---- Real-time Memory Report at c_bands before calling an iterative solver
           437 MiB given to the printing process from OS
             0 MiB allocation reported by mallinfo(arena+hblkhd)
          9431 MiB available memory on the node where the printing process lives
------------------
     ethr =  3.42E-03,  avg # of iterations =  3.0

     total cpu time spent up to now is       14.5 secs

     total energy              =    -827.50097244 Ry
     estimated scf accuracy    <       1.10098868 Ry

     iteration #  3     ecut=    50.00 Ry     beta= 0.70
     Davidson diagonalization with overlap

---- Real-time Memory Report at c_bands before calling an iterative solver
           455 MiB given to the printing process from OS
             0 MiB allocation reported by mallinfo(arena+hblkhd)
          9326 MiB available memory on the node where the printing process lives
------------------
     ethr =  1.38E-03,  avg # of iterations =  2.8

     total cpu time spent up to now is       19.6 secs

     total energy              =    -827.72871190 Ry
     estimated scf accuracy    <       0.01419087 Ry

     iteration #  4     ecut=    50.00 Ry     beta= 0.70
     Davidson diagonalization with overlap

---- Real-time Memory Report at c_bands before calling an iterative solver
           475 MiB given to the printing process from OS
             0 MiB allocation reported by mallinfo(arena+hblkhd)
          9289 MiB available memory on the node where the printing process lives
------------------
     ethr =  1.77E-05,  avg # of iterations =  4.9

     total cpu time spent up to now is       26.4 secs

     total energy              =    -827.73686482 Ry
     estimated scf accuracy    <       0.00612655 Ry

     iteration #  5     ecut=    50.00 Ry     beta= 0.70
     Davidson diagonalization with overlap

---- Real-time Memory Report at c_bands before calling an iterative solver
           478 MiB given to the printing process from OS
             0 MiB allocation reported by mallinfo(arena+hblkhd)
          9280 MiB available memory on the node where the printing process lives
------------------
     ethr =  7.66E-06,  avg # of iterations =  2.2

     total cpu time spent up to now is       31.3 secs

     total energy              =    -827.73790867 Ry
     estimated scf accuracy    <       0.00070087 Ry

     iteration #  6     ecut=    50.00 Ry     beta= 0.70
     Davidson diagonalization with overlap

---- Real-time Memory Report at c_bands before calling an iterative solver
           481 MiB given to the printing process from OS
             0 MiB allocation reported by mallinfo(arena+hblkhd)
          9278 MiB available memory on the node where the printing process lives
------------------
     ethr =  8.76E-07,  avg # of iterations =  4.4

     total cpu time spent up to now is       37.2 secs

     total energy              =    -827.73801726 Ry
     estimated scf accuracy    <       0.00110342 Ry

     iteration #  7     ecut=    50.00 Ry     beta= 0.70
     Davidson diagonalization with overlap

---- Real-time Memory Report at c_bands before calling an iterative solver
           485 MiB given to the printing process from OS
             0 MiB allocation reported by mallinfo(arena+hblkhd)
          9272 MiB available memory on the node where the printing process lives
------------------
     ethr =  8.76E-07,  avg # of iterations =  2.9

     total cpu time spent up to now is       42.5 secs

     total energy              =    -827.73816914 Ry
     estimated scf accuracy    <       0.00002659 Ry

     iteration #  8     ecut=    50.00 Ry     beta= 0.70
     Davidson diagonalization with overlap

---- Real-time Memory Report at c_bands before calling an iterative solver
           487 MiB given to the printing process from OS
             0 MiB allocation reported by mallinfo(arena+hblkhd)
          9269 MiB available memory on the node where the printing process lives
------------------
     ethr =  3.32E-08,  avg # of iterations =  5.0

     total cpu time spent up to now is       48.9 secs

     total energy              =    -827.73819006 Ry
     estimated scf accuracy    <       0.00002476 Ry

     iteration #  9     ecut=    50.00 Ry     beta= 0.70
     Davidson diagonalization with overlap

---- Real-time Memory Report at c_bands before calling an iterative solver
           492 MiB given to the printing process from OS
             0 MiB allocation reported by mallinfo(arena+hblkhd)
          9263 MiB available memory on the node where the printing process lives
------------------
     ethr =  3.09E-08,  avg # of iterations =  2.0

     total cpu time spent up to now is       53.8 secs

     total energy              =    -827.73819221 Ry
     estimated scf accuracy    <       0.00000189 Ry

     iteration # 10     ecut=    50.00 Ry     beta= 0.70
     Davidson diagonalization with overlap

---- Real-time Memory Report at c_bands before calling an iterative solver
           493 MiB given to the printing process from OS
             0 MiB allocation reported by mallinfo(arena+hblkhd)
          9261 MiB available memory on the node where the printing process lives
------------------
     ethr =  2.36E-09,  avg # of iterations =  5.2

     total cpu time spent up to now is       60.7 secs

     total energy              =    -827.73819348 Ry
     estimated scf accuracy    <       0.00000024 Ry

     iteration # 11     ecut=    50.00 Ry     beta= 0.70
     Davidson diagonalization with overlap

---- Real-time Memory Report at c_bands before calling an iterative solver
           494 MiB given to the printing process from OS
             0 MiB allocation reported by mallinfo(arena+hblkhd)
          9261 MiB available memory on the node where the printing process lives
------------------
     ethr =  3.02E-10,  avg # of iterations =  3.5

     total cpu time spent up to now is       66.9 secs

     total energy              =    -827.73819350 Ry
     estimated scf accuracy    <       0.00000011 Ry

     iteration # 12     ecut=    50.00 Ry     beta= 0.70
     Davidson diagonalization with overlap

---- Real-time Memory Report at c_bands before calling an iterative solver
           495 MiB given to the printing process from OS
             0 MiB allocation reported by mallinfo(arena+hblkhd)
          9260 MiB available memory on the node where the printing process lives
------------------
     ethr =  1.35E-10,  avg # of iterations =  3.2

     total cpu time spent up to now is       72.0 secs

     End of self-consistent calculation

          k = 0.1667 0.1816 0.1663 (  9265 PWs)   bands (ev):

   -14.3850 -14.3775 -14.3734 -14.3692 -14.3663 -14.3648 -14.3640 -14.3633
   -14.3560 -14.3490 -14.3461 -14.3452 -14.3430 -14.3395 -14.3274 -14.3236
   -14.3194 -14.3164 -14.3132 -14.3100  -6.3054  -6.0789  -5.5141  -5.2178
     0.0670   0.7812   1.4199   1.8534   2.6825   3.8232   4.0002   4.2150
     4.4241   4.4902   4.9503   5.2062   5.4084   5.6664   6.2977   6.5819

     occupation numbers 
     1.0000   1.0000   1.0000   1.0000   1.0000   1.0000   1.0000   1.0000
     1.0000   1.0000   1.0000   1.0000   1.0000   1.0000   1.0000   1.0000
     1.0000   1.0000   1.0000   1.0000   1.0000   1.0000   1.0000   1.0000
     1.0000   1.0000   1.0000   1.0000   1.0000   1.0000   1.0000   1.0000
     1.0000   1.0000   1.0000   1.0000   1.0000   1.0000   1.0000   1.0000

          k = 0.1667 0.1816 0.4988 (  9264 PWs)   bands (ev):

   -14.3841 -14.3774 -14.3735 -14.3695 -14.3662 -14.3656 -14.3642 -14.3641
   -14.3542 -14.3483 -14.3460 -14.3455 -14.3416 -14.3380 -14.3277 -14.3243
   -14.3191 -14.3165 -14.3131 -14.3103  -6.1985  -5.9814  -5.4982  -5.2296
    -0.2605   0.4730   0.9682   1.4831   2.7582   3.8946   4.1033   4.4910
     4.7509   4.9738   5.0151   5.3076   5.7809   6.0880   6.2140   6.5322

     occupation numbers 
     1.0000   1.0000   1.0000   1.0000   1.0000   1.0000   1.0000   1.0000
     1.0000   1.0000   1.0000   1.0000   1.0000   1.0000   1.0000   1.0000
     1.0000   1.0000   1.0000   1.0000   1.0000   1.0000   1.0000   1.0000
     1.0000   1.0000   1.0000   1.0000   1.0000   1.0000   1.0000   1.0000
     1.0000   1.0000   1.0000   1.0000   1.0000   1.0000   1.0000   1.0000

          k = 0.1667 0.1816 0.8314 (  9257 PWs)   bands (ev):

   -14.3823 -14.3775 -14.3735 -14.3704 -14.3666 -14.3663 -14.3653 -14.3645
   -14.3515 -14.3477 -14.3464 -14.3460 -14.3386 -14.3361 -14.3278 -14.3255
   -14.3184 -14.3167 -14.3128 -14.3110  -6.0095  -5.8101  -5.5040  -5.2797
    -0.6034  -0.0415   0.5439   0.9815   3.0506   4.1271   4.3391   4.8455
     4.8895   5.1327   5.3181   5.5543   5.9315   6.3699   6.4325   6.7726

     occupation numbers 
     1.0000   1.0000   1.0000   1.0000   1.0000   1.0000   1.0000   1.0000
     1.0000   1.0000   1.0000   1.0000   1.0000   1.0000   1.0000   1.0000
     1.0000   1.0000   1.0000   1.0000   1.0000   1.0000   1.0000   1.0000
     1.0000   1.0000   1.0000   1.0000   1.0000   1.0000   1.0000   1.0000
     1.0000   1.0000   1.0000   1.0000   1.0000   1.0000   1.0000   1.0000

          k = 0.1667 0.1816 1.1640 (  9271 PWs)   bands (ev):

   -14.3803 -14.3785 -14.3729 -14.3717 -14.3671 -14.3669 -14.3654 -14.3650
   -14.3492 -14.3480 -14.3465 -14.3463 -14.3360 -14.3351 -14.3275 -14.3267
   -14.3176 -14.3170 -14.3124 -14.3117  -5.7925  -5.6542  -5.5398  -5.3958
    -0.7159  -0.5079   0.4050   0.5717   3.5229   4.0399   4.6850   4.8862
     5.0715   5.1511   5.3114   5.6449   6.2185   6.5788   6.7106   6.7951

     occupation numbers 
     1.0000   1.0000   1.0000   1.0000   1.0000   1.0000   1.0000   1.0000
     1.0000   1.0000   1.0000   1.0000   1.0000   1.0000   1.0000   1.0000
     1.0000   1.0000   1.0000   1.0000   1.0000   1.0000   1.0000   1.0000
     1.0000   1.0000   1.0000   1.0000   1.0000   1.0000   1.0000   1.0000
     1.0000   1.0000   1.0000   1.0000   1.0000   1.0000   1.0000   1.0000

          k = 0.1667 0.5448 0.1663 (  9279 PWs)   bands (ev):

   -14.3799 -14.3743 -14.3704 -14.3682 -14.3675 -14.3667 -14.3645 -14.3639
   -14.3563 -14.3503 -14.3502 -14.3492 -14.3402 -14.3363 -14.3246 -14.3218
   -14.3205 -14.3193 -14.3127 -14.3102  -6.1533  -5.9456  -5.4380  -5.1862
    -0.1065   0.4999   1.1040   1.2589   2.7942   3.7369   3.9976   4.2268
     4.5636   4.8226   4.9490   5.2244   5.5640   6.0811   6.3310   6.4551

     occupation numbers 
     1.0000   1.0000   1.0000   1.0000   1.0000   1.0000   1.0000   1.0000
     1.0000   1.0000   1.0000   1.0000   1.0000   1.0000   1.0000   1.0000
     1.0000   1.0000   1.0000   1.0000   1.0000   1.0000   1.0000   1.0000
     1.0000   1.0000   1.0000   1.0000   1.0000   1.0000   1.0000   1.0000
     1.0000   1.0000   1.0000   1.0000   1.0000   1.0000   1.0000   1.0000

          k = 0.1667 0.5448 0.4988 (  9266 PWs)   bands (ev):

   -14.3793 -14.3742 -14.3709 -14.3696 -14.3678 -14.3670 -14.3646 -14.3642
   -14.3551 -14.3507 -14.3497 -14.3483 -14.3387 -14.3352 -14.3248 -14.3220
   -14.3206 -14.3192 -14.3126 -14.3105  -6.0520  -5.8538  -5.4211  -5.1921
    -0.2725   0.3977   0.8106   1.1534   2.9240   3.3420   3.5778   4.2089
     4.4186   4.9340   5.3405   5.4247   6.0493   6.1534   6.3636   6.5280

     occupation numbers 
     1.0000   1.0000   1.0000   1.0000   1.0000   1.0000   1.0000   1.0000
     1.0000   1.0000   1.0000   1.0000   1.0000   1.0000   1.0000   1.0000
     1.0000   1.0000   1.0000   1.0000   1.0000   1.0000   1.0000   1.0000
     1.0000   1.0000   1.0000   1.0000   1.0000   1.0000   1.0000   1.0000
     1.0000   1.0000   1.0000   1.0000   1.0000   1.0000   1.0000   1.0000

          k = 0.1667 0.5448 0.8314 (  9265 PWs)   bands (ev):

   -14.3783 -14.3741 -14.3724 -14.3713 -14.3682 -14.3676 -14.3649 -14.3646
   -14.3536 -14.3513 -14.3489 -14.3474 -14.3361 -14.3337 -14.3249 -14.3229
   -14.3201 -14.3191 -14.3123 -14.3109  -5.8750  -5.6947  -5.4221  -5.2289
    -0.4745   0.0574   0.5724   0.9109   3.1791   3.2926   3.5252   4.1754
     4.2512   5.0240   5.1543   5.7054   5.9036   6.1110   6.2831   6.4899

     occupation numbers 
     1.0000   1.0000   1.0000   1.0000   1.0000   1.0000   1.0000   1.0000
     1.0000   1.0000   1.0000   1.0000   1.0000   1.0000   1.0000   1.0000
     1.0000   1.0000   1.0000   1.0000   1.0000   1.0000   1.0000   1.0000
     1.0000   1.0000   1.0000   1.0000   1.0000   1.0000   1.0000   1.0000
     1.0000   1.0000   1.0000   1.0000   1.0000   1.0000   1.0000   1.0000

          k = 0.1667 0.5448 1.1640 (  9280 PWs)   bands (ev):

   -14.3769 -14.3749 -14.3734 -14.3725 -14.3684 -14.3682 -14.3651 -14.3650
   -14.3525 -14.3519 -14.3479 -14.3472 -14.3337 -14.3329 -14.3247 -14.3240
   -14.3195 -14.3191 -14.3120 -14.3115  -5.6755  -5.5518  -5.4507  -5.3249
    -0.5290  -0.3340   0.5193   0.6505   3.4836   3.5359   3.7581   3.9965
     4.2305   4.5965   5.1892   5.4773   5.7647   5.9865   6.1950   6.3611

     occupation numbers 
     1.0000   1.0000   1.0000   1.0000   1.0000   1.0000   1.0000   1.0000
     1.0000   1.0000   1.0000   1.0000   1.0000   1.0000   1.0000   1.0000
     1.0000   1.0000   1.0000   1.0000   1.0000   1.0000   1.0000   1.0000
     1.0000   1.0000   1.0000   1.0000   1.0000   1.0000   1.0000   1.0000
     1.0000   1.0000   1.0000   1.0000   1.0000   1.0000   1.0000   1.0000

          k = 0.1667 0.9080 0.1663 (  9298 PWs)   bands (ev):

   -14.3739 -14.3723 -14.3700 -14.3697 -14.3692 -14.3654 -14.3624 -14.3619
   -14.3574 -14.3545 -14.3539 -14.3507 -14.3369 -14.3335 -14.3246 -14.3246
   -14.3197 -14.3172 -14.3113 -14.3102  -5.8814  -5.7174  -5.3447  -5.1849
    -0.3541   0.1129   0.4540   0.6186   3.1235   3.8610   4.1995   4.4348
     4.8661   4.9514   5.1206   5.2997   5.7334   6.1430   6.2165   6.4982

     occupation numbers 
     1.0000   1.0000   1.0000   1.0000   1.0000   1.0000   1.0000   1.0000
     1.0000   1.0000   1.0000   1.0000   1.0000   1.0000   1.0000   1.0000
     1.0000   1.0000   1.0000   1.0000   1.0000   1.0000   1.0000   1.0000
     1.0000   1.0000   1.0000   1.0000   1.0000   1.0000   1.0000   1.0000
     1.0000   1.0000   1.0000   1.0000   1.0000   1.0000   1.0000   1.0000

          k = 0.1667 0.9080 0.4988 (  9292 PWs)   bands (ev):

   -14.3758 -14.3726 -14.3711 -14.3704 -14.3699 -14.3657 -14.3624 -14.3619
   -14.3567 -14.3547 -14.3528 -14.3500 -14.3356 -14.3326 -14.3242 -14.3241
   -14.3198 -14.3177 -14.3113 -14.3103  -5.7933  -5.6387  -5.3229  -5.1757
    -0.3193   0.2012   0.4620   0.6115   3.1190   3.2442   3.5220   3.9891
     4.3933   4.9975   5.1915   5.5236   5.6657   5.8294   6.1327   6.3200

     occupation numbers 
     1.0000   1.0000   1.0000   1.0000   1.0000   1.0000   1.0000   1.0000
     1.0000   1.0000   1.0000   1.0000   1.0000   1.0000   1.0000   1.0000
     1.0000   1.0000   1.0000   1.0000   1.0000   1.0000   1.0000   1.0000
     1.0000   1.0000   1.0000   1.0000   1.0000   1.0000   1.0000   1.0000
     1.0000   1.0000   1.0000   1.0000   1.0000   1.0000   1.0000   1.0000

          k = 0.1667 0.9080 0.8314 (  9279 PWs)   bands (ev):

   -14.3775 -14.3749 -14.3723 -14.3718 -14.3694 -14.3664 -14.3625 -14.3621
   -14.3557 -14.3548 -14.3513 -14.3494 -14.3334 -14.3313 -14.3235 -14.3234
   -14.3197 -14.3184 -14.3111 -14.3105  -5.6436  -5.5064  -5.3095  -5.1815
    -0.2734   0.1689   0.5036   0.6604   2.7210   3.0138   3.4621   3.6499
     3.8451   4.5865   4.8791   5.1609   5.4438   5.5489   5.7382   6.2160

     occupation numbers 
     1.0000   1.0000   1.0000   1.0000   1.0000   1.0000   1.0000   1.0000
     1.0000   1.0000   1.0000   1.0000   1.0000   1.0000   1.0000   1.0000
     1.0000   1.0000   1.0000   1.0000   1.0000   1.0000   1.0000   1.0000
     1.0000   1.0000   1.0000   1.0000   1.0000   1.0000   1.0000   1.0000
     1.0000   1.0000   1.0000   1.0000   1.0000   1.0000   1.0000   1.0000

          k = 0.1667 0.9080 1.1640 (  9270 PWs)   bands (ev):

   -14.3781 -14.3772 -14.3731 -14.3729 -14.3685 -14.3674 -14.3626 -14.3624
   -14.3551 -14.3548 -14.3500 -14.3493 -14.3314 -14.3306 -14.3229 -14.3229
   -14.3194 -14.3190 -14.3109 -14.3107  -5.4833  -5.3921  -5.3200  -5.2333
    -0.1986  -0.0383   0.6234   0.6793   2.7265   3.0398   3.0730   3.4206
     3.8757   4.2854   4.4952   4.9024   5.0380   5.2560   5.7668   5.9308

     occupation numbers 
     1.0000   1.0000   1.0000   1.0000   1.0000   1.0000   1.0000   1.0000
     1.0000   1.0000   1.0000   1.0000   1.0000   1.0000   1.0000   1.0000
     1.0000   1.0000   1.0000   1.0000   1.0000   1.0000   1.0000   1.0000
     1.0000   1.0000   1.0000   1.0000   1.0000   1.0000   1.0000   1.0000
     1.0000   1.0000   1.0000   1.0000   1.0000   1.0000   1.0000   1.0000

          k = 0.1667 1.2712 0.1663 (  9302 PWs)   bands (ev):

   -14.3742 -14.3729 -14.3719 -14.3713 -14.3650 -14.3620 -14.3618 -14.3605
   -14.3577 -14.3565 -14.3550 -14.3531 -14.3336 -14.3310 -14.3296 -14.3280
   -14.3147 -14.3132 -14.3112 -14.3110  -5.5618  -5.4775  -5.3361  -5.3023
    -0.4398  -0.1673  -0.0547   0.1449   3.6480   4.1060   4.4242   4.6711
     4.8433   4.9260   5.2685   5.4800   5.8681   5.9896   6.0810   6.2146

     occupation numbers 
     1.0000   1.0000   1.0000   1.0000   1.0000   1.0000   1.0000   1.0000
     1.0000   1.0000   1.0000   1.0000   1.0000   1.0000   1.0000   1.0000
     1.0000   1.0000   1.0000   1.0000   1.0000   1.0000   1.0000   1.0000
     1.0000   1.0000   1.0000   1.0000   1.0000   1.0000   1.0000   1.0000
     1.0000   1.0000   1.0000   1.0000   1.0000   1.0000   1.0000   1.0000

          k = 0.1667 1.2712 0.4988 (  9299 PWs)   bands (ev):

   -14.3761 -14.3745 -14.3737 -14.3729 -14.3649 -14.3623 -14.3616 -14.3607
   -14.3569 -14.3562 -14.3540 -14.3524 -14.3327 -14.3308 -14.3282 -14.3272
   -14.3148 -14.3136 -14.3111 -14.3110  -5.4967  -5.4196  -5.3005  -5.2671
    -0.2959  -0.0296   0.0840   0.2238   3.3925   3.6015   3.8240   4.1195
     4.1766   4.6862   5.0153   5.1845   5.3017   5.5894   5.8674   6.1829

     occupation numbers 
     1.0000   1.0000   1.0000   1.0000   1.0000   1.0000   1.0000   1.0000
     1.0000   1.0000   1.0000   1.0000   1.0000   1.0000   1.0000   1.0000
     1.0000   1.0000   1.0000   1.0000   1.0000   1.0000   1.0000   1.0000
     1.0000   1.0000   1.0000   1.0000   1.0000   1.0000   1.0000   1.0000
     1.0000   1.0000   1.0000   1.0000   1.0000   1.0000   1.0000   1.0000

          k = 0.1667 1.2712 0.8314 (  9266 PWs)   bands (ev):

   -14.3784 -14.3771 -14.3759 -14.3752 -14.3647 -14.3629 -14.3614 -14.3608
   -14.3559 -14.3557 -14.3528 -14.3517 -14.3312 -14.3301 -14.3264 -14.3259
   -14.3148 -14.3140 -14.3110 -14.3109  -5.3932  -5.3292  -5.2557  -5.2218
    -0.0543   0.1786   0.3109   0.3594   2.7427   3.1541   3.2464   3.6561
     3.7074   4.1434   4.3172   4.7859   4.8610   5.1613   5.7251   5.8863

     occupation numbers 
     1.0000   1.0000   1.0000   1.0000   1.0000   1.0000   1.0000   1.0000
     1.0000   1.0000   1.0000   1.0000   1.0000   1.0000   1.0000   1.0000
     1.0000   1.0000   1.0000   1.0000   1.0000   1.0000   1.0000   1.0000
     1.0000   1.0000   1.0000   1.0000   1.0000   1.0000   1.0000   1.0000
     1.0000   1.0000   1.0000   1.0000   1.0000   1.0000   1.0000   1.0000

          k = 0.1667 1.2712 1.1640 (  9272 PWs)   bands (ev):

   -14.3798 -14.3794 -14.3772 -14.3770 -14.3644 -14.3637 -14.3612 -14.3610
   -14.3554 -14.3553 -14.3520 -14.3516 -14.3298 -14.3295 -14.3251 -14.3250
   -14.3147 -14.3144 -14.3109 -14.3109  -5.2969  -5.2585  -5.2318  -5.2042
     0.1741   0.2676   0.5104   0.5305   2.4768   2.6722   2.9941   3.2209
     3.4279   3.5861   4.0037   4.2963   4.8636   5.0657   5.6575   5.6922

     occupation numbers 
     1.0000   1.0000   1.0000   1.0000   1.0000   1.0000   1.0000   1.0000
     1.0000   1.0000   1.0000   1.0000   1.0000   1.0000   1.0000   1.0000
     1.0000   1.0000   1.0000   1.0000   1.0000   1.0000   1.0000   1.0000
     1.0000   1.0000   1.0000   1.0000   1.0000   1.0000   1.0000   1.0000
     1.0000   1.0000   1.0000   1.0000   1.0000   1.0000   1.0000   1.0000

          k =-0.5000 0.1816 0.1663 (  9258 PWs)   bands (ev):

   -14.3820 -14.3820 -14.3707 -14.3707 -14.3655 -14.3655 -14.3637 -14.3637
   -14.3528 -14.3528 -14.3455 -14.3455 -14.3409 -14.3409 -14.3258 -14.3258
   -14.3176 -14.3176 -14.3115 -14.3115  -6.2116  -6.2116  -5.3466  -5.3466
     0.3179   0.3179   1.7424   1.7424   3.2235   3.2235   4.1369   4.1369
     4.5043   4.5043   5.0228   5.0228   5.3553   5.3553   6.4775   6.4775

     occupation numbers 
     1.0000   1.0000   1.0000   1.0000   1.0000   1.0000   1.0000   1.0000
     1.0000   1.0000   1.0000   1.0000   1.0000   1.0000   1.0000   1.0000
     1.0000   1.0000   1.0000   1.0000   1.0000   1.0000   1.0000   1.0000
     1.0000   1.0000   1.0000   1.0000   1.0000   1.0000   1.0000   1.0000
     1.0000   1.0000   1.0000   1.0000   1.0000   1.0000   1.0000   1.0000

          k =-0.5000 0.1816 0.4988 (  9276 PWs)   bands (ev):

   -14.3814 -14.3814 -14.3709 -14.3709 -14.3656 -14.3656 -14.3645 -14.3645
   -14.3514 -14.3514 -14.3458 -14.3458 -14.3395 -14.3395 -14.3261 -14.3261
   -14.3176 -14.3176 -14.3117 -14.3117  -6.1093  -6.1093  -5.3445  -5.3445
     0.0037   0.0037   1.3034   1.3034   3.3901   3.3901   4.1846   4.1846
     4.8513   4.8513   5.1867   5.1867   5.8526   5.8526   6.3493   6.3493

     occupation numbers 
     1.0000   1.0000   1.0000   1.0000   1.0000   1.0000   1.0000   1.0000
     1.0000   1.0000   1.0000   1.0000   1.0000   1.0000   1.0000   1.0000
     1.0000   1.0000   1.0000   1.0000   1.0000   1.0000   1.0000   1.0000
     1.0000   1.0000   1.0000   1.0000   1.0000   1.0000   1.0000   1.0000
     1.0000   1.0000   1.0000   1.0000   1.0000   1.0000   1.0000   1.0000

          k =-0.5000 0.1816 0.8314 (  9262 PWs)   bands (ev):

   -14.3803 -14.3803 -14.3716 -14.3716 -14.3660 -14.3660 -14.3653 -14.3653
   -14.3494 -14.3494 -14.3464 -14.3464 -14.3372 -14.3372 -14.3266 -14.3266
   -14.3175 -14.3175 -14.3119 -14.3119  -5.9305  -5.9305  -5.3712  -5.3712
    -0.3706  -0.3706   0.7769   0.7769   3.6946   3.6946   4.4573   4.4573
     4.9894   4.9894   5.4441   5.4441   6.0721   6.0721   6.5763   6.5763

     occupation numbers 
     1.0000   1.0000   1.0000   1.0000   1.0000   1.0000   1.0000   1.0000
     1.0000   1.0000   1.0000   1.0000   1.0000   1.0000   1.0000   1.0000
     1.0000   1.0000   1.0000   1.0000   1.0000   1.0000   1.0000   1.0000
     1.0000   1.0000   1.0000   1.0000   1.0000   1.0000   1.0000   1.0000
     1.0000   1.0000   1.0000   1.0000   1.0000   1.0000   1.0000   1.0000

          k =-0.5000 0.1816 1.1640 (  9278 PWs)   bands (ev):

   -14.3794 -14.3794 -14.3724 -14.3724 -14.3665 -14.3665 -14.3657 -14.3657
   -14.3480 -14.3480 -14.3469 -14.3469 -14.3356 -14.3356 -14.3270 -14.3270
   -14.3174 -14.3174 -14.3120 -14.3120  -5.7409  -5.7409  -5.4504  -5.4504
    -0.5942  -0.5942   0.4355   0.4355   4.1049   4.1049   4.7571   4.7571
     4.8242   4.8242   5.2793   5.2793   6.4841   6.4841   6.7516   6.7516

     occupation numbers 
     1.0000   1.0000   1.0000   1.0000   1.0000   1.0000   1.0000   1.0000
     1.0000   1.0000   1.0000   1.0000   1.0000   1.0000   1.0000   1.0000
     1.0000   1.0000   1.0000   1.0000   1.0000   1.0000   1.0000   1.0000
     1.0000   1.0000   1.0000   1.0000   1.0000   1.0000   1.0000   1.0000
     1.0000   1.0000   1.0000   1.0000   1.0000   1.0000   1.0000   1.0000

          k =-0.5000 0.5448 0.1663 (  9280 PWs)   bands (ev):

   -14.3775 -14.3775 -14.3690 -14.3690 -14.3671 -14.3671 -14.3644 -14.3644
   -14.3530 -14.3530 -14.3501 -14.3501 -14.3379 -14.3379 -14.3233 -14.3233
   -14.3198 -14.3198 -14.3114 -14.3114  -6.0668  -6.0668  -5.2946  -5.2946
     0.1224   0.1224   1.2397   1.2397   3.3514   3.3514   3.9964   3.9964
     4.8043   4.8043   4.9732   4.9732   5.6474   5.6474   6.4794   6.4794

     occupation numbers 
     1.0000   1.0000   1.0000   1.0000   1.0000   1.0000   1.0000   1.0000
     1.0000   1.0000   1.0000   1.0000   1.0000   1.0000   1.0000   1.0000
     1.0000   1.0000   1.0000   1.0000   1.0000   1.0000   1.0000   1.0000
     1.0000   1.0000   1.0000   1.0000   1.0000   1.0000   1.0000   1.0000
     1.0000   1.0000   1.0000   1.0000   1.0000   1.0000   1.0000   1.0000

          k =-0.5000 0.5448 0.4988 (  9264 PWs)   bands (ev):

   -14.3772 -14.3772 -14.3700 -14.3700 -14.3673 -14.3673 -14.3645 -14.3645
   -14.3519 -14.3519 -14.3501 -14.3501 -14.3367 -14.3367 -14.3235 -14.3235
   -14.3199 -14.3199 -14.3114 -14.3114  -5.9702  -5.9702  -5.2892  -5.2892
    -0.0240  -0.0240   1.0457   1.0457   3.3287   3.3287   3.7880   3.7880
     4.4305   4.4305   5.4937   5.4937   6.0582   6.0582   6.4459   6.4459

     occupation numbers 
     1.0000   1.0000   1.0000   1.0000   1.0000   1.0000   1.0000   1.0000
     1.0000   1.0000   1.0000   1.0000   1.0000   1.0000   1.0000   1.0000
     1.0000   1.0000   1.0000   1.0000   1.0000   1.0000   1.0000   1.0000
     1.0000   1.0000   1.0000   1.0000   1.0000   1.0000   1.0000   1.0000
     1.0000   1.0000   1.0000   1.0000   1.0000   1.0000   1.0000   1.0000

          k =-0.5000 0.5448 0.8314 (  9258 PWs)   bands (ev):

   -14.3766 -14.3766 -14.3718 -14.3718 -14.3678 -14.3678 -14.3647 -14.3647
   -14.3508 -14.3508 -14.3499 -14.3499 -14.3347 -14.3347 -14.3238 -14.3238
   -14.3198 -14.3198 -14.3115 -14.3115  -5.8032  -5.8032  -5.3072  -5.3072
    -0.2523  -0.2523   0.7590   0.7590   3.3286   3.3286   3.9552   3.9552
     4.3132   4.3132   5.5057   5.5057   5.9280   5.9280   6.4115   6.4115

     occupation numbers 
     1.0000   1.0000   1.0000   1.0000   1.0000   1.0000   1.0000   1.0000
     1.0000   1.0000   1.0000   1.0000   1.0000   1.0000   1.0000   1.0000
     1.0000   1.0000   1.0000   1.0000   1.0000   1.0000   1.0000   1.0000
     1.0000   1.0000   1.0000   1.0000   1.0000   1.0000   1.0000   1.0000
     1.0000   1.0000   1.0000   1.0000   1.0000   1.0000   1.0000   1.0000

          k =-0.5000 0.5448 1.1640 (  9278 PWs)   bands (ev):

   -14.3755 -14.3755 -14.3737 -14.3737 -14.3682 -14.3682 -14.3648 -14.3648
   -14.3509 -14.3509 -14.3489 -14.3489 -14.3331 -14.3331 -14.3241 -14.3241
   -14.3198 -14.3198 -14.3115 -14.3115  -5.6292  -5.6292  -5.3724  -5.3724
    -0.4162  -0.4162   0.5425   0.5425   3.5626   3.5626   3.9203   3.9203
     4.5788   4.5788   5.0737   5.0737   5.7500   5.7500   6.2163   6.2163

     occupation numbers 
     1.0000   1.0000   1.0000   1.0000   1.0000   1.0000   1.0000   1.0000
     1.0000   1.0000   1.0000   1.0000   1.0000   1.0000   1.0000   1.0000
     1.0000   1.0000   1.0000   1.0000   1.0000   1.0000   1.0000   1.0000
     1.0000   1.0000   1.0000   1.0000   1.0000   1.0000   1.0000   1.0000
     1.0000   1.0000   1.0000   1.0000   1.0000   1.0000   1.0000   1.0000

          k =-0.5000 0.9080 0.1663 (  9292 PWs)   bands (ev):

   -14.3734 -14.3734 -14.3697 -14.3697 -14.3673 -14.3673 -14.3625 -14.3625
   -14.3548 -14.3548 -14.3533 -14.3533 -14.3350 -14.3350 -14.3247 -14.3247
   -14.3185 -14.3185 -14.3107 -14.3107  -5.8121  -5.8121  -5.2518  -5.2518
    -0.1584  -0.1584   0.5511   0.5511   3.6426   3.6426   4.1709   4.1709
     4.9713   4.9713   5.1856   5.1856   5.7150   5.7150   6.3793   6.3793

     occupation numbers 
     1.0000   1.0000   1.0000   1.0000   1.0000   1.0000   1.0000   1.0000
     1.0000   1.0000   1.0000   1.0000   1.0000   1.0000   1.0000   1.0000
     1.0000   1.0000   1.0000   1.0000   1.0000   1.0000   1.0000   1.0000
     1.0000   1.0000   1.0000   1.0000   1.0000   1.0000   1.0000   1.0000
     1.0000   1.0000   1.0000   1.0000   1.0000   1.0000   1.0000   1.0000

          k =-0.5000 0.9080 0.4988 (  9288 PWs)   bands (ev):

   -14.3745 -14.3745 -14.3707 -14.3707 -14.3677 -14.3677 -14.3623 -14.3623
   -14.3543 -14.3543 -14.3528 -14.3528 -14.3338 -14.3338 -14.3243 -14.3243
   -14.3187 -14.3187 -14.3107 -14.3107  -5.7285  -5.7285  -5.2366  -5.2366
    -0.1090  -0.1090   0.5660   0.5660   3.2355   3.2355   3.9180   3.9180
     4.3790   4.3790   5.4349   5.4349   5.6189   5.6189   6.2794   6.2794

     occupation numbers 
     1.0000   1.0000   1.0000   1.0000   1.0000   1.0000   1.0000   1.0000
     1.0000   1.0000   1.0000   1.0000   1.0000   1.0000   1.0000   1.0000
     1.0000   1.0000   1.0000   1.0000   1.0000   1.0000   1.0000   1.0000
     1.0000   1.0000   1.0000   1.0000   1.0000   1.0000   1.0000   1.0000
     1.0000   1.0000   1.0000   1.0000   1.0000   1.0000   1.0000   1.0000

          k =-0.5000 0.9080 0.8314 (  9284 PWs)   bands (ev):

   -14.3762 -14.3762 -14.3722 -14.3722 -14.3682 -14.3682 -14.3621 -14.3621
   -14.3540 -14.3540 -14.3517 -14.3517 -14.3320 -14.3320 -14.3237 -14.3237
   -14.3190 -14.3190 -14.3107 -14.3107  -5.5882  -5.5882  -5.2323  -5.2323
    -0.0829  -0.0829   0.5955   0.5955   2.8712   2.8712   3.5901   3.5901
     4.2679   4.2679   4.9019   4.9019   5.3648   5.3648   6.0508   6.0508

     occupation numbers 
     1.0000   1.0000   1.0000   1.0000   1.0000   1.0000   1.0000   1.0000
     1.0000   1.0000   1.0000   1.0000   1.0000   1.0000   1.0000   1.0000
     1.0000   1.0000   1.0000   1.0000   1.0000   1.0000   1.0000   1.0000
     1.0000   1.0000   1.0000   1.0000   1.0000   1.0000   1.0000   1.0000
     1.0000   1.0000   1.0000   1.0000   1.0000   1.0000   1.0000   1.0000

          k =-0.5000 0.9080 1.1640 (  9288 PWs)   bands (ev):

   -14.3773 -14.3773 -14.3733 -14.3733 -14.3685 -14.3685 -14.3620 -14.3620
   -14.3540 -14.3540 -14.3508 -14.3508 -14.3306 -14.3306 -14.3232 -14.3232
   -14.3192 -14.3192 -14.3107 -14.3107  -5.4489  -5.4489  -5.2656  -5.2656
    -0.1086  -0.1086   0.6286   0.6286   2.8769   2.8769   3.2046   3.2046
     4.2493   4.2493   4.5866   4.5866   5.2291   5.2291   5.6849   5.6849

     occupation numbers 
     1.0000   1.0000   1.0000   1.0000   1.0000   1.0000   1.0000   1.0000
     1.0000   1.0000   1.0000   1.0000   1.0000   1.0000   1.0000   1.0000
     1.0000   1.0000   1.0000   1.0000   1.0000   1.0000   1.0000   1.0000
     1.0000   1.0000   1.0000   1.0000   1.0000   1.0000   1.0000   1.0000
     1.0000   1.0000   1.0000   1.0000   1.0000   1.0000   1.0000   1.0000

          k =-0.5000 1.2712 0.1663 (  9300 PWs)   bands (ev):

   -14.3733 -14.3733 -14.3721 -14.3721 -14.3632 -14.3632 -14.3616 -14.3616
   -14.3560 -14.3560 -14.3549 -14.3549 -14.3321 -14.3321 -14.3289 -14.3289
   -14.3139 -14.3139 -14.3111 -14.3111  -5.5246  -5.5246  -5.3144  -5.3144
    -0.2656  -0.2656  -0.0160  -0.0160   4.1152   4.1152   4.4549   4.4549
     4.9312   4.9312   5.1354   5.1354   5.8253   5.8253   6.1200   6.1200

     occupation numbers 
     1.0000   1.0000   1.0000   1.0000   1.0000   1.0000   1.0000   1.0000
     1.0000   1.0000   1.0000   1.0000   1.0000   1.0000   1.0000   1.0000
     1.0000   1.0000   1.0000   1.0000   1.0000   1.0000   1.0000   1.0000
     1.0000   1.0000   1.0000   1.0000   1.0000   1.0000   1.0000   1.0000
     1.0000   1.0000   1.0000   1.0000   1.0000   1.0000   1.0000   1.0000

          k =-0.5000 1.2712 0.4988 (  9314 PWs)   bands (ev):

   -14.3750 -14.3750 -14.3737 -14.3737 -14.3636 -14.3636 -14.3615 -14.3615
   -14.3552 -14.3552 -14.3543 -14.3543 -14.3312 -14.3312 -14.3282 -14.3282
   -14.3140 -14.3140 -14.3112 -14.3112  -5.4630  -5.4630  -5.2791  -5.2791
    -0.1294  -0.1294   0.1017   0.1017   3.5283   3.5283   4.0111   4.0111
     4.5242   4.5242   4.9613   4.9613   5.4254   5.4254   5.8503   5.8503

     occupation numbers 
     1.0000   1.0000   1.0000   1.0000   1.0000   1.0000   1.0000   1.0000
     1.0000   1.0000   1.0000   1.0000   1.0000   1.0000   1.0000   1.0000
     1.0000   1.0000   1.0000   1.0000   1.0000   1.0000   1.0000   1.0000
     1.0000   1.0000   1.0000   1.0000   1.0000   1.0000   1.0000   1.0000
     1.0000   1.0000   1.0000   1.0000   1.0000   1.0000   1.0000   1.0000

          k =-0.5000 1.2712 0.8314 (  9270 PWs)   bands (ev):

   -14.3773 -14.3773 -14.3758 -14.3758 -14.3641 -14.3641 -14.3616 -14.3616
   -14.3544 -14.3544 -14.3533 -14.3533 -14.3296 -14.3296 -14.3271 -14.3271
   -14.3141 -14.3141 -14.3112 -14.3112  -5.3661  -5.3661  -5.2339  -5.2339
     0.0792   0.0792   0.3063   0.3063   2.9393   2.9393   3.4294   3.4294
     3.9750   3.9750   4.4204   4.4204   5.2603   5.2603   5.6253   5.6253

     occupation numbers 
     1.0000   1.0000   1.0000   1.0000   1.0000   1.0000   1.0000   1.0000
     1.0000   1.0000   1.0000   1.0000   1.0000   1.0000   1.0000   1.0000
     1.0000   1.0000   1.0000   1.0000   1.0000   1.0000   1.0000   1.0000
     1.0000   1.0000   1.0000   1.0000   1.0000   1.0000   1.0000   1.0000
     1.0000   1.0000   1.0000   1.0000   1.0000   1.0000   1.0000   1.0000

          k =-0.5000 1.2712 1.1640 (  9286 PWs)   bands (ev):

   -14.3790 -14.3790 -14.3774 -14.3774 -14.3645 -14.3645 -14.3618 -14.3618
   -14.3539 -14.3539 -14.3526 -14.3526 -14.3285 -14.3285 -14.3262 -14.3262
   -14.3142 -14.3142 -14.3111 -14.3111  -5.2818  -5.2818  -5.2139  -5.2139
     0.2277   0.2277   0.5061   0.5061   2.7079   2.7079   2.9577   2.9577
     3.5764   3.5764   3.9059   3.9059   5.3593   5.3593   5.5370   5.5370

     occupation numbers 
     1.0000   1.0000   1.0000   1.0000   1.0000   1.0000   1.0000   1.0000
     1.0000   1.0000   1.0000   1.0000   1.0000   1.0000   1.0000   1.0000
     1.0000   1.0000   1.0000   1.0000   1.0000   1.0000   1.0000   1.0000
     1.0000   1.0000   1.0000   1.0000   1.0000   1.0000   1.0000   1.0000
     1.0000   1.0000   1.0000   1.0000   1.0000   1.0000   1.0000   1.0000

     highest occupied level (ev):     6.7951

!    total energy              =    -827.73819352 Ry
     estimated scf accuracy    <          8.2E-10 Ry

     The total energy is the sum of the following terms:
     one-electron contribution =    -277.07684727 Ry
     hartree contribution      =     185.97570522 Ry
     xc contribution           =    -308.80019142 Ry
     ewald contribution        =    -427.72025352 Ry
     DFT-D3 Dispersion         =      -0.11660652 Ry

     convergence has been achieved in  12 iterations

     Forces acting on atoms (cartesian axes, Ry/au):

     atom    1 type  2   force =    -0.01024602    0.00000000    0.00004405
     atom    2 type  1   force =     0.01184436    0.00000000    0.00253775
     atom    3 type  2   force =     0.01024602    0.00000000    0.00004405
     atom    4 type  1   force =    -0.01184436   -0.00000000    0.00253775
     atom    5 type  2   force =    -0.01024602   -0.00000000   -0.00004405
     atom    6 type  1   force =     0.01184436    0.00000000   -0.00253775
     atom    7 type  2   force =     0.01024602    0.00000000   -0.00004405
     atom    8 type  1   force =    -0.01184436    0.00000000   -0.00253775
     The non-local contrib.  to forces
     atom    1 type  2   force =    -0.09023221    0.00000000    0.11738838
     atom    2 type  1   force =     0.33192686    0.00000000    0.30219218
     atom    3 type  2   force =     0.09023221    0.00000000    0.11738838
     atom    4 type  1   force =    -0.33192686    0.00000000    0.30219218
     atom    5 type  2   force =    -0.09023221    0.00000000   -0.11738838
     atom    6 type  1   force =     0.33192686    0.00000000   -0.30219218
     atom    7 type  2   force =     0.09023221    0.00000000   -0.11738838
     atom    8 type  1   force =    -0.33192686    0.00000000   -0.30219218
     The ionic contribution  to forces
     atom    1 type  2   force =     0.82081242   -0.00000000   -1.46941064
     atom    2 type  1   force =    -0.56461698   -0.00000000   -0.94886055
     atom    3 type  2   force =    -0.82081242    0.00000000   -1.46941064
     atom    4 type  1   force =     0.56461698   -0.00000000   -0.94886055
     atom    5 type  2   force =     0.82081242    0.00000000    1.46941064
     atom    6 type  1   force =    -0.56461698   -0.00000000    0.94886055
     atom    7 type  2   force =    -0.82081242   -0.00000000    1.46941064
     atom    8 type  1   force =     0.56461698   -0.00000000    0.94886055
     The local contribution  to forces
     atom    1 type  2   force =    -0.75116026    0.00000000    1.36273434
     atom    2 type  1   force =     0.25212204    0.00000000    0.65212886
     atom    3 type  2   force =     0.75116026   -0.00000000    1.36273434
     atom    4 type  1   force =    -0.25212204    0.00000000    0.65212886
     atom    5 type  2   force =    -0.75116026    0.00000000   -1.36273434
     atom    6 type  1   force =     0.25212204    0.00000000   -0.65212886
     atom    7 type  2   force =     0.75116026    0.00000000   -1.36273434
     atom    8 type  1   force =    -0.25212204    0.00000000   -0.65212886
     The core correction contribution to forces
     atom    1 type  2   force =     0.01048157    0.00000000   -0.01294004
     atom    2 type  1   force =    -0.00773226    0.00000000   -0.00454649
     atom    3 type  2   force =    -0.01048157   -0.00000000   -0.01294004
     atom    4 type  1   force =     0.00773226    0.00000000   -0.00454649
     atom    5 type  2   force =     0.01048157   -0.00000000    0.01294004
     atom    6 type  1   force =    -0.00773226    0.00000000    0.00454649
     atom    7 type  2   force =    -0.01048157    0.00000000    0.01294004
     atom    8 type  1   force =     0.00773226    0.00000000    0.00454649
     The Hubbard contrib.    to forces
     atom    1 type  2   force =     0.00000000    0.00000000    0.00000000
     atom    2 type  1   force =     0.00000000    0.00000000    0.00000000
     atom    3 type  2   force =     0.00000000    0.00000000    0.00000000
     atom    4 type  1   force =     0.00000000    0.00000000    0.00000000
     atom    5 type  2   force =     0.00000000    0.00000000    0.00000000
     atom    6 type  1   force =     0.00000000    0.00000000    0.00000000
     atom    7 type  2   force =     0.00000000    0.00000000    0.00000000
     atom    8 type  1   force =     0.00000000    0.00000000    0.00000000
     The SCF correction term to forces
     atom    1 type  2   force =     0.00000013    0.00000000   -0.00000201
     atom    2 type  1   force =     0.00001411   -0.00000000    0.00000833
     atom    3 type  2   force =    -0.00000013   -0.00000000   -0.00000201
     atom    4 type  1   force =    -0.00001411    0.00000000    0.00000833
     atom    5 type  2   force =     0.00000013    0.00000000    0.00000201
     atom    6 type  1   force =     0.00001411    0.00000000   -0.00000833
     atom    7 type  2   force =    -0.00000013   -0.00000000    0.00000201
     atom    8 type  1   force =    -0.00001411    0.00000000   -0.00000833

     DFT-D3 dispersion contribution to forces:
     atom    1 type  2   force =    -0.00014768    0.00000000    0.00227402
     atom    2 type  1   force =     0.00013059   -0.00000000    0.00161542
     atom    3 type  2   force =     0.00014768   -0.00000000    0.00227402
     atom    4 type  1   force =    -0.00013059    0.00000000    0.00161542
     atom    5 type  2   force =    -0.00014768   -0.00000000   -0.00227402
     atom    6 type  1   force =     0.00013059   -0.00000000   -0.00161542
     atom    7 type  2   force =     0.00014768   -0.00000000   -0.00227402
     atom    8 type  1   force =    -0.00013059    0.00000000   -0.00161542

     Total force =     0.031731     Total SCF correction =     0.000033

     DFT-D3 dispersion Force =     0.005593

     Writing all to output data dir ./tmp/SnSe_pnma.save/ :
     XML data file, charge density, pseudopotentials, collected wavefunctions
 
     init_run     :      2.81s CPU      3.06s WALL (       1 calls)
     electrons    :     65.10s CPU     68.77s WALL (       1 calls)
     forces       :      1.03s CPU      1.20s WALL (       1 calls)
     force_dftd3  :      0.05s CPU      0.05s WALL (       1 calls)

     Called by init_run:
     wfcinit      :      1.82s CPU      1.86s WALL (       1 calls)
     wfcinit:atom :      0.03s CPU      0.03s WALL (      11 calls)
     wfcinit:wfcr :      1.60s CPU      1.61s WALL (      11 calls)
     potinit      :      0.24s CPU      0.28s WALL (       1 calls)
     hinit0       :      0.26s CPU      0.28s WALL (       1 calls)

     Called by electrons:
     c_bands      :     47.03s CPU     47.37s WALL (      12 calls)
     sum_band     :     12.41s CPU     14.01s WALL (      12 calls)
     v_of_rho     :      2.11s CPU      2.16s WALL (      13 calls)
     v_h          :      0.16s CPU      0.16s WALL (      13 calls)
     v_xc         :      2.10s CPU      2.14s WALL (      14 calls)
     newd         :      3.64s CPU      5.42s WALL (      13 calls)
     mix_rho      :      0.22s CPU      0.24s WALL (      12 calls)
     energy_dftd3 :      0.04s CPU      0.05s WALL (       1 calls)

     Called by c_bands:
     init_us_2    :      1.41s CPU      1.42s WALL (     286 calls)
     cegterg      :     42.36s CPU     42.58s WALL (     132 calls)

     Called by sum_band:
     sum_band:wei :      0.00s CPU      0.00s WALL (      12 calls)
     sum_band:loo :      8.38s CPU      8.41s WALL (      12 calls)
     sum_band:buf :      0.09s CPU      0.09s WALL (     132 calls)
     sum_band:ini :      0.62s CPU      0.62s WALL (     132 calls)
     sum_band:cal :      0.83s CPU      0.83s WALL (     132 calls)
     sum_band:bec :      0.01s CPU      0.01s WALL (     132 calls)
     addusdens    :      3.45s CPU      4.96s WALL (      12 calls)
                                        0.00s GPU  (      12 calls)
     addusd:skk   :      0.02s CPU      0.02s WALL (      24 calls)
                                        0.00s GPU  (      24 calls)

     Called by *egterg:
     cdiaghg      :      0.99s CPU      0.99s WALL (     611 calls)
     cegterg:over :      1.99s CPU      1.99s WALL (     479 calls)
     cegterg:upda :      1.15s CPU      1.15s WALL (     479 calls)
     cegterg:last :      2.94s CPU      2.95s WALL (     328 calls)
     h_psi        :     32.69s CPU     32.89s WALL (     622 calls)
     s_psi        :      2.97s CPU      2.98s WALL (     622 calls)
     g_psi        :      0.11s CPU      0.11s WALL (     479 calls)

     Called by h_psi:
     h_psi:calbec :      2.71s CPU      2.71s WALL (     622 calls)
     vloc_psi     :     26.75s CPU     26.94s WALL (     622 calls)
     add_vuspsi   :      2.99s CPU      2.99s WALL (     622 calls)

     General routines
     calbec       :      3.81s CPU      3.82s WALL (     798 calls)
     fft          :      1.03s CPU      1.06s WALL (     178 calls)
     ffts         :      0.03s CPU      0.03s WALL (      25 calls)
     fftw         :     18.13s CPU     18.22s WALL (   37244 calls)
     interpolate  :      0.11s CPU      0.11s WALL (      13 calls)
 
     Parallel routines
 
     PWSCF        :   1m 9.20s CPU   1m13.98s WALL

 
   This run was terminated on:  16:20: 0  20May2026            

=------------------------------------------------------------------------------=
   JOB DONE.
=------------------------------------------------------------------------------=
