
     Program PWSCF v.7.3.1 starts on 20May2026 at 18:49:57 

     This program is part of the open-source Quantum ESPRESSO suite
     for quantum simulation of materials; please cite
         "P. Giannozzi et al., J. Phys.:Condens. Matter 21 395502 (2009);
         "P. Giannozzi et al., J. Phys.:Condens. Matter 29 465901 (2017);
         "P. Giannozzi et al., J. Chem. Phys. 152 154105 (2020);
          URL http://www.quantum-espresso.org", 
     in publications or presentations arising from this work. More details at
     http://www.quantum-espresso.org/quote

     Parallel version (MPI & OpenMP), running on       6 processor cores
     Number of MPI processes:                 6
     Threads/MPI process:                     1

     MPI processes distributed on     1 nodes
     5171 MiB available memory on the printing compute node when the environment starts
 
     Waiting for input...
     Reading input from standard input

     Current dimensions of program PWSCF are:
     Max number of different atomic species (ntypx) = 10
     Max number of k-points (npk) =  40000
     Max angular momentum in pseudopotentials (lmaxx) =  4
 
     K-points division:     npool     =       3
     R & G space division:  proc/nbgrp/npool/nimage =       2
     Subspace diagonalization in iterative solution of the eigenvalue problem:
     a serial algorithm will be used

 
     Parallelization info
     --------------------
     sticks:   dense  smooth     PW     G-vecs:    dense   smooth      PW
     Min        4201    1686    479               188080    47621    7174
     Max        4202    1687    480               188081    47622    7175
     Sum        8403    3373    959               376161    95243   14349
 
     Using Slab Decomposition
 


     bravais-lattice index     =            8
     lattice parameter (alat)  =      22.3366  a.u.
     unit-cell volume          =    1515.7653 (a.u.)^3
     number of atoms/cell      =            8
     number of atomic types    =            2
     number of electrons       =        80.00
     number of Kohn-Sham states=           40
     kinetic-energy cutoff     =      60.0000  Ry
     charge density cutoff     =     600.0000  Ry
     scf convergence threshold =      1.0E-08
     mixing beta               =       0.7000
     number of iterations used =            8  plain     mixing
     Exchange-correlation= SLA  PW   PBE  PBE
                           (   1   4   3   4   0   0   0)

     celldm(1)=  22.336563  celldm(2)=   0.352910  celldm(3)=   0.385406
     celldm(4)=   0.000000  celldm(5)=   0.000000  celldm(6)=   0.000000

     crystal axes: (cart. coord. in units of alat)
               a(1) = (   1.000000   0.000000   0.000000 )  
               a(2) = (   0.000000   0.352910   0.000000 )  
               a(3) = (   0.000000   0.000000   0.385406 )  

     reciprocal axes: (cart. coord. in units 2 pi/alat)
               b(1) = (  1.000000  0.000000  0.000000 )  
               b(2) = (  0.000000  2.833581  0.000000 )  
               b(3) = (  0.000000  0.000000  2.594666 )  


     PseudoPot. # 1 for Sn read from file:
     ../pseudo/Sn_pbe_v1.uspp.F.UPF
     MD5 check sum: 4cf58ce39ec5d5d420df3dd08604eb00
     Pseudo is Ultrasoft + core correction, Zval = 14.0
     Generated by new atomic code, or converted to UPF format
     Using radial grid of  891 points,  6 beta functions with: 
                l(1) =   0
                l(2) =   0
                l(3) =   1
                l(4) =   1
                l(5) =   2
                l(6) =   2
     Q(r) pseudized with  6 coefficients,  rinner =    1.200   1.200   1.200
                                                       1.200   1.200

     PseudoPot. # 2 for Se read from file:
     ../pseudo/Se_pbe_v1.uspp.F.UPF
     MD5 check sum: 1b3568f3a8ae88f9a2a0ad0698632c85
     Pseudo is Ultrasoft + core correction, Zval =  6.0
     Generated by new atomic code, or converted to UPF format
     Using radial grid of  877 points,  6 beta functions with: 
                l(1) =   0
                l(2) =   0
                l(3) =   1
                l(4) =   1
                l(5) =   2
                l(6) =   2
     Q(r) pseudized with  8 coefficients,  rinner =    1.300   1.300   1.300
                                                       1.300   1.300

     atomic species   valence    mass     pseudopotential
     Sn               14.00   118.71000     Sn( 1.00)
     Se                6.00    78.97100     Se( 1.00)

      8 Sym. Ops., with inversion, found ( 6 have fractional translation)


                                    s                        frac. trans.

      isym =  1     identity                                     

 cryst.   s( 1) = (     1          0          0      )
                  (     0          1          0      )
                  (     0          0          1      )

 cart.    s( 1) = (  1.0000000  0.0000000  0.0000000 )
                  (  0.0000000  1.0000000  0.0000000 )
                  (  0.0000000  0.0000000  1.0000000 )


      isym =  2     180 deg rotation - cart. axis [0,0,1]        

 cryst.   s( 2) = (    -1          0          0      )    f =(  0.5000000 )
                  (     0         -1          0      )       (  0.0000000 )
                  (     0          0          1      )       ( -0.5000000 )

 cart.    s( 2) = ( -1.0000000  0.0000000  0.0000000 )    f =(  0.5000000 )
                  (  0.0000000 -1.0000000  0.0000000 )       (  0.0000000 )
                  (  0.0000000  0.0000000  1.0000000 )       ( -0.1927030 )


      isym =  3     180 deg rotation - cart. axis [0,1,0]        

 cryst.   s( 3) = (    -1          0          0      )    f =(  0.0000000 )
                  (     0          1          0      )       ( -0.5000000 )
                  (     0          0         -1      )       (  0.0000000 )

 cart.    s( 3) = ( -1.0000000  0.0000000  0.0000000 )    f =(  0.0000000 )
                  (  0.0000000  1.0000000  0.0000000 )       ( -0.1764552 )
                  (  0.0000000  0.0000000 -1.0000000 )       (  0.0000000 )


      isym =  4     180 deg rotation - cart. axis [1,0,0]        

 cryst.   s( 4) = (     1          0          0      )    f =(  0.5000000 )
                  (     0         -1          0      )       (  0.5000000 )
                  (     0          0         -1      )       (  0.5000000 )

 cart.    s( 4) = (  1.0000000  0.0000000  0.0000000 )    f =(  0.5000000 )
                  (  0.0000000 -1.0000000  0.0000000 )       (  0.1764552 )
                  (  0.0000000  0.0000000 -1.0000000 )       (  0.1927030 )


      isym =  5     inversion                                    

 cryst.   s( 5) = (    -1          0          0      )
                  (     0         -1          0      )
                  (     0          0         -1      )

 cart.    s( 5) = ( -1.0000000  0.0000000  0.0000000 )
                  (  0.0000000 -1.0000000  0.0000000 )
                  (  0.0000000  0.0000000 -1.0000000 )


      isym =  6     inv. 180 deg rotation - cart. axis [0,0,1]   

 cryst.   s( 6) = (     1          0          0      )    f =(  0.5000000 )
                  (     0          1          0      )       (  0.0000000 )
                  (     0          0         -1      )       (  0.5000000 )

 cart.    s( 6) = (  1.0000000  0.0000000  0.0000000 )    f =(  0.5000000 )
                  (  0.0000000  1.0000000  0.0000000 )       (  0.0000000 )
                  (  0.0000000  0.0000000 -1.0000000 )       (  0.1927030 )


      isym =  7     inv. 180 deg rotation - cart. axis [0,1,0]   

 cryst.   s( 7) = (     1          0          0      )    f =(  0.0000000 )
                  (     0         -1          0      )       (  0.5000000 )
                  (     0          0          1      )       (  0.0000000 )

 cart.    s( 7) = (  1.0000000  0.0000000  0.0000000 )    f =(  0.0000000 )
                  (  0.0000000 -1.0000000  0.0000000 )       (  0.1764552 )
                  (  0.0000000  0.0000000  1.0000000 )       (  0.0000000 )


      isym =  8     inv. 180 deg rotation - cart. axis [1,0,0]   

 cryst.   s( 8) = (    -1          0          0      )    f =(  0.5000000 )
                  (     0          1          0      )       ( -0.5000000 )
                  (     0          0          1      )       ( -0.5000000 )

 cart.    s( 8) = ( -1.0000000  0.0000000  0.0000000 )    f =(  0.5000000 )
                  (  0.0000000  1.0000000  0.0000000 )       ( -0.1764552 )
                  (  0.0000000  0.0000000  1.0000000 )       ( -0.1927030 )


     point group D_2h (mmm) 
     there are  8 classes
     the character table:

       E     C2    C2'   C2''  i     s_v   s_v'  s_v''
A_g    1.00  1.00  1.00  1.00  1.00  1.00  1.00  1.00
B_1g   1.00  1.00 -1.00 -1.00  1.00  1.00 -1.00 -1.00
B_2g   1.00 -1.00  1.00 -1.00  1.00 -1.00  1.00 -1.00
B_3g   1.00 -1.00 -1.00  1.00  1.00 -1.00 -1.00  1.00
A_u    1.00  1.00  1.00  1.00 -1.00 -1.00 -1.00 -1.00
B_1u   1.00  1.00 -1.00 -1.00 -1.00 -1.00  1.00  1.00
B_2u   1.00 -1.00  1.00 -1.00 -1.00  1.00 -1.00  1.00
B_3u   1.00 -1.00 -1.00  1.00 -1.00  1.00  1.00 -1.00

     the symmetry operations in each class and the name of the first element:

     E        1
          identity                                               
     C2       2
          180 deg rotation - cart. axis [0,0,1]                  
     C2'      4
          180 deg rotation - cart. axis [1,0,0]                  
     C2''     3
          180 deg rotation - cart. axis [0,1,0]                  
     i        5
          inversion                                              
     s_v      6
          inv. 180 deg rotation - cart. axis [0,0,1]             
     s_v'     8
          inv. 180 deg rotation - cart. axis [1,0,0]             
     s_v''    7
          inv. 180 deg rotation - cart. axis [0,1,0]             

   Cartesian axes

     site n.     atom                  positions (alat units)
         1        Se     tau(   1) = (   0.8549563   0.0882276   0.1862467  )
         2        Sn     tau(   2) = (   0.1165395   0.0882276   0.0432761  )
         3        Se     tau(   3) = (   0.6450437   0.2646827   0.3789498  )
         4        Sn     tau(   4) = (   0.3834605   0.2646827   0.2359791  )
         5        Se     tau(   5) = (   0.3549563   0.0882276   0.0064563  )
         6        Sn     tau(   6) = (   0.6165395   0.0882276   0.1494269  )
         7        Se     tau(   7) = (   0.1450437   0.2646827   0.1991593  )
         8        Sn     tau(   8) = (   0.8834605   0.2646827   0.3421300  )

     --------------------------------------------
     DFT-D3 Dispersion Correction (3-body terms):
     --------------------------------------------
       Reference C6 values for interpolation: 

         atom   Coordination number   C6
         Se         0.000           427.35
         Se         0.990           427.57
         Se         1.981           421.05
         Sn         0.000          1255.14
         Sn         0.951          1084.09
         Sn         1.950          1010.83
         Sn         2.926           818.29
         Sn         3.912           672.20

       Values used:

         atom   Coordination number  R0_AB[au]  C6      C8
         Se         3.309            3.332    421.05  29958.36
         Sn         3.922            3.957    674.74  84686.97
         Se         3.309            3.332    421.05  29958.36
         Sn         3.922            3.957    674.74  84686.97
         Se         3.309            3.332    421.05  29958.36
         Sn         3.922            3.957    674.74  84686.97
         Se         3.309            3.332    421.05  29958.36
         Sn         3.922            3.957    674.74  84686.97

         Molecular C6 ( Ry / a.u.^6 ) =     34568.09


   Crystallographic axes

     site n.     atom                  positions (cryst. coord.)
         1        Se     tau(   1) = (  0.8549563  0.2500000  0.4832481  )
         2        Sn     tau(   2) = (  0.1165395  0.2500000  0.1122870  )
         3        Se     tau(   3) = (  0.6450437  0.7500000  0.9832481  )
         4        Sn     tau(   4) = (  0.3834605  0.7500000  0.6122870  )
         5        Se     tau(   5) = (  0.3549563  0.2500000  0.0167519  )
         6        Sn     tau(   6) = (  0.6165395  0.2500000  0.3877130  )
         7        Se     tau(   7) = (  0.1450437  0.7500000  0.5167519  )
         8        Sn     tau(   8) = (  0.8834605  0.7500000  0.8877130  )

     number of k points=    32
                       cart. coord. in units 2pi/alat
        k(    1) = (   0.1666667   0.1770988   0.1621666), wk =   0.0833333
        k(    2) = (   0.1666667   0.1770988   0.4864998), wk =   0.0833333
        k(    3) = (   0.1666667   0.1770988   0.8108331), wk =   0.0833333
        k(    4) = (   0.1666667   0.1770988   1.1351663), wk =   0.0833333
        k(    5) = (   0.1666667   0.5312964   0.1621666), wk =   0.0833333
        k(    6) = (   0.1666667   0.5312964   0.4864998), wk =   0.0833333
        k(    7) = (   0.1666667   0.5312964   0.8108331), wk =   0.0833333
        k(    8) = (   0.1666667   0.5312964   1.1351663), wk =   0.0833333
        k(    9) = (   0.1666667   0.8854941   0.1621666), wk =   0.0833333
        k(   10) = (   0.1666667   0.8854941   0.4864998), wk =   0.0833333
        k(   11) = (   0.1666667   0.8854941   0.8108331), wk =   0.0833333
        k(   12) = (   0.1666667   0.8854941   1.1351663), wk =   0.0833333
        k(   13) = (   0.1666667   1.2396917   0.1621666), wk =   0.0833333
        k(   14) = (   0.1666667   1.2396917   0.4864998), wk =   0.0833333
        k(   15) = (   0.1666667   1.2396917   0.8108331), wk =   0.0833333
        k(   16) = (   0.1666667   1.2396917   1.1351663), wk =   0.0833333
        k(   17) = (  -0.5000000   0.1770988   0.1621666), wk =   0.0416667
        k(   18) = (  -0.5000000   0.1770988   0.4864998), wk =   0.0416667
        k(   19) = (  -0.5000000   0.1770988   0.8108331), wk =   0.0416667
        k(   20) = (  -0.5000000   0.1770988   1.1351663), wk =   0.0416667
        k(   21) = (  -0.5000000   0.5312964   0.1621666), wk =   0.0416667
        k(   22) = (  -0.5000000   0.5312964   0.4864998), wk =   0.0416667
        k(   23) = (  -0.5000000   0.5312964   0.8108331), wk =   0.0416667
        k(   24) = (  -0.5000000   0.5312964   1.1351663), wk =   0.0416667
        k(   25) = (  -0.5000000   0.8854941   0.1621666), wk =   0.0416667
        k(   26) = (  -0.5000000   0.8854941   0.4864998), wk =   0.0416667
        k(   27) = (  -0.5000000   0.8854941   0.8108331), wk =   0.0416667
        k(   28) = (  -0.5000000   0.8854941   1.1351663), wk =   0.0416667
        k(   29) = (  -0.5000000   1.2396917   0.1621666), wk =   0.0416667
        k(   30) = (  -0.5000000   1.2396917   0.4864998), wk =   0.0416667
        k(   31) = (  -0.5000000   1.2396917   0.8108331), wk =   0.0416667
        k(   32) = (  -0.5000000   1.2396917   1.1351663), wk =   0.0416667

                       cryst. coord.
        k(    1) = (   0.1666667   0.0625000   0.0625000), wk =   0.0833333
        k(    2) = (   0.1666667   0.0625000   0.1875000), wk =   0.0833333
        k(    3) = (   0.1666667   0.0625000   0.3125000), wk =   0.0833333
        k(    4) = (   0.1666667   0.0625000   0.4375000), wk =   0.0833333
        k(    5) = (   0.1666667   0.1875000   0.0625000), wk =   0.0833333
        k(    6) = (   0.1666667   0.1875000   0.1875000), wk =   0.0833333
        k(    7) = (   0.1666667   0.1875000   0.3125000), wk =   0.0833333
        k(    8) = (   0.1666667   0.1875000   0.4375000), wk =   0.0833333
        k(    9) = (   0.1666667   0.3125000   0.0625000), wk =   0.0833333
        k(   10) = (   0.1666667   0.3125000   0.1875000), wk =   0.0833333
        k(   11) = (   0.1666667   0.3125000   0.3125000), wk =   0.0833333
        k(   12) = (   0.1666667   0.3125000   0.4375000), wk =   0.0833333
        k(   13) = (   0.1666667   0.4375000   0.0625000), wk =   0.0833333
        k(   14) = (   0.1666667   0.4375000   0.1875000), wk =   0.0833333
        k(   15) = (   0.1666667   0.4375000   0.3125000), wk =   0.0833333
        k(   16) = (   0.1666667   0.4375000   0.4375000), wk =   0.0833333
        k(   17) = (  -0.5000000   0.0625000   0.0625000), wk =   0.0416667
        k(   18) = (  -0.5000000   0.0625000   0.1875000), wk =   0.0416667
        k(   19) = (  -0.5000000   0.0625000   0.3125000), wk =   0.0416667
        k(   20) = (  -0.5000000   0.0625000   0.4375000), wk =   0.0416667
        k(   21) = (  -0.5000000   0.1875000   0.0625000), wk =   0.0416667
        k(   22) = (  -0.5000000   0.1875000   0.1875000), wk =   0.0416667
        k(   23) = (  -0.5000000   0.1875000   0.3125000), wk =   0.0416667
        k(   24) = (  -0.5000000   0.1875000   0.4375000), wk =   0.0416667
        k(   25) = (  -0.5000000   0.3125000   0.0625000), wk =   0.0416667
        k(   26) = (  -0.5000000   0.3125000   0.1875000), wk =   0.0416667
        k(   27) = (  -0.5000000   0.3125000   0.3125000), wk =   0.0416667
        k(   28) = (  -0.5000000   0.3125000   0.4375000), wk =   0.0416667
        k(   29) = (  -0.5000000   0.4375000   0.0625000), wk =   0.0416667
        k(   30) = (  -0.5000000   0.4375000   0.1875000), wk =   0.0416667
        k(   31) = (  -0.5000000   0.4375000   0.3125000), wk =   0.0416667
        k(   32) = (  -0.5000000   0.4375000   0.4375000), wk =   0.0416667

     Dense  grid:   376161 G-vectors     FFT dimensions: ( 180,  64,  72)

     Smooth grid:    95243 G-vectors     FFT dimensions: ( 120,  40,  48)

     Dynamical RAM for                 wfc:       3.63 MB

     Dynamical RAM for     wfc (w. buffer):      43.56 MB

     Dynamical RAM for           str. fact:       5.74 MB

     Dynamical RAM for           local pot:       0.00 MB

     Dynamical RAM for          nlocal pot:      13.07 MB

     Dynamical RAM for                qrad:       3.93 MB

     Dynamical RAM for          rho,v,vnew:      18.10 MB

     Dynamical RAM for               rhoin:       6.03 MB

     Dynamical RAM for            rho*nmix:      45.92 MB

     Dynamical RAM for           G-vectors:      11.13 MB

     Dynamical RAM for          h,s,v(r/c):       0.29 MB

     Dynamical RAM for          <psi|beta>:       0.09 MB

     Dynamical RAM for                 psi:       7.26 MB

     Dynamical RAM for                hpsi:       7.26 MB

     Dynamical RAM for                spsi:       7.26 MB

     Dynamical RAM for      wfcinit/wfcrot:       9.50 MB

     Dynamical RAM for           addusdens:     183.67 MB

     Dynamical RAM for          addusforce:     188.95 MB

     Estimated static dynamical RAM per process >     125.99 MB

     Estimated max dynamical RAM per process >     360.86 MB

     Estimated total dynamical RAM >       1.94 GB

     Initial potential from superposition of free atoms

     starting charge      75.9995, renormalised to      80.0000
     Starting wfcs are   52 randomized atomic wfcs

     total cpu time spent up to now is        4.4 secs

     Self-consistent Calculation

     iteration #  1     ecut=    60.00 Ry     beta= 0.70
     Davidson diagonalization with overlap

---- Real-time Memory Report at c_bands before calling an iterative solver
           400 MiB given to the printing process from OS
             0 MiB allocation reported by mallinfo(arena+hblkhd)
          4134 MiB available memory on the node where the printing process lives
------------------
     ethr =  1.00E-02,  avg # of iterations =  2.0

     total cpu time spent up to now is       12.3 secs

     total energy              =    -826.62132331 Ry
     estimated scf accuracy    <       2.70989094 Ry

     iteration #  2     ecut=    60.00 Ry     beta= 0.70
     Davidson diagonalization with overlap

---- Real-time Memory Report at c_bands before calling an iterative solver
           500 MiB given to the printing process from OS
             0 MiB allocation reported by mallinfo(arena+hblkhd)
          3864 MiB available memory on the node where the printing process lives
------------------
     ethr =  3.39E-03,  avg # of iterations =  3.0

     total cpu time spent up to now is       21.3 secs

     total energy              =    -827.52415650 Ry
     estimated scf accuracy    <       1.04953272 Ry

     iteration #  3     ecut=    60.00 Ry     beta= 0.70
     Davidson diagonalization with overlap

---- Real-time Memory Report at c_bands before calling an iterative solver
           540 MiB given to the printing process from OS
             0 MiB allocation reported by mallinfo(arena+hblkhd)
          3698 MiB available memory on the node where the printing process lives
------------------
     ethr =  1.31E-03,  avg # of iterations =  2.7

     total cpu time spent up to now is       29.1 secs

     total energy              =    -827.73917169 Ry
     estimated scf accuracy    <       0.01187651 Ry

     iteration #  4     ecut=    60.00 Ry     beta= 0.70
     Davidson diagonalization with overlap

---- Real-time Memory Report at c_bands before calling an iterative solver
           545 MiB given to the printing process from OS
             0 MiB allocation reported by mallinfo(arena+hblkhd)
          3740 MiB available memory on the node where the printing process lives
------------------
     ethr =  1.48E-05,  avg # of iterations =  4.9

     total cpu time spent up to now is       39.4 secs

     total energy              =    -827.74660421 Ry
     estimated scf accuracy    <       0.00590349 Ry

     iteration #  5     ecut=    60.00 Ry     beta= 0.70
     Davidson diagonalization with overlap

---- Real-time Memory Report at c_bands before calling an iterative solver
           550 MiB given to the printing process from OS
             0 MiB allocation reported by mallinfo(arena+hblkhd)
          3683 MiB available memory on the node where the printing process lives
------------------
     ethr =  7.38E-06,  avg # of iterations =  2.8

     total cpu time spent up to now is       47.1 secs

     total energy              =    -827.74803049 Ry
     estimated scf accuracy    <       0.00048370 Ry

     iteration #  6     ecut=    60.00 Ry     beta= 0.70
     Davidson diagonalization with overlap

---- Real-time Memory Report at c_bands before calling an iterative solver
           552 MiB given to the printing process from OS
             0 MiB allocation reported by mallinfo(arena+hblkhd)
          3679 MiB available memory on the node where the printing process lives
------------------
     ethr =  6.05E-07,  avg # of iterations =  4.4

     total cpu time spent up to now is       56.2 secs

     total energy              =    -827.74797681 Ry
     estimated scf accuracy    <       0.00094535 Ry

     iteration #  7     ecut=    60.00 Ry     beta= 0.70
     Davidson diagonalization with overlap

---- Real-time Memory Report at c_bands before calling an iterative solver
           555 MiB given to the printing process from OS
             0 MiB allocation reported by mallinfo(arena+hblkhd)
          3672 MiB available memory on the node where the printing process lives
------------------
     ethr =  6.05E-07,  avg # of iterations =  3.0

     total cpu time spent up to now is       64.1 secs

     total energy              =    -827.74811042 Ry
     estimated scf accuracy    <       0.00002031 Ry

     iteration #  8     ecut=    60.00 Ry     beta= 0.70
     Davidson diagonalization with overlap

---- Real-time Memory Report at c_bands before calling an iterative solver
           557 MiB given to the printing process from OS
             0 MiB allocation reported by mallinfo(arena+hblkhd)
          3668 MiB available memory on the node where the printing process lives
------------------
     ethr =  2.54E-08,  avg # of iterations =  4.9

     total cpu time spent up to now is       73.9 secs

     total energy              =    -827.74812556 Ry
     estimated scf accuracy    <       0.00001418 Ry

     iteration #  9     ecut=    60.00 Ry     beta= 0.70
     Davidson diagonalization with overlap

---- Real-time Memory Report at c_bands before calling an iterative solver
           561 MiB given to the printing process from OS
             0 MiB allocation reported by mallinfo(arena+hblkhd)
          3863 MiB available memory on the node where the printing process lives
------------------
     ethr =  1.77E-08,  avg # of iterations =  2.0

     total cpu time spent up to now is       81.2 secs

     total energy              =    -827.74812732 Ry
     estimated scf accuracy    <       0.00000076 Ry

     iteration # 10     ecut=    60.00 Ry     beta= 0.70
     Davidson diagonalization with overlap

---- Real-time Memory Report at c_bands before calling an iterative solver
           563 MiB given to the printing process from OS
             0 MiB allocation reported by mallinfo(arena+hblkhd)
          3010 MiB available memory on the node where the printing process lives
------------------
     ethr =  9.50E-10,  avg # of iterations =  5.6

     total cpu time spent up to now is       92.8 secs

     total energy              =    -827.74812803 Ry
     estimated scf accuracy    <       0.00000007 Ry

     iteration # 11     ecut=    60.00 Ry     beta= 0.70
     Davidson diagonalization with overlap

---- Real-time Memory Report at c_bands before calling an iterative solver
           564 MiB given to the printing process from OS
             0 MiB allocation reported by mallinfo(arena+hblkhd)
          3031 MiB available memory on the node where the printing process lives
------------------
     ethr =  9.01E-11,  avg # of iterations =  3.4

     total cpu time spent up to now is      101.4 secs

     total energy              =    -827.74812804 Ry
     estimated scf accuracy    <       0.00000003 Ry

     iteration # 12     ecut=    60.00 Ry     beta= 0.70
     Davidson diagonalization with overlap

---- Real-time Memory Report at c_bands before calling an iterative solver
           564 MiB given to the printing process from OS
             0 MiB allocation reported by mallinfo(arena+hblkhd)
          3051 MiB available memory on the node where the printing process lives
------------------
     ethr =  4.12E-11,  avg # of iterations =  2.9

     total cpu time spent up to now is      108.6 secs

     End of self-consistent calculation

          k = 0.1667 0.1771 0.1622 ( 11920 PWs)   bands (ev):

   -14.0619 -14.0537 -14.0500 -14.0465 -14.0440 -14.0425 -14.0411 -14.0403
   -14.0301 -14.0283 -14.0266 -14.0245 -14.0188 -14.0170 -14.0010 -13.9969
   -13.9946 -13.9914 -13.9857 -13.9814  -6.1372  -5.8843  -5.2589  -4.9222
     0.2273   1.0013   1.7340   2.1437   2.8464   4.0328   4.1901   4.4387
     4.6711   4.7050   5.2346   5.5154   5.7349   6.0472   6.5813   6.8672

     occupation numbers 
     1.0000   1.0000   1.0000   1.0000   1.0000   1.0000   1.0000   1.0000
     1.0000   1.0000   1.0000   1.0000   1.0000   1.0000   1.0000   1.0000
     1.0000   1.0000   1.0000   1.0000   1.0000   1.0000   1.0000   1.0000
     1.0000   1.0000   1.0000   1.0000   1.0000   1.0000   1.0000   1.0000
     1.0000   1.0000   1.0000   1.0000   1.0000   1.0000   1.0000   1.0000

          k = 0.1667 0.1771 0.4865 ( 11910 PWs)   bands (ev):

   -14.0608 -14.0534 -14.0500 -14.0467 -14.0448 -14.0435 -14.0411 -14.0404
   -14.0294 -14.0273 -14.0271 -14.0224 -14.0186 -14.0157 -14.0012 -13.9971
   -13.9948 -13.9918 -13.9855 -13.9818  -6.0263  -5.7830  -5.2490  -4.9441
    -0.0957   0.7146   1.2482   1.7910   2.9310   4.0914   4.3004   4.7616
     4.9946   5.2323   5.2498   5.6214   6.0534   6.3576   6.5599   6.8431

     occupation numbers 
     1.0000   1.0000   1.0000   1.0000   1.0000   1.0000   1.0000   1.0000
     1.0000   1.0000   1.0000   1.0000   1.0000   1.0000   1.0000   1.0000
     1.0000   1.0000   1.0000   1.0000   1.0000   1.0000   1.0000   1.0000
     1.0000   1.0000   1.0000   1.0000   1.0000   1.0000   1.0000   1.0000
     1.0000   1.0000   1.0000   1.0000   1.0000   1.0000   1.0000   1.0000

          k = 0.1667 0.1771 0.8108 ( 11896 PWs)   bands (ev):

   -14.0588 -14.0533 -14.0501 -14.0477 -14.0455 -14.0450 -14.0412 -14.0408
   -14.0293 -14.0278 -14.0247 -14.0202 -14.0174 -14.0142 -14.0011 -13.9981
   -13.9944 -13.9923 -13.9850 -13.9825  -5.8287  -5.6039  -5.2674  -5.0127
    -0.4248   0.2039   0.8174   1.2975   3.2285   4.3232   4.5295   5.0716
     5.1939   5.3906   5.6058   5.7804   6.2137   6.6701   6.7037   7.0911

     occupation numbers 
     1.0000   1.0000   1.0000   1.0000   1.0000   1.0000   1.0000   1.0000
     1.0000   1.0000   1.0000   1.0000   1.0000   1.0000   1.0000   1.0000
     1.0000   1.0000   1.0000   1.0000   1.0000   1.0000   1.0000   1.0000
     1.0000   1.0000   1.0000   1.0000   1.0000   1.0000   1.0000   1.0000
     1.0000   1.0000   1.0000   1.0000   1.0000   1.0000   1.0000   1.0000

          k = 0.1667 0.1771 1.1352 ( 11884 PWs)   bands (ev):

   -14.0565 -14.0544 -14.0496 -14.0488 -14.0460 -14.0459 -14.0413 -14.0411
   -14.0291 -14.0286 -14.0219 -14.0202 -14.0150 -14.0138 -14.0005 -13.9994
   -13.9936 -13.9929 -13.9842 -13.9834  -5.5976  -5.4433  -5.3123  -5.1510
    -0.5150  -0.2823   0.6977   0.8814   3.7009   4.2165   4.8869   5.1174
     5.3161   5.4182   5.6169   5.9330   6.4996   6.8393   6.9859   7.0730

     occupation numbers 
     1.0000   1.0000   1.0000   1.0000   1.0000   1.0000   1.0000   1.0000
     1.0000   1.0000   1.0000   1.0000   1.0000   1.0000   1.0000   1.0000
     1.0000   1.0000   1.0000   1.0000   1.0000   1.0000   1.0000   1.0000
     1.0000   1.0000   1.0000   1.0000   1.0000   1.0000   1.0000   1.0000
     1.0000   1.0000   1.0000   1.0000   1.0000   1.0000   1.0000   1.0000

          k = 0.1667 0.5313 0.1622 ( 11924 PWs)   bands (ev):

   -14.0564 -14.0513 -14.0469 -14.0461 -14.0436 -14.0431 -14.0427 -14.0424
   -14.0319 -14.0305 -14.0294 -14.0223 -14.0185 -14.0143 -13.9984 -13.9977
   -13.9947 -13.9935 -13.9853 -13.9822  -5.9814  -5.7488  -5.1872  -4.9028
     0.0647   0.7307   1.4212   1.5442   2.9604   3.9252   4.2052   4.4798
     4.7984   5.0133   5.2414   5.5474   5.8357   6.4116   6.6492   6.7611

     occupation numbers 
     1.0000   1.0000   1.0000   1.0000   1.0000   1.0000   1.0000   1.0000
     1.0000   1.0000   1.0000   1.0000   1.0000   1.0000   1.0000   1.0000
     1.0000   1.0000   1.0000   1.0000   1.0000   1.0000   1.0000   1.0000
     1.0000   1.0000   1.0000   1.0000   1.0000   1.0000   1.0000   1.0000
     1.0000   1.0000   1.0000   1.0000   1.0000   1.0000   1.0000   1.0000

          k = 0.1667 0.5313 0.4865 ( 11900 PWs)   bands (ev):

   -14.0561 -14.0512 -14.0484 -14.0465 -14.0440 -14.0437 -14.0425 -14.0423
   -14.0326 -14.0306 -14.0271 -14.0213 -14.0175 -14.0132 -13.9987 -13.9971
   -13.9949 -13.9942 -13.9851 -13.9824  -5.8762  -5.6536  -5.1756  -4.9169
    -0.0988   0.6445   1.0964   1.4479   3.0912   3.5272   3.7863   4.4997
     4.7058   5.2443   5.5637   5.6588   6.2980   6.4128   6.6660   6.8385

     occupation numbers 
     1.0000   1.0000   1.0000   1.0000   1.0000   1.0000   1.0000   1.0000
     1.0000   1.0000   1.0000   1.0000   1.0000   1.0000   1.0000   1.0000
     1.0000   1.0000   1.0000   1.0000   1.0000   1.0000   1.0000   1.0000
     1.0000   1.0000   1.0000   1.0000   1.0000   1.0000   1.0000   1.0000
     1.0000   1.0000   1.0000   1.0000   1.0000   1.0000   1.0000   1.0000

          k = 0.1667 0.5313 0.8108 ( 11886 PWs)   bands (ev):

   -14.0556 -14.0512 -14.0505 -14.0475 -14.0447 -14.0444 -14.0427 -14.0423
   -14.0325 -14.0311 -14.0244 -14.0204 -14.0151 -14.0120 -13.9986 -13.9964
   -13.9957 -13.9947 -13.9847 -13.9829  -5.6909  -5.4872  -5.1876  -4.9690
    -0.2904   0.3067   0.8472   1.2125   3.3491   3.4781   3.7347   4.4442
     4.5357   5.3114   5.3863   5.9509   6.1563   6.3844   6.5759   6.8165

     occupation numbers 
     1.0000   1.0000   1.0000   1.0000   1.0000   1.0000   1.0000   1.0000
     1.0000   1.0000   1.0000   1.0000   1.0000   1.0000   1.0000   1.0000
     1.0000   1.0000   1.0000   1.0000   1.0000   1.0000   1.0000   1.0000
     1.0000   1.0000   1.0000   1.0000   1.0000   1.0000   1.0000   1.0000
     1.0000   1.0000   1.0000   1.0000   1.0000   1.0000   1.0000   1.0000

          k = 0.1667 0.5313 1.1352 ( 11874 PWs)   bands (ev):

   -14.0547 -14.0532 -14.0500 -14.0488 -14.0451 -14.0449 -14.0428 -14.0425
   -14.0320 -14.0315 -14.0220 -14.0206 -14.0126 -14.0115 -13.9980 -13.9970
   -13.9956 -13.9950 -13.9841 -13.9835  -5.4783  -5.3400  -5.2244  -5.0837
    -0.3254  -0.1065   0.8089   0.9514   3.6637   3.7185   3.9651   4.2214
     4.4822   4.8273   5.4482   5.7344   6.0573   6.2902   6.5266   6.7029

     occupation numbers 
     1.0000   1.0000   1.0000   1.0000   1.0000   1.0000   1.0000   1.0000
     1.0000   1.0000   1.0000   1.0000   1.0000   1.0000   1.0000   1.0000
     1.0000   1.0000   1.0000   1.0000   1.0000   1.0000   1.0000   1.0000
     1.0000   1.0000   1.0000   1.0000   1.0000   1.0000   1.0000   1.0000
     1.0000   1.0000   1.0000   1.0000   1.0000   1.0000   1.0000   1.0000

          k = 0.1667 0.8855 0.1622 ( 11898 PWs)   bands (ev):

   -14.0528 -14.0505 -14.0483 -14.0478 -14.0449 -14.0399 -14.0397 -14.0396
   -14.0339 -14.0333 -14.0302 -14.0229 -14.0158 -14.0111 -14.0011 -14.0007
   -13.9936 -13.9903 -13.9844 -13.9830  -5.7003  -5.5153  -5.1035  -4.9262
    -0.1626   0.3700   0.7135   0.9471   3.2946   4.0466   4.3991   4.6869
     5.0904   5.1436   5.4024   5.5820   5.9850   6.4250   6.5160   6.8386

     occupation numbers 
     1.0000   1.0000   1.0000   1.0000   1.0000   1.0000   1.0000   1.0000
     1.0000   1.0000   1.0000   1.0000   1.0000   1.0000   1.0000   1.0000
     1.0000   1.0000   1.0000   1.0000   1.0000   1.0000   1.0000   1.0000
     1.0000   1.0000   1.0000   1.0000   1.0000   1.0000   1.0000   1.0000
     1.0000   1.0000   1.0000   1.0000   1.0000   1.0000   1.0000   1.0000

          k = 0.1667 0.8855 0.4865 ( 11900 PWs)   bands (ev):

   -14.0550 -14.0520 -14.0495 -14.0483 -14.0455 -14.0404 -14.0393 -14.0389
   -14.0339 -14.0333 -14.0282 -14.0225 -14.0143 -14.0104 -14.0006 -14.0001
   -13.9938 -13.9909 -13.9843 -13.9831  -5.6088  -5.4339  -5.0854  -4.9217
    -0.1264   0.4615   0.7325   0.9109   3.2971   3.4151   3.7290   4.2554
     4.6747   5.2562   5.3918   5.7847   5.9028   6.1479   6.4203   6.6267

     occupation numbers 
     1.0000   1.0000   1.0000   1.0000   1.0000   1.0000   1.0000   1.0000
     1.0000   1.0000   1.0000   1.0000   1.0000   1.0000   1.0000   1.0000
     1.0000   1.0000   1.0000   1.0000   1.0000   1.0000   1.0000   1.0000
     1.0000   1.0000   1.0000   1.0000   1.0000   1.0000   1.0000   1.0000
     1.0000   1.0000   1.0000   1.0000   1.0000   1.0000   1.0000   1.0000

          k = 0.1667 0.8855 0.8108 ( 11880 PWs)   bands (ev):

   -14.0572 -14.0549 -14.0511 -14.0501 -14.0449 -14.0413 -14.0390 -14.0385
   -14.0332 -14.0330 -14.0259 -14.0223 -14.0118 -14.0093 -13.9997 -13.9993
   -13.9937 -13.9918 -13.9841 -13.9833  -5.4518  -5.2960  -5.0797  -4.9363
    -0.0755   0.4249   0.7777   0.9398   2.9043   3.2197   3.6635   3.8770
     4.1260   4.7946   5.0946   5.4128   5.7036   5.8873   6.0747   6.5589

     occupation numbers 
     1.0000   1.0000   1.0000   1.0000   1.0000   1.0000   1.0000   1.0000
     1.0000   1.0000   1.0000   1.0000   1.0000   1.0000   1.0000   1.0000
     1.0000   1.0000   1.0000   1.0000   1.0000   1.0000   1.0000   1.0000
     1.0000   1.0000   1.0000   1.0000   1.0000   1.0000   1.0000   1.0000
     1.0000   1.0000   1.0000   1.0000   1.0000   1.0000   1.0000   1.0000

          k = 0.1667 0.8855 1.1352 ( 11892 PWs)   bands (ev):

   -14.0582 -14.0573 -14.0520 -14.0517 -14.0438 -14.0425 -14.0388 -14.0386
   -14.0327 -14.0326 -14.0239 -14.0227 -14.0097 -14.0088 -13.9989 -13.9987
   -13.9934 -13.9927 -13.9838 -13.9835  -5.2808  -5.1785  -5.0960  -4.9995
     0.0121   0.1937   0.9026   0.9591   2.9149   3.2465   3.2932   3.6666
     4.0668   4.4831   4.7521   5.1547   5.3280   5.5652   6.1346   6.2874

     occupation numbers 
     1.0000   1.0000   1.0000   1.0000   1.0000   1.0000   1.0000   1.0000
     1.0000   1.0000   1.0000   1.0000   1.0000   1.0000   1.0000   1.0000
     1.0000   1.0000   1.0000   1.0000   1.0000   1.0000   1.0000   1.0000
     1.0000   1.0000   1.0000   1.0000   1.0000   1.0000   1.0000   1.0000
     1.0000   1.0000   1.0000   1.0000   1.0000   1.0000   1.0000   1.0000

          k = 0.1667 1.2397 0.1622 ( 11896 PWs)   bands (ev):

   -14.0539 -14.0523 -14.0514 -14.0501 -14.0410 -14.0388 -14.0368 -14.0359
   -14.0341 -14.0320 -14.0305 -14.0262 -14.0115 -14.0082 -14.0064 -14.0047
   -13.9888 -13.9867 -13.9849 -13.9844  -5.3633  -5.2655  -5.1095  -5.0759
    -0.2233   0.0727   0.2356   0.4616   3.8164   4.2716   4.6189   4.9004
     5.0748   5.1461   5.5186   5.7521   6.1160   6.2724   6.3524   6.5014

     occupation numbers 
     1.0000   1.0000   1.0000   1.0000   1.0000   1.0000   1.0000   1.0000
     1.0000   1.0000   1.0000   1.0000   1.0000   1.0000   1.0000   1.0000
     1.0000   1.0000   1.0000   1.0000   1.0000   1.0000   1.0000   1.0000
     1.0000   1.0000   1.0000   1.0000   1.0000   1.0000   1.0000   1.0000
     1.0000   1.0000   1.0000   1.0000   1.0000   1.0000   1.0000   1.0000

          k = 0.1667 1.2397 0.4865 ( 11900 PWs)   bands (ev):

   -14.0561 -14.0545 -14.0531 -14.0520 -14.0410 -14.0390 -14.0360 -14.0357
   -14.0335 -14.0320 -14.0290 -14.0258 -14.0105 -14.0083 -14.0046 -14.0037
   -13.9890 -13.9873 -13.9847 -13.9844  -5.2958  -5.2063  -5.0751  -5.0410
    -0.0787   0.2107   0.3689   0.5282   3.5700   3.7716   4.0158   4.3064
     4.4169   4.8951   5.2818   5.4606   5.5786   5.8667   6.2356   6.5266

     occupation numbers 
     1.0000   1.0000   1.0000   1.0000   1.0000   1.0000   1.0000   1.0000
     1.0000   1.0000   1.0000   1.0000   1.0000   1.0000   1.0000   1.0000
     1.0000   1.0000   1.0000   1.0000   1.0000   1.0000   1.0000   1.0000
     1.0000   1.0000   1.0000   1.0000   1.0000   1.0000   1.0000   1.0000
     1.0000   1.0000   1.0000   1.0000   1.0000   1.0000   1.0000   1.0000

          k = 0.1667 1.2397 0.8108 ( 11897 PWs)   bands (ev):

   -14.0590 -14.0578 -14.0553 -14.0546 -14.0410 -14.0394 -14.0356 -14.0355
   -14.0325 -14.0316 -14.0274 -14.0253 -14.0088 -14.0076 -14.0025 -14.0022
   -13.9891 -13.9881 -13.9845 -13.9844  -5.1878  -5.1135  -5.0329  -4.9967
     0.1651   0.4220   0.5831   0.6386   2.9222   3.3536   3.4468   3.8349
     3.9474   4.3560   4.6012   5.0680   5.1527   5.4344   6.0881   6.2416

     occupation numbers 
     1.0000   1.0000   1.0000   1.0000   1.0000   1.0000   1.0000   1.0000
     1.0000   1.0000   1.0000   1.0000   1.0000   1.0000   1.0000   1.0000
     1.0000   1.0000   1.0000   1.0000   1.0000   1.0000   1.0000   1.0000
     1.0000   1.0000   1.0000   1.0000   1.0000   1.0000   1.0000   1.0000
     1.0000   1.0000   1.0000   1.0000   1.0000   1.0000   1.0000   1.0000

          k = 0.1667 1.2397 1.1352 ( 11903 PWs)   bands (ev):

   -14.0607 -14.0603 -14.0568 -14.0565 -14.0407 -14.0401 -14.0355 -14.0354
   -14.0316 -14.0313 -14.0262 -14.0254 -14.0074 -14.0070 -14.0011 -14.0011
   -13.9890 -13.9887 -13.9844 -13.9843  -5.0856  -5.0419  -5.0113  -4.9812
     0.3992   0.5062   0.7660   0.7919   2.6609   2.8606   3.2141   3.4050
     3.7153   3.8243   4.2796   4.5872   5.1363   5.3322   5.9922   6.0323

     occupation numbers 
     1.0000   1.0000   1.0000   1.0000   1.0000   1.0000   1.0000   1.0000
     1.0000   1.0000   1.0000   1.0000   1.0000   1.0000   1.0000   1.0000
     1.0000   1.0000   1.0000   1.0000   1.0000   1.0000   1.0000   1.0000
     1.0000   1.0000   1.0000   1.0000   1.0000   1.0000   1.0000   1.0000
     1.0000   1.0000   1.0000   1.0000   1.0000   1.0000   1.0000   1.0000

          k =-0.5000 0.1771 0.1622 ( 11918 PWs)   bands (ev):

   -14.0585 -14.0585 -14.0478 -14.0478 -14.0434 -14.0434 -14.0405 -14.0405
   -14.0278 -14.0278 -14.0270 -14.0270 -14.0179 -14.0179 -13.9992 -13.9992
   -13.9927 -13.9927 -13.9835 -13.9835  -6.0329  -6.0329  -5.0685  -5.0685
     0.4998   0.4998   2.0442   2.0442   3.4391   3.4391   4.3468   4.3468
     4.7468   4.7468   5.3111   5.3111   5.6487   5.6487   6.7677   6.7677

     occupation numbers 
     1.0000   1.0000   1.0000   1.0000   1.0000   1.0000   1.0000   1.0000
     1.0000   1.0000   1.0000   1.0000   1.0000   1.0000   1.0000   1.0000
     1.0000   1.0000   1.0000   1.0000   1.0000   1.0000   1.0000   1.0000
     1.0000   1.0000   1.0000   1.0000   1.0000   1.0000   1.0000   1.0000
     1.0000   1.0000   1.0000   1.0000   1.0000   1.0000   1.0000   1.0000

          k =-0.5000 0.1771 0.4865 ( 11906 PWs)   bands (ev):

   -14.0577 -14.0577 -14.0479 -14.0479 -14.0442 -14.0442 -14.0407 -14.0407
   -14.0280 -14.0280 -14.0253 -14.0253 -14.0170 -14.0170 -13.9994 -13.9994
   -13.9930 -13.9930 -13.9836 -13.9836  -5.9268  -5.9268  -5.0744  -5.0744
     0.1955   0.1955   1.5952   1.5952   3.6289   3.6289   4.3985   4.3985
     5.0772   5.0772   5.4649   5.4649   6.1256   6.1256   6.6524   6.6524

     occupation numbers 
     1.0000   1.0000   1.0000   1.0000   1.0000   1.0000   1.0000   1.0000
     1.0000   1.0000   1.0000   1.0000   1.0000   1.0000   1.0000   1.0000
     1.0000   1.0000   1.0000   1.0000   1.0000   1.0000   1.0000   1.0000
     1.0000   1.0000   1.0000   1.0000   1.0000   1.0000   1.0000   1.0000
     1.0000   1.0000   1.0000   1.0000   1.0000   1.0000   1.0000   1.0000

          k =-0.5000 0.1771 0.8108 ( 11894 PWs)   bands (ev):

   -14.0565 -14.0565 -14.0485 -14.0485 -14.0452 -14.0452 -14.0412 -14.0412
   -14.0283 -14.0283 -14.0229 -14.0229 -14.0155 -14.0155 -13.9997 -13.9997
   -13.9933 -13.9933 -13.9837 -13.9837  -5.7401  -5.7401  -5.1164  -5.1164
    -0.1631  -0.1631   1.0617   1.0617   3.9398   3.9398   4.6746   4.6746
     5.2163   5.2163   5.7078   5.7078   6.3400   6.3400   6.8622   6.8622

     occupation numbers 
     1.0000   1.0000   1.0000   1.0000   1.0000   1.0000   1.0000   1.0000
     1.0000   1.0000   1.0000   1.0000   1.0000   1.0000   1.0000   1.0000
     1.0000   1.0000   1.0000   1.0000   1.0000   1.0000   1.0000   1.0000
     1.0000   1.0000   1.0000   1.0000   1.0000   1.0000   1.0000   1.0000
     1.0000   1.0000   1.0000   1.0000   1.0000   1.0000   1.0000   1.0000

          k =-0.5000 0.1771 1.1352 ( 11874 PWs)   bands (ev):

   -14.0554 -14.0554 -14.0493 -14.0493 -14.0457 -14.0457 -14.0416 -14.0416
   -14.0285 -14.0285 -14.0212 -14.0212 -14.0144 -14.0144 -13.9998 -13.9998
   -13.9934 -13.9934 -13.9838 -13.9838  -5.5398  -5.5398  -5.2128  -5.2128
    -0.3732  -0.3732   0.7145   0.7145   4.3501   4.3501   4.9742   4.9742
     5.0492   5.0492   5.5512   5.5512   6.7429   6.7429   7.0138   7.0138

     occupation numbers 
     1.0000   1.0000   1.0000   1.0000   1.0000   1.0000   1.0000   1.0000
     1.0000   1.0000   1.0000   1.0000   1.0000   1.0000   1.0000   1.0000
     1.0000   1.0000   1.0000   1.0000   1.0000   1.0000   1.0000   1.0000
     1.0000   1.0000   1.0000   1.0000   1.0000   1.0000   1.0000   1.0000
     1.0000   1.0000   1.0000   1.0000   1.0000   1.0000   1.0000   1.0000

          k =-0.5000 0.5313 0.1622 ( 11912 PWs)   bands (ev):

   -14.0540 -14.0540 -14.0464 -14.0464 -14.0438 -14.0438 -14.0423 -14.0423
   -14.0310 -14.0310 -14.0264 -14.0264 -14.0159 -14.0159 -13.9977 -13.9977
   -13.9944 -13.9944 -13.9837 -13.9837  -5.8849  -5.8849  -5.0249  -5.0249
     0.3160   0.3160   1.5380   1.5380   3.5678   3.5678   4.2143   4.2143
     5.0601   5.0601   5.2297   5.2297   5.9055   5.9055   6.8016   6.8016

     occupation numbers 
     1.0000   1.0000   1.0000   1.0000   1.0000   1.0000   1.0000   1.0000
     1.0000   1.0000   1.0000   1.0000   1.0000   1.0000   1.0000   1.0000
     1.0000   1.0000   1.0000   1.0000   1.0000   1.0000   1.0000   1.0000
     1.0000   1.0000   1.0000   1.0000   1.0000   1.0000   1.0000   1.0000
     1.0000   1.0000   1.0000   1.0000   1.0000   1.0000   1.0000   1.0000

          k =-0.5000 0.5313 0.4865 ( 11884 PWs)   bands (ev):

   -14.0538 -14.0538 -14.0476 -14.0476 -14.0439 -14.0439 -14.0424 -14.0424
   -14.0311 -14.0311 -14.0250 -14.0250 -14.0149 -14.0149 -13.9976 -13.9976
   -13.9949 -13.9949 -13.9836 -13.9836  -5.7846  -5.7846  -5.0263  -5.0263
     0.1770   0.1770   1.3338   1.3338   3.5307   3.5307   4.0410   4.0410
     4.7045   4.7045   5.7228   5.7228   6.3028   6.3028   6.7513   6.7513

     occupation numbers 
     1.0000   1.0000   1.0000   1.0000   1.0000   1.0000   1.0000   1.0000
     1.0000   1.0000   1.0000   1.0000   1.0000   1.0000   1.0000   1.0000
     1.0000   1.0000   1.0000   1.0000   1.0000   1.0000   1.0000   1.0000
     1.0000   1.0000   1.0000   1.0000   1.0000   1.0000   1.0000   1.0000
     1.0000   1.0000   1.0000   1.0000   1.0000   1.0000   1.0000   1.0000

          k =-0.5000 0.5313 0.8108 ( 11886 PWs)   bands (ev):

   -14.0536 -14.0536 -14.0495 -14.0495 -14.0442 -14.0442 -14.0423 -14.0423
   -14.0312 -14.0312 -14.0232 -14.0232 -14.0132 -14.0132 -13.9974 -13.9974
   -13.9955 -13.9955 -13.9836 -13.9836  -5.6101  -5.6101  -5.0573  -5.0573
    -0.0398  -0.0398   1.0399   1.0399   3.5278   3.5278   4.2120   4.2120
     4.5708   4.5708   5.7588   5.7588   6.1658   6.1658   6.7147   6.7147

     occupation numbers 
     1.0000   1.0000   1.0000   1.0000   1.0000   1.0000   1.0000   1.0000
     1.0000   1.0000   1.0000   1.0000   1.0000   1.0000   1.0000   1.0000
     1.0000   1.0000   1.0000   1.0000   1.0000   1.0000   1.0000   1.0000
     1.0000   1.0000   1.0000   1.0000   1.0000   1.0000   1.0000   1.0000
     1.0000   1.0000   1.0000   1.0000   1.0000   1.0000   1.0000   1.0000

          k =-0.5000 0.5313 1.1352 ( 11884 PWs)   bands (ev):

   -14.0533 -14.0533 -14.0509 -14.0509 -14.0446 -14.0446 -14.0422 -14.0422
   -14.0313 -14.0313 -14.0220 -14.0220 -14.0118 -14.0118 -13.9972 -13.9972
   -13.9959 -13.9959 -13.9836 -13.9836  -5.4263  -5.4263  -5.1372  -5.1372
    -0.1941  -0.1941   0.8199   0.8199   3.7647   3.7647   4.1451   4.1451
     4.8258   4.8258   5.3389   5.3389   6.0184   6.0184   6.5311   6.5311

     occupation numbers 
     1.0000   1.0000   1.0000   1.0000   1.0000   1.0000   1.0000   1.0000
     1.0000   1.0000   1.0000   1.0000   1.0000   1.0000   1.0000   1.0000
     1.0000   1.0000   1.0000   1.0000   1.0000   1.0000   1.0000   1.0000
     1.0000   1.0000   1.0000   1.0000   1.0000   1.0000   1.0000   1.0000
     1.0000   1.0000   1.0000   1.0000   1.0000   1.0000   1.0000   1.0000

          k =-0.5000 0.8855 0.1622 ( 11886 PWs)   bands (ev):

   -14.0521 -14.0521 -14.0474 -14.0474 -14.0429 -14.0429 -14.0399 -14.0399
   -14.0333 -14.0333 -14.0267 -14.0267 -14.0130 -14.0130 -14.0010 -14.0010
   -13.9919 -13.9919 -13.9837 -13.9837  -5.6224  -5.6224  -4.9998  -4.9998
     0.0590   0.0590   0.8414   0.8414   3.8576   3.8576   4.3899   4.3899
     5.2282   5.2282   5.4112   5.4112   5.9491   5.9491   6.6936   6.6936

     occupation numbers 
     1.0000   1.0000   1.0000   1.0000   1.0000   1.0000   1.0000   1.0000
     1.0000   1.0000   1.0000   1.0000   1.0000   1.0000   1.0000   1.0000
     1.0000   1.0000   1.0000   1.0000   1.0000   1.0000   1.0000   1.0000
     1.0000   1.0000   1.0000   1.0000   1.0000   1.0000   1.0000   1.0000
     1.0000   1.0000   1.0000   1.0000   1.0000   1.0000   1.0000   1.0000

          k =-0.5000 0.8855 0.4865 ( 11888 PWs)   bands (ev):

   -14.0537 -14.0537 -14.0489 -14.0489 -14.0431 -14.0431 -14.0392 -14.0392
   -14.0328 -14.0328 -14.0260 -14.0260 -14.0118 -14.0118 -14.0006 -14.0006
   -13.9922 -13.9922 -13.9836 -13.9836  -5.5357  -5.5357  -4.9889  -4.9889
     0.1117   0.1117   0.8476   0.8476   3.4304   3.4304   4.1649   4.1649
     4.6364   4.6364   5.6650   5.6650   5.8626   5.8626   6.5884   6.5884

     occupation numbers 
     1.0000   1.0000   1.0000   1.0000   1.0000   1.0000   1.0000   1.0000
     1.0000   1.0000   1.0000   1.0000   1.0000   1.0000   1.0000   1.0000
     1.0000   1.0000   1.0000   1.0000   1.0000   1.0000   1.0000   1.0000
     1.0000   1.0000   1.0000   1.0000   1.0000   1.0000   1.0000   1.0000
     1.0000   1.0000   1.0000   1.0000   1.0000   1.0000   1.0000   1.0000

          k =-0.5000 0.8855 0.8108 ( 11894 PWs)   bands (ev):

   -14.0559 -14.0559 -14.0510 -14.0510 -14.0432 -14.0432 -14.0386 -14.0386
   -14.0323 -14.0323 -14.0250 -14.0250 -14.0100 -14.0100 -13.9999 -13.9999
   -13.9926 -13.9926 -13.9836 -13.9836  -5.3891  -5.3891  -4.9928  -4.9928
     0.1417   0.1417   0.8670   0.8670   3.0746   3.0746   3.8381   3.8381
     4.4837   4.4837   5.1358   5.1358   5.6519   5.6519   6.3941   6.3941

     occupation numbers 
     1.0000   1.0000   1.0000   1.0000   1.0000   1.0000   1.0000   1.0000
     1.0000   1.0000   1.0000   1.0000   1.0000   1.0000   1.0000   1.0000
     1.0000   1.0000   1.0000   1.0000   1.0000   1.0000   1.0000   1.0000
     1.0000   1.0000   1.0000   1.0000   1.0000   1.0000   1.0000   1.0000
     1.0000   1.0000   1.0000   1.0000   1.0000   1.0000   1.0000   1.0000

          k =-0.5000 0.8855 1.1352 ( 11880 PWs)   bands (ev):

   -14.0573 -14.0573 -14.0525 -14.0525 -14.0433 -14.0433 -14.0384 -14.0384
   -14.0320 -14.0320 -14.0243 -14.0243 -14.0085 -14.0085 -13.9995 -13.9995
   -13.9929 -13.9929 -13.9836 -13.9836  -5.2419  -5.2419  -5.0357  -5.0357
     0.1171   0.1171   0.8982   0.8982   3.0846   3.0846   3.4272   3.4272
     4.4736   4.4736   4.7932   4.7932   5.5596   5.5596   6.0414   6.0414

     occupation numbers 
     1.0000   1.0000   1.0000   1.0000   1.0000   1.0000   1.0000   1.0000
     1.0000   1.0000   1.0000   1.0000   1.0000   1.0000   1.0000   1.0000
     1.0000   1.0000   1.0000   1.0000   1.0000   1.0000   1.0000   1.0000
     1.0000   1.0000   1.0000   1.0000   1.0000   1.0000   1.0000   1.0000
     1.0000   1.0000   1.0000   1.0000   1.0000   1.0000   1.0000   1.0000

          k =-0.5000 1.2397 0.1622 ( 11880 PWs)   bands (ev):

   -14.0528 -14.0528 -14.0512 -14.0512 -14.0389 -14.0389 -14.0380 -14.0380
   -14.0320 -14.0320 -14.0287 -14.0287 -14.0096 -14.0096 -14.0057 -14.0057
   -13.9877 -13.9877 -13.9847 -13.9847  -5.3202  -5.3202  -5.0871  -5.0871
    -0.0178  -0.0178   0.2580   0.2580   4.3265   4.3265   4.6699   4.6699
     5.1535   5.1535   5.3751   5.3751   6.0657   6.0657   6.3896   6.3896

     occupation numbers 
     1.0000   1.0000   1.0000   1.0000   1.0000   1.0000   1.0000   1.0000
     1.0000   1.0000   1.0000   1.0000   1.0000   1.0000   1.0000   1.0000
     1.0000   1.0000   1.0000   1.0000   1.0000   1.0000   1.0000   1.0000
     1.0000   1.0000   1.0000   1.0000   1.0000   1.0000   1.0000   1.0000
     1.0000   1.0000   1.0000   1.0000   1.0000   1.0000   1.0000   1.0000

          k =-0.5000 1.2397 0.4865 ( 11910 PWs)   bands (ev):

   -14.0548 -14.0548 -14.0531 -14.0531 -14.0391 -14.0391 -14.0377 -14.0377
   -14.0311 -14.0311 -14.0282 -14.0282 -14.0085 -14.0085 -14.0049 -14.0049
   -13.9879 -13.9879 -13.9847 -13.9847  -5.2567  -5.2567  -5.0526  -5.0526
     0.1171   0.1171   0.3705   0.3705   3.7204   3.7204   4.2242   4.2242
     4.7410   4.7410   5.1813   5.1813   5.7448   5.7448   6.1740   6.1740

     occupation numbers 
     1.0000   1.0000   1.0000   1.0000   1.0000   1.0000   1.0000   1.0000
     1.0000   1.0000   1.0000   1.0000   1.0000   1.0000   1.0000   1.0000
     1.0000   1.0000   1.0000   1.0000   1.0000   1.0000   1.0000   1.0000
     1.0000   1.0000   1.0000   1.0000   1.0000   1.0000   1.0000   1.0000
     1.0000   1.0000   1.0000   1.0000   1.0000   1.0000   1.0000   1.0000

          k =-0.5000 1.2397 0.8108 ( 11910 PWs)   bands (ev):

   -14.0576 -14.0576 -14.0558 -14.0558 -14.0395 -14.0395 -14.0375 -14.0375
   -14.0301 -14.0301 -14.0274 -14.0274 -14.0068 -14.0068 -14.0036 -14.0036
   -13.9880 -13.9880 -13.9848 -13.9848  -5.1563  -5.1563  -5.0092  -5.0092
     0.3218   0.3218   0.5653   0.5653   3.1410   3.1410   3.6438   3.6438
     4.1893   4.1893   4.6403   4.6403   5.6037   5.6037   5.9704   5.9704

     occupation numbers 
     1.0000   1.0000   1.0000   1.0000   1.0000   1.0000   1.0000   1.0000
     1.0000   1.0000   1.0000   1.0000   1.0000   1.0000   1.0000   1.0000
     1.0000   1.0000   1.0000   1.0000   1.0000   1.0000   1.0000   1.0000
     1.0000   1.0000   1.0000   1.0000   1.0000   1.0000   1.0000   1.0000
     1.0000   1.0000   1.0000   1.0000   1.0000   1.0000   1.0000   1.0000

          k =-0.5000 1.2397 1.1352 ( 11904 PWs)   bands (ev):

   -14.0594 -14.0594 -14.0576 -14.0576 -14.0398 -14.0398 -14.0375 -14.0375
   -14.0294 -14.0294 -14.0268 -14.0268 -14.0055 -14.0055 -14.0027 -14.0027
   -13.9882 -13.9882 -13.9848 -13.9848  -5.0682  -5.0682  -4.9919  -4.9919
     0.4625   0.4625   0.7577   0.7577   2.9242   2.9242   3.1735   3.1735
     3.8097   3.8097   4.1255   4.1255   5.6979   5.6979   5.8794   5.8794

     occupation numbers 
     1.0000   1.0000   1.0000   1.0000   1.0000   1.0000   1.0000   1.0000
     1.0000   1.0000   1.0000   1.0000   1.0000   1.0000   1.0000   1.0000
     1.0000   1.0000   1.0000   1.0000   1.0000   1.0000   1.0000   1.0000
     1.0000   1.0000   1.0000   1.0000   1.0000   1.0000   1.0000   1.0000
     1.0000   1.0000   1.0000   1.0000   1.0000   1.0000   1.0000   1.0000

     highest occupied level (ev):     7.0911

!    total energy              =    -827.74812804 Ry
     estimated scf accuracy    <          3.7E-10 Ry

     The total energy is the sum of the following terms:
     one-electron contribution =    -271.50749096 Ry
     hartree contribution      =     184.08897120 Ry
     xc contribution           =    -308.89162608 Ry
     ewald contribution        =    -431.31998858 Ry
     DFT-D3 Dispersion         =      -0.11799362 Ry

     convergence has been achieved in  12 iterations

     Forces acting on atoms (cartesian axes, Ry/au):

     atom    1 type  2   force =    -0.00598610    0.00000000   -0.00060205
     atom    2 type  1   force =     0.00636326    0.00000000    0.00082360
     atom    3 type  2   force =     0.00598610    0.00000000   -0.00060205
     atom    4 type  1   force =    -0.00636326   -0.00000000    0.00082360
     atom    5 type  2   force =    -0.00598610    0.00000000    0.00060205
     atom    6 type  1   force =     0.00636326   -0.00000000   -0.00082360
     atom    7 type  2   force =     0.00598610    0.00000000    0.00060205
     atom    8 type  1   force =    -0.00636326   -0.00000000   -0.00082360
     The non-local contrib.  to forces
     atom    1 type  2   force =    -0.09789625    0.00000000    0.11510449
     atom    2 type  1   force =     0.33950273    0.00000000    0.30272401
     atom    3 type  2   force =     0.09789625    0.00000000    0.11510449
     atom    4 type  1   force =    -0.33950273    0.00000000    0.30272401
     atom    5 type  2   force =    -0.09789625    0.00000000   -0.11510449
     atom    6 type  1   force =     0.33950273    0.00000000   -0.30272401
     atom    7 type  2   force =     0.09789625    0.00000000   -0.11510449
     atom    8 type  1   force =    -0.33950273    0.00000000   -0.30272401
     The ionic contribution  to forces
     atom    1 type  2   force =     0.98613425   -0.00000000   -1.39097960
     atom    2 type  1   force =    -0.58199566    0.00000000   -0.84619639
     atom    3 type  2   force =    -0.98613425    0.00000000   -1.39097960
     atom    4 type  1   force =     0.58199566    0.00000000   -0.84619639
     atom    5 type  2   force =     0.98613425    0.00000000    1.39097960
     atom    6 type  1   force =    -0.58199566    0.00000000    0.84619639
     atom    7 type  2   force =    -0.98613425    0.00000000    1.39097960
     atom    8 type  1   force =     0.58199566    0.00000000    0.84619639
     The local contribution  to forces
     atom    1 type  2   force =    -0.90488181    0.00000000    1.28612986
     atom    2 type  1   force =     0.25630841   -0.00000000    0.54796717
     atom    3 type  2   force =     0.90488181   -0.00000000    1.28612986
     atom    4 type  1   force =    -0.25630841    0.00000000    0.54796717
     atom    5 type  2   force =    -0.90488181    0.00000000   -1.28612986
     atom    6 type  1   force =     0.25630841   -0.00000000   -0.54796717
     atom    7 type  2   force =     0.90488181    0.00000000   -1.28612986
     atom    8 type  1   force =    -0.25630841   -0.00000000   -0.54796717
     The core correction contribution to forces
     atom    1 type  2   force =     0.01118568    0.00000000   -0.01270921
     atom    2 type  1   force =    -0.00705986   -0.00000000   -0.00474733
     atom    3 type  2   force =    -0.01118568   -0.00000000   -0.01270921
     atom    4 type  1   force =     0.00705986   -0.00000000   -0.00474733
     atom    5 type  2   force =     0.01118568   -0.00000000    0.01270921
     atom    6 type  1   force =    -0.00705986   -0.00000000    0.00474733
     atom    7 type  2   force =    -0.01118568   -0.00000000    0.01270921
     atom    8 type  1   force =     0.00705986   -0.00000000    0.00474733
     The Hubbard contrib.    to forces
     atom    1 type  2   force =     0.00000000    0.00000000    0.00000000
     atom    2 type  1   force =     0.00000000    0.00000000    0.00000000
     atom    3 type  2   force =     0.00000000    0.00000000    0.00000000
     atom    4 type  1   force =     0.00000000    0.00000000    0.00000000
     atom    5 type  2   force =     0.00000000    0.00000000    0.00000000
     atom    6 type  1   force =     0.00000000    0.00000000    0.00000000
     atom    7 type  2   force =     0.00000000    0.00000000    0.00000000
     atom    8 type  1   force =     0.00000000    0.00000000    0.00000000
     The SCF correction term to forces
     atom    1 type  2   force =     0.00000138   -0.00000000   -0.00000115
     atom    2 type  1   force =     0.00000077   -0.00000000    0.00000290
     atom    3 type  2   force =    -0.00000138   -0.00000000   -0.00000115
     atom    4 type  1   force =    -0.00000077   -0.00000000    0.00000290
     atom    5 type  2   force =     0.00000138   -0.00000000    0.00000115
     atom    6 type  1   force =     0.00000077    0.00000000   -0.00000290
     atom    7 type  2   force =    -0.00000138   -0.00000000    0.00000115
     atom    8 type  1   force =    -0.00000077   -0.00000000   -0.00000290

     DFT-D3 dispersion contribution to forces:
     atom    1 type  2   force =    -0.00052935   -0.00000000    0.00185356
     atom    2 type  1   force =    -0.00039314    0.00000000    0.00107324
     atom    3 type  2   force =     0.00052935    0.00000000    0.00185356
     atom    4 type  1   force =     0.00039314    0.00000000    0.00107324
     atom    5 type  2   force =    -0.00052935   -0.00000000   -0.00185356
     atom    6 type  1   force =    -0.00039314    0.00000000   -0.00107324
     atom    7 type  2   force =     0.00052935   -0.00000000   -0.00185356
     atom    8 type  1   force =     0.00039314   -0.00000000   -0.00107324

     Total force =     0.017592     Total SCF correction =     0.000007

     DFT-D3 dispersion Force =     0.004482

     Writing all to output data dir ./tmp/SnSe_pnma.save/ :
     XML data file, charge density, pseudopotentials, collected wavefunctions
 
     init_run     :      3.71s CPU      4.17s WALL (       1 calls)
     electrons    :     99.16s CPU    104.27s WALL (       1 calls)
     forces       :      1.35s CPU      1.58s WALL (       1 calls)
     force_dftd3  :      0.05s CPU      0.05s WALL (       1 calls)

     Called by init_run:
     wfcinit      :      2.57s CPU      2.65s WALL (       1 calls)
     wfcinit:atom :      0.03s CPU      0.04s WALL (      11 calls)
     wfcinit:wfcr :      2.29s CPU      2.32s WALL (      11 calls)
     potinit      :      0.30s CPU      0.35s WALL (       1 calls)
     hinit0       :      0.30s CPU      0.32s WALL (       1 calls)

     Called by electrons:
     c_bands      :     73.50s CPU     73.93s WALL (      12 calls)
     sum_band     :     18.36s CPU     20.65s WALL (      12 calls)
     v_of_rho     :      2.90s CPU      3.07s WALL (      13 calls)
     v_h          :      0.23s CPU      0.24s WALL (      13 calls)
     v_xc         :      2.86s CPU      3.04s WALL (      14 calls)
     newd         :      4.36s CPU      6.79s WALL (      13 calls)
     mix_rho      :      0.34s CPU      0.36s WALL (      12 calls)
     energy_dftd3 :      0.04s CPU      0.04s WALL (       1 calls)

     Called by c_bands:
     init_us_2    :      1.96s CPU      1.99s WALL (     286 calls)
     cegterg      :     67.24s CPU     67.53s WALL (     132 calls)

     Called by sum_band:
     sum_band:wei :      0.00s CPU      0.00s WALL (      12 calls)
     sum_band:loo :     13.32s CPU     13.40s WALL (      12 calls)
     sum_band:buf :      0.13s CPU      0.13s WALL (     132 calls)
     sum_band:ini :      0.88s CPU      0.89s WALL (     132 calls)
     sum_band:cal :      1.09s CPU      1.09s WALL (     132 calls)
     sum_band:bec :      0.01s CPU      0.01s WALL (     132 calls)
     addusdens    :      4.51s CPU      6.65s WALL (      12 calls)
                                        0.00s GPU  (      12 calls)
     addusd:skk   :      0.03s CPU      0.04s WALL (      24 calls)
                                        0.00s GPU  (      24 calls)

     Called by *egterg:
     cdiaghg      :      1.01s CPU      1.01s WALL (     611 calls)
     cegterg:over :      2.71s CPU      2.71s WALL (     479 calls)
     cegterg:upda :      1.67s CPU      1.68s WALL (     479 calls)
     cegterg:last :      4.03s CPU      4.04s WALL (     340 calls)
     h_psi        :     54.11s CPU     54.39s WALL (     622 calls)
     s_psi        :      4.17s CPU      4.17s WALL (     622 calls)
     g_psi        :      0.18s CPU      0.18s WALL (     479 calls)

     Called by h_psi:
     h_psi:calbec :      3.65s CPU      3.66s WALL (     622 calls)
     vloc_psi     :     45.96s CPU     46.22s WALL (     622 calls)
     add_vuspsi   :      4.13s CPU      4.14s WALL (     622 calls)

     General routines
     calbec       :      5.10s CPU      5.11s WALL (     798 calls)
     fft          :      1.61s CPU      1.64s WALL (     178 calls)
     ffts         :      0.05s CPU      0.05s WALL (      25 calls)
     fftw         :     29.71s CPU     29.85s WALL (   38338 calls)
     interpolate  :      0.16s CPU      0.16s WALL (      13 calls)
 
     Parallel routines
 
     PWSCF        :   1m44.50s CPU   1m51.22s WALL

 
   This run was terminated on:  18:51:48  20May2026            

=------------------------------------------------------------------------------=
   JOB DONE.
=------------------------------------------------------------------------------=
