
     Program PWSCF v.7.3.1 starts on 20May2026 at 15:19:42 

     This program is part of the open-source Quantum ESPRESSO suite
     for quantum simulation of materials; please cite
         "P. Giannozzi et al., J. Phys.:Condens. Matter 21 395502 (2009);
         "P. Giannozzi et al., J. Phys.:Condens. Matter 29 465901 (2017);
         "P. Giannozzi et al., J. Chem. Phys. 152 154105 (2020);
          URL http://www.quantum-espresso.org", 
     in publications or presentations arising from this work. More details at
     http://www.quantum-espresso.org/quote

     Parallel version (MPI & OpenMP), running on       6 processor cores
     Number of MPI processes:                 6
     Threads/MPI process:                     1

     MPI processes distributed on     1 nodes
     10756 MiB available memory on the printing compute node when the environment starts
 
     Waiting for input...
     Reading input from standard input

     Current dimensions of program PWSCF are:
     Max number of different atomic species (ntypx) = 10
     Max number of k-points (npk) =  40000
     Max angular momentum in pseudopotentials (lmaxx) =  4
 
     K-points division:     npool     =       3
     R & G space division:  proc/nbgrp/npool/nimage =       2
     Subspace diagonalization in iterative solution of the eigenvalue problem:
     a serial algorithm will be used

 
     Parallelization info
     --------------------
     sticks:   dense  smooth     PW     G-vecs:    dense   smooth      PW
     Min        2822    1124    328               103121    26081    4107
     Max        2823    1125    329               103122    26082    4108
     Sum        5645    2249    657               206243    52163    8215
 
     Using Slab Decomposition
 


     bravais-lattice index     =            8
     lattice parameter (alat)  =      22.5066  a.u.
     unit-cell volume          =    1527.3067 (a.u.)^3
     number of atoms/cell      =            8
     number of atomic types    =            2
     number of electrons       =        80.00
     number of Kohn-Sham states=           40
     kinetic-energy cutoff     =      40.0000  Ry
     charge density cutoff     =     400.0000  Ry
     scf convergence threshold =      1.0E-08
     mixing beta               =       0.7000
     number of iterations used =            8  plain     mixing
     Exchange-correlation= SLA  PW   PBE  PBE
                           (   1   4   3   4   0   0   0)

     celldm(1)=  22.506638  celldm(2)=   0.350243  celldm(3)=   0.382494
     celldm(4)=   0.000000  celldm(5)=   0.000000  celldm(6)=   0.000000

     crystal axes: (cart. coord. in units of alat)
               a(1) = (   1.000000   0.000000   0.000000 )  
               a(2) = (   0.000000   0.350243   0.000000 )  
               a(3) = (   0.000000   0.000000   0.382494 )  

     reciprocal axes: (cart. coord. in units 2 pi/alat)
               b(1) = (  1.000000  0.000000  0.000000 )  
               b(2) = (  0.000000  2.855157  0.000000 )  
               b(3) = (  0.000000  0.000000  2.614422 )  


     PseudoPot. # 1 for Sn read from file:
     ../pseudo/Sn_pbe_v1.uspp.F.UPF
     MD5 check sum: 4cf58ce39ec5d5d420df3dd08604eb00
     Pseudo is Ultrasoft + core correction, Zval = 14.0
     Generated by new atomic code, or converted to UPF format
     Using radial grid of  891 points,  6 beta functions with: 
                l(1) =   0
                l(2) =   0
                l(3) =   1
                l(4) =   1
                l(5) =   2
                l(6) =   2
     Q(r) pseudized with  6 coefficients,  rinner =    1.200   1.200   1.200
                                                       1.200   1.200

     PseudoPot. # 2 for Se read from file:
     ../pseudo/Se_pbe_v1.uspp.F.UPF
     MD5 check sum: 1b3568f3a8ae88f9a2a0ad0698632c85
     Pseudo is Ultrasoft + core correction, Zval =  6.0
     Generated by new atomic code, or converted to UPF format
     Using radial grid of  877 points,  6 beta functions with: 
                l(1) =   0
                l(2) =   0
                l(3) =   1
                l(4) =   1
                l(5) =   2
                l(6) =   2
     Q(r) pseudized with  8 coefficients,  rinner =    1.300   1.300   1.300
                                                       1.300   1.300

     atomic species   valence    mass     pseudopotential
     Sn               14.00   118.71000     Sn( 1.00)
     Se                6.00    78.97100     Se( 1.00)

      8 Sym. Ops., with inversion, found ( 6 have fractional translation)


                                    s                        frac. trans.

      isym =  1     identity                                     

 cryst.   s( 1) = (     1          0          0      )
                  (     0          1          0      )
                  (     0          0          1      )

 cart.    s( 1) = (  1.0000000  0.0000000  0.0000000 )
                  (  0.0000000  1.0000000  0.0000000 )
                  (  0.0000000  0.0000000  1.0000000 )


      isym =  2     180 deg rotation - cart. axis [0,0,1]        

 cryst.   s( 2) = (    -1          0          0      )    f =(  0.5000000 )
                  (     0         -1          0      )       (  0.0000000 )
                  (     0          0          1      )       ( -0.5000000 )

 cart.    s( 2) = ( -1.0000000  0.0000000  0.0000000 )    f =(  0.5000000 )
                  (  0.0000000 -1.0000000  0.0000000 )       (  0.0000000 )
                  (  0.0000000  0.0000000  1.0000000 )       ( -0.1912469 )


      isym =  3     180 deg rotation - cart. axis [0,1,0]        

 cryst.   s( 3) = (    -1          0          0      )    f =(  0.0000000 )
                  (     0          1          0      )       ( -0.5000000 )
                  (     0          0         -1      )       (  0.0000000 )

 cart.    s( 3) = ( -1.0000000  0.0000000  0.0000000 )    f =(  0.0000000 )
                  (  0.0000000  1.0000000  0.0000000 )       ( -0.1751217 )
                  (  0.0000000  0.0000000 -1.0000000 )       (  0.0000000 )


      isym =  4     180 deg rotation - cart. axis [1,0,0]        

 cryst.   s( 4) = (     1          0          0      )    f =(  0.5000000 )
                  (     0         -1          0      )       (  0.5000000 )
                  (     0          0         -1      )       (  0.5000000 )

 cart.    s( 4) = (  1.0000000  0.0000000  0.0000000 )    f =(  0.5000000 )
                  (  0.0000000 -1.0000000  0.0000000 )       (  0.1751217 )
                  (  0.0000000  0.0000000 -1.0000000 )       (  0.1912469 )


      isym =  5     inversion                                    

 cryst.   s( 5) = (    -1          0          0      )
                  (     0         -1          0      )
                  (     0          0         -1      )

 cart.    s( 5) = ( -1.0000000  0.0000000  0.0000000 )
                  (  0.0000000 -1.0000000  0.0000000 )
                  (  0.0000000  0.0000000 -1.0000000 )


      isym =  6     inv. 180 deg rotation - cart. axis [0,0,1]   

 cryst.   s( 6) = (     1          0          0      )    f =(  0.5000000 )
                  (     0          1          0      )       (  0.0000000 )
                  (     0          0         -1      )       (  0.5000000 )

 cart.    s( 6) = (  1.0000000  0.0000000  0.0000000 )    f =(  0.5000000 )
                  (  0.0000000  1.0000000  0.0000000 )       (  0.0000000 )
                  (  0.0000000  0.0000000 -1.0000000 )       (  0.1912469 )


      isym =  7     inv. 180 deg rotation - cart. axis [0,1,0]   

 cryst.   s( 7) = (     1          0          0      )    f =(  0.0000000 )
                  (     0         -1          0      )       (  0.5000000 )
                  (     0          0          1      )       (  0.0000000 )

 cart.    s( 7) = (  1.0000000  0.0000000  0.0000000 )    f =(  0.0000000 )
                  (  0.0000000 -1.0000000  0.0000000 )       (  0.1751217 )
                  (  0.0000000  0.0000000  1.0000000 )       (  0.0000000 )


      isym =  8     inv. 180 deg rotation - cart. axis [1,0,0]   

 cryst.   s( 8) = (    -1          0          0      )    f =(  0.5000000 )
                  (     0          1          0      )       ( -0.5000000 )
                  (     0          0          1      )       ( -0.5000000 )

 cart.    s( 8) = ( -1.0000000  0.0000000  0.0000000 )    f =(  0.5000000 )
                  (  0.0000000  1.0000000  0.0000000 )       ( -0.1751217 )
                  (  0.0000000  0.0000000  1.0000000 )       ( -0.1912469 )


     point group D_2h (mmm) 
     there are  8 classes
     the character table:

       E     C2    C2'   C2''  i     s_v   s_v'  s_v''
A_g    1.00  1.00  1.00  1.00  1.00  1.00  1.00  1.00
B_1g   1.00  1.00 -1.00 -1.00  1.00  1.00 -1.00 -1.00
B_2g   1.00 -1.00  1.00 -1.00  1.00 -1.00  1.00 -1.00
B_3g   1.00 -1.00 -1.00  1.00  1.00 -1.00 -1.00  1.00
A_u    1.00  1.00  1.00  1.00 -1.00 -1.00 -1.00 -1.00
B_1u   1.00  1.00 -1.00 -1.00 -1.00 -1.00  1.00  1.00
B_2u   1.00 -1.00  1.00 -1.00 -1.00  1.00 -1.00  1.00
B_3u   1.00 -1.00 -1.00  1.00 -1.00  1.00  1.00 -1.00

     the symmetry operations in each class and the name of the first element:

     E        1
          identity                                               
     C2       2
          180 deg rotation - cart. axis [0,0,1]                  
     C2'      4
          180 deg rotation - cart. axis [1,0,0]                  
     C2''     3
          180 deg rotation - cart. axis [0,1,0]                  
     i        5
          inversion                                              
     s_v      6
          inv. 180 deg rotation - cart. axis [0,0,1]             
     s_v'     8
          inv. 180 deg rotation - cart. axis [1,0,0]             
     s_v''    7
          inv. 180 deg rotation - cart. axis [0,1,0]             

   Cartesian axes

     site n.     atom                  positions (alat units)
         1        Se     tau(   1) = (   0.8549563   0.0875609   0.1848393  )
         2        Sn     tau(   2) = (   0.1165395   0.0875609   0.0429491  )
         3        Se     tau(   3) = (   0.6450437   0.2626826   0.3760862  )
         4        Sn     tau(   4) = (   0.3834605   0.2626826   0.2341959  )
         5        Se     tau(   5) = (   0.3549563   0.0875609   0.0064075  )
         6        Sn     tau(   6) = (   0.6165395   0.0875609   0.1482978  )
         7        Se     tau(   7) = (   0.1450437   0.2626826   0.1976544  )
         8        Sn     tau(   8) = (   0.8834605   0.2626826   0.3395446  )

     --------------------------------------------
     DFT-D3 Dispersion Correction (3-body terms):
     --------------------------------------------
       Reference C6 values for interpolation: 

         atom   Coordination number   C6
         Se         0.000           427.35
         Se         0.990           427.57
         Se         1.981           421.05
         Sn         0.000          1255.14
         Sn         0.951          1084.09
         Sn         1.950          1010.83
         Sn         2.926           818.29
         Sn         3.912           672.20

       Values used:

         atom   Coordination number  R0_AB[au]  C6      C8
         Se         3.274            3.332    421.05  29958.36
         Sn         3.862            3.957    676.22  84873.55
         Se         3.274            3.332    421.05  29958.36
         Sn         3.862            3.957    676.22  84873.55
         Se         3.274            3.332    421.05  29958.36
         Sn         3.862            3.957    676.22  84873.55
         Se         3.274            3.332    421.05  29958.36
         Sn         3.862            3.957    676.22  84873.55

         Molecular C6 ( Ry / a.u.^6 ) =     34610.24


   Crystallographic axes

     site n.     atom                  positions (cryst. coord.)
         1        Se     tau(   1) = (  0.8549563  0.2500000  0.4832481  )
         2        Sn     tau(   2) = (  0.1165395  0.2500000  0.1122870  )
         3        Se     tau(   3) = (  0.6450437  0.7500000  0.9832481  )
         4        Sn     tau(   4) = (  0.3834605  0.7500000  0.6122870  )
         5        Se     tau(   5) = (  0.3549563  0.2500000  0.0167519  )
         6        Sn     tau(   6) = (  0.6165395  0.2500000  0.3877130  )
         7        Se     tau(   7) = (  0.1450437  0.7500000  0.5167519  )
         8        Sn     tau(   8) = (  0.8834605  0.7500000  0.8877130  )

     number of k points=    32
                       cart. coord. in units 2pi/alat
        k(    1) = (   0.1666667   0.1784473   0.1634014), wk =   0.0833333
        k(    2) = (   0.1666667   0.1784473   0.4902041), wk =   0.0833333
        k(    3) = (   0.1666667   0.1784473   0.8170069), wk =   0.0833333
        k(    4) = (   0.1666667   0.1784473   1.1438097), wk =   0.0833333
        k(    5) = (   0.1666667   0.5353419   0.1634014), wk =   0.0833333
        k(    6) = (   0.1666667   0.5353419   0.4902041), wk =   0.0833333
        k(    7) = (   0.1666667   0.5353419   0.8170069), wk =   0.0833333
        k(    8) = (   0.1666667   0.5353419   1.1438097), wk =   0.0833333
        k(    9) = (   0.1666667   0.8922364   0.1634014), wk =   0.0833333
        k(   10) = (   0.1666667   0.8922364   0.4902041), wk =   0.0833333
        k(   11) = (   0.1666667   0.8922364   0.8170069), wk =   0.0833333
        k(   12) = (   0.1666667   0.8922364   1.1438097), wk =   0.0833333
        k(   13) = (   0.1666667   1.2491310   0.1634014), wk =   0.0833333
        k(   14) = (   0.1666667   1.2491310   0.4902041), wk =   0.0833333
        k(   15) = (   0.1666667   1.2491310   0.8170069), wk =   0.0833333
        k(   16) = (   0.1666667   1.2491310   1.1438097), wk =   0.0833333
        k(   17) = (  -0.5000000   0.1784473   0.1634014), wk =   0.0416667
        k(   18) = (  -0.5000000   0.1784473   0.4902041), wk =   0.0416667
        k(   19) = (  -0.5000000   0.1784473   0.8170069), wk =   0.0416667
        k(   20) = (  -0.5000000   0.1784473   1.1438097), wk =   0.0416667
        k(   21) = (  -0.5000000   0.5353419   0.1634014), wk =   0.0416667
        k(   22) = (  -0.5000000   0.5353419   0.4902041), wk =   0.0416667
        k(   23) = (  -0.5000000   0.5353419   0.8170069), wk =   0.0416667
        k(   24) = (  -0.5000000   0.5353419   1.1438097), wk =   0.0416667
        k(   25) = (  -0.5000000   0.8922364   0.1634014), wk =   0.0416667
        k(   26) = (  -0.5000000   0.8922364   0.4902041), wk =   0.0416667
        k(   27) = (  -0.5000000   0.8922364   0.8170069), wk =   0.0416667
        k(   28) = (  -0.5000000   0.8922364   1.1438097), wk =   0.0416667
        k(   29) = (  -0.5000000   1.2491310   0.1634014), wk =   0.0416667
        k(   30) = (  -0.5000000   1.2491310   0.4902041), wk =   0.0416667
        k(   31) = (  -0.5000000   1.2491310   0.8170069), wk =   0.0416667
        k(   32) = (  -0.5000000   1.2491310   1.1438097), wk =   0.0416667

                       cryst. coord.
        k(    1) = (   0.1666667   0.0625000   0.0625000), wk =   0.0833333
        k(    2) = (   0.1666667   0.0625000   0.1875000), wk =   0.0833333
        k(    3) = (   0.1666667   0.0625000   0.3125000), wk =   0.0833333
        k(    4) = (   0.1666667   0.0625000   0.4375000), wk =   0.0833333
        k(    5) = (   0.1666667   0.1875000   0.0625000), wk =   0.0833333
        k(    6) = (   0.1666667   0.1875000   0.1875000), wk =   0.0833333
        k(    7) = (   0.1666667   0.1875000   0.3125000), wk =   0.0833333
        k(    8) = (   0.1666667   0.1875000   0.4375000), wk =   0.0833333
        k(    9) = (   0.1666667   0.3125000   0.0625000), wk =   0.0833333
        k(   10) = (   0.1666667   0.3125000   0.1875000), wk =   0.0833333
        k(   11) = (   0.1666667   0.3125000   0.3125000), wk =   0.0833333
        k(   12) = (   0.1666667   0.3125000   0.4375000), wk =   0.0833333
        k(   13) = (   0.1666667   0.4375000   0.0625000), wk =   0.0833333
        k(   14) = (   0.1666667   0.4375000   0.1875000), wk =   0.0833333
        k(   15) = (   0.1666667   0.4375000   0.3125000), wk =   0.0833333
        k(   16) = (   0.1666667   0.4375000   0.4375000), wk =   0.0833333
        k(   17) = (  -0.5000000   0.0625000   0.0625000), wk =   0.0416667
        k(   18) = (  -0.5000000   0.0625000   0.1875000), wk =   0.0416667
        k(   19) = (  -0.5000000   0.0625000   0.3125000), wk =   0.0416667
        k(   20) = (  -0.5000000   0.0625000   0.4375000), wk =   0.0416667
        k(   21) = (  -0.5000000   0.1875000   0.0625000), wk =   0.0416667
        k(   22) = (  -0.5000000   0.1875000   0.1875000), wk =   0.0416667
        k(   23) = (  -0.5000000   0.1875000   0.3125000), wk =   0.0416667
        k(   24) = (  -0.5000000   0.1875000   0.4375000), wk =   0.0416667
        k(   25) = (  -0.5000000   0.3125000   0.0625000), wk =   0.0416667
        k(   26) = (  -0.5000000   0.3125000   0.1875000), wk =   0.0416667
        k(   27) = (  -0.5000000   0.3125000   0.3125000), wk =   0.0416667
        k(   28) = (  -0.5000000   0.3125000   0.4375000), wk =   0.0416667
        k(   29) = (  -0.5000000   0.4375000   0.0625000), wk =   0.0416667
        k(   30) = (  -0.5000000   0.4375000   0.1875000), wk =   0.0416667
        k(   31) = (  -0.5000000   0.4375000   0.3125000), wk =   0.0416667
        k(   32) = (  -0.5000000   0.4375000   0.4375000), wk =   0.0416667

     Dense  grid:   206243 G-vectors     FFT dimensions: ( 144,  54,  60)

     Smooth grid:    52163 G-vectors     FFT dimensions: (  96,  32,  36)

     Dynamical RAM for                 wfc:       1.99 MB

     Dynamical RAM for     wfc (w. buffer):      23.89 MB

     Dynamical RAM for           str. fact:       3.15 MB

     Dynamical RAM for           local pot:       0.00 MB

     Dynamical RAM for          nlocal pot:       7.17 MB

     Dynamical RAM for                qrad:       3.21 MB

     Dynamical RAM for          rho,v,vnew:      10.06 MB

     Dynamical RAM for               rhoin:       3.35 MB

     Dynamical RAM for            rho*nmix:      25.18 MB

     Dynamical RAM for           G-vectors:       6.10 MB

     Dynamical RAM for          h,s,v(r/c):       0.29 MB

     Dynamical RAM for          <psi|beta>:       0.09 MB

     Dynamical RAM for                 psi:       3.98 MB

     Dynamical RAM for                hpsi:       3.98 MB

     Dynamical RAM for                spsi:       3.98 MB

     Dynamical RAM for      wfcinit/wfcrot:       5.24 MB

     Dynamical RAM for           addusdens:     100.71 MB

     Dynamical RAM for          addusforce:     103.61 MB

     Estimated static dynamical RAM per process >      70.55 MB

     Estimated max dynamical RAM per process >     199.33 MB

     Estimated total dynamical RAM >       1.07 GB

     Initial potential from superposition of free atoms

     starting charge      75.9995, renormalised to      80.0000
     Starting wfcs are   52 randomized atomic wfcs

     total cpu time spent up to now is        2.2 secs

     Self-consistent Calculation

     iteration #  1     ecut=    40.00 Ry     beta= 0.70
     Davidson diagonalization with overlap

---- Real-time Memory Report at c_bands before calling an iterative solver
           266 MiB given to the printing process from OS
             0 MiB allocation reported by mallinfo(arena+hblkhd)
         10132 MiB available memory on the node where the printing process lives
------------------
     ethr =  1.00E-02,  avg # of iterations =  2.0

     total cpu time spent up to now is        5.5 secs

     total energy              =    -826.60740890 Ry
     estimated scf accuracy    <       2.72075176 Ry

     iteration #  2     ecut=    40.00 Ry     beta= 0.70
     Davidson diagonalization with overlap

---- Real-time Memory Report at c_bands before calling an iterative solver
           338 MiB given to the printing process from OS
             0 MiB allocation reported by mallinfo(arena+hblkhd)
          9889 MiB available memory on the node where the printing process lives
------------------
     ethr =  3.40E-03,  avg # of iterations =  3.0

     total cpu time spent up to now is        9.1 secs

     total energy              =    -827.51182830 Ry
     estimated scf accuracy    <       1.06869394 Ry

     iteration #  3     ecut=    40.00 Ry     beta= 0.70
     Davidson diagonalization with overlap

---- Real-time Memory Report at c_bands before calling an iterative solver
           354 MiB given to the printing process from OS
             0 MiB allocation reported by mallinfo(arena+hblkhd)
          9766 MiB available memory on the node where the printing process lives
------------------
     ethr =  1.34E-03,  avg # of iterations =  2.7

     total cpu time spent up to now is       12.4 secs

     total energy              =    -827.73178007 Ry
     estimated scf accuracy    <       0.01255400 Ry

     iteration #  4     ecut=    40.00 Ry     beta= 0.70
     Davidson diagonalization with overlap

---- Real-time Memory Report at c_bands before calling an iterative solver
           358 MiB given to the printing process from OS
             0 MiB allocation reported by mallinfo(arena+hblkhd)
          9761 MiB available memory on the node where the printing process lives
------------------
     ethr =  1.57E-05,  avg # of iterations =  4.9

     total cpu time spent up to now is       16.4 secs

     total energy              =    -827.73934757 Ry
     estimated scf accuracy    <       0.00577062 Ry

     iteration #  5     ecut=    40.00 Ry     beta= 0.70
     Davidson diagonalization with overlap

---- Real-time Memory Report at c_bands before calling an iterative solver
           361 MiB given to the printing process from OS
             0 MiB allocation reported by mallinfo(arena+hblkhd)
          9754 MiB available memory on the node where the printing process lives
------------------
     ethr =  7.21E-06,  avg # of iterations =  2.6

     total cpu time spent up to now is       19.5 secs

     total energy              =    -827.74058113 Ry
     estimated scf accuracy    <       0.00053209 Ry

     iteration #  6     ecut=    40.00 Ry     beta= 0.70
     Davidson diagonalization with overlap

---- Real-time Memory Report at c_bands before calling an iterative solver
           362 MiB given to the printing process from OS
             0 MiB allocation reported by mallinfo(arena+hblkhd)
          9755 MiB available memory on the node where the printing process lives
------------------
     ethr =  6.65E-07,  avg # of iterations =  4.4

     total cpu time spent up to now is       23.2 secs

     total energy              =    -827.74058263 Ry
     estimated scf accuracy    <       0.00098813 Ry

     iteration #  7     ecut=    40.00 Ry     beta= 0.70
     Davidson diagonalization with overlap

---- Real-time Memory Report at c_bands before calling an iterative solver
           362 MiB given to the printing process from OS
             0 MiB allocation reported by mallinfo(arena+hblkhd)
          9752 MiB available memory on the node where the printing process lives
------------------
     ethr =  6.65E-07,  avg # of iterations =  3.0

     total cpu time spent up to now is       26.6 secs

     total energy              =    -827.74072288 Ry
     estimated scf accuracy    <       0.00002079 Ry

     iteration #  8     ecut=    40.00 Ry     beta= 0.70
     Davidson diagonalization with overlap

---- Real-time Memory Report at c_bands before calling an iterative solver
           363 MiB given to the printing process from OS
             0 MiB allocation reported by mallinfo(arena+hblkhd)
          9751 MiB available memory on the node where the printing process lives
------------------
     ethr =  2.60E-08,  avg # of iterations =  4.9

     total cpu time spent up to now is       30.6 secs

     total energy              =    -827.74073902 Ry
     estimated scf accuracy    <       0.00001642 Ry

     iteration #  9     ecut=    40.00 Ry     beta= 0.70
     Davidson diagonalization with overlap

---- Real-time Memory Report at c_bands before calling an iterative solver
           366 MiB given to the printing process from OS
             0 MiB allocation reported by mallinfo(arena+hblkhd)
          9702 MiB available memory on the node where the printing process lives
------------------
     ethr =  2.05E-08,  avg # of iterations =  2.0

     total cpu time spent up to now is       33.5 secs

     total energy              =    -827.74074085 Ry
     estimated scf accuracy    <       0.00000095 Ry

     iteration # 10     ecut=    40.00 Ry     beta= 0.70
     Davidson diagonalization with overlap

---- Real-time Memory Report at c_bands before calling an iterative solver
           367 MiB given to the printing process from OS
             0 MiB allocation reported by mallinfo(arena+hblkhd)
          9702 MiB available memory on the node where the printing process lives
------------------
     ethr =  1.19E-09,  avg # of iterations =  5.2

     total cpu time spent up to now is       38.4 secs

     total energy              =    -827.74074160 Ry
     estimated scf accuracy    <       0.00000013 Ry

     iteration # 11     ecut=    40.00 Ry     beta= 0.70
     Davidson diagonalization with overlap

---- Real-time Memory Report at c_bands before calling an iterative solver
           367 MiB given to the printing process from OS
             0 MiB allocation reported by mallinfo(arena+hblkhd)
          9653 MiB available memory on the node where the printing process lives
------------------
     ethr =  1.58E-10,  avg # of iterations =  3.3

     total cpu time spent up to now is       42.1 secs

     total energy              =    -827.74074161 Ry
     estimated scf accuracy    <       0.00000005 Ry

     iteration # 12     ecut=    40.00 Ry     beta= 0.70
     Davidson diagonalization with overlap

---- Real-time Memory Report at c_bands before calling an iterative solver
           368 MiB given to the printing process from OS
             0 MiB allocation reported by mallinfo(arena+hblkhd)
          9687 MiB available memory on the node where the printing process lives
------------------
     ethr =  6.08E-11,  avg # of iterations =  3.1

     total cpu time spent up to now is       45.2 secs

     End of self-consistent calculation

          k = 0.1667 0.1784 0.1634 (  6515 PWs)   bands (ev):

   -14.1574 -14.1494 -14.1455 -14.1418 -14.1387 -14.1374 -14.1372 -14.1361
   -14.1265 -14.1223 -14.1211 -14.1195 -14.1157 -14.1125 -14.0978 -14.0935
   -14.0911 -14.0877 -14.0828 -14.0789  -6.1879  -5.9431  -5.3364  -5.0121
     0.1790   0.9347   1.6378   2.0558   2.7960   3.9697   4.1326   4.3723
     4.5954   4.6385   5.1482   5.4211   5.6351   5.9292   6.4957   6.7801

     occupation numbers 
     1.0000   1.0000   1.0000   1.0000   1.0000   1.0000   1.0000   1.0000
     1.0000   1.0000   1.0000   1.0000   1.0000   1.0000   1.0000   1.0000
     1.0000   1.0000   1.0000   1.0000   1.0000   1.0000   1.0000   1.0000
     1.0000   1.0000   1.0000   1.0000   1.0000   1.0000   1.0000   1.0000
     1.0000   1.0000   1.0000   1.0000   1.0000   1.0000   1.0000   1.0000

          k = 0.1667 0.1784 0.4902 (  6509 PWs)   bands (ev):

   -14.1563 -14.1491 -14.1456 -14.1421 -14.1396 -14.1384 -14.1372 -14.1362
   -14.1249 -14.1222 -14.1215 -14.1180 -14.1149 -14.1111 -14.0980 -14.0940
   -14.0910 -14.0880 -14.0826 -14.0793  -6.0782  -5.8430  -5.3246  -5.0309
    -0.1455   0.6411   1.1630   1.6975   2.8778   4.0321   4.2409   4.6807
     4.9211   5.1620   5.1678   5.5259   5.9703   6.2750   6.4536   6.7476

     occupation numbers 
     1.0000   1.0000   1.0000   1.0000   1.0000   1.0000   1.0000   1.0000
     1.0000   1.0000   1.0000   1.0000   1.0000   1.0000   1.0000   1.0000
     1.0000   1.0000   1.0000   1.0000   1.0000   1.0000   1.0000   1.0000
     1.0000   1.0000   1.0000   1.0000   1.0000   1.0000   1.0000   1.0000
     1.0000   1.0000   1.0000   1.0000   1.0000   1.0000   1.0000   1.0000

          k = 0.1667 0.1784 0.8170 (  6499 PWs)   bands (ev):

   -14.1544 -14.1491 -14.1456 -14.1430 -14.1404 -14.1398 -14.1372 -14.1365
   -14.1237 -14.1223 -14.1209 -14.1168 -14.1125 -14.1095 -14.0980 -14.0952
   -14.0904 -14.0884 -14.0822 -14.0800  -5.8832  -5.6662  -5.3391  -5.0937
    -0.4790   0.1290   0.7343   1.2012   3.1738   4.2642   4.4721   5.0041
     5.1002   5.3122   5.5184   5.7108   6.1278   6.5780   6.6208   6.9936

     occupation numbers 
     1.0000   1.0000   1.0000   1.0000   1.0000   1.0000   1.0000   1.0000
     1.0000   1.0000   1.0000   1.0000   1.0000   1.0000   1.0000   1.0000
     1.0000   1.0000   1.0000   1.0000   1.0000   1.0000   1.0000   1.0000
     1.0000   1.0000   1.0000   1.0000   1.0000   1.0000   1.0000   1.0000
     1.0000   1.0000   1.0000   1.0000   1.0000   1.0000   1.0000   1.0000

          k = 0.1667 0.1784 1.1438 (  6507 PWs)   bands (ev):

   -14.1521 -14.1502 -14.1451 -14.1441 -14.1410 -14.1408 -14.1371 -14.1369
   -14.1235 -14.1230 -14.1185 -14.1170 -14.1099 -14.1088 -14.0975 -14.0965
   -14.0897 -14.0890 -14.0815 -14.0808  -5.6564  -5.5070  -5.3811  -5.2252
    -0.5762  -0.3511   0.6086   0.7870   3.6463   4.1627   4.8259   5.0473
     5.2419   5.3375   5.5231   5.8458   6.4138   6.7600   6.9014   6.9882

     occupation numbers 
     1.0000   1.0000   1.0000   1.0000   1.0000   1.0000   1.0000   1.0000
     1.0000   1.0000   1.0000   1.0000   1.0000   1.0000   1.0000   1.0000
     1.0000   1.0000   1.0000   1.0000   1.0000   1.0000   1.0000   1.0000
     1.0000   1.0000   1.0000   1.0000   1.0000   1.0000   1.0000   1.0000
     1.0000   1.0000   1.0000   1.0000   1.0000   1.0000   1.0000   1.0000

          k = 0.1667 0.5353 0.1634 (  6536 PWs)   bands (ev):

   -14.1519 -14.1467 -14.1419 -14.1417 -14.1389 -14.1388 -14.1381 -14.1376
   -14.1270 -14.1254 -14.1251 -14.1186 -14.1142 -14.1097 -14.0951 -14.0937
   -14.0909 -14.0906 -14.0824 -14.0795  -6.0331  -5.8082  -5.2633  -4.9889
     0.0131   0.6604   1.3248   1.4568   2.9094   3.8683   4.1425   4.4034
     4.7271   4.9553   5.1520   5.4489   5.7529   6.3119   6.5505   6.6666

     occupation numbers 
     1.0000   1.0000   1.0000   1.0000   1.0000   1.0000   1.0000   1.0000
     1.0000   1.0000   1.0000   1.0000   1.0000   1.0000   1.0000   1.0000
     1.0000   1.0000   1.0000   1.0000   1.0000   1.0000   1.0000   1.0000
     1.0000   1.0000   1.0000   1.0000   1.0000   1.0000   1.0000   1.0000
     1.0000   1.0000   1.0000   1.0000   1.0000   1.0000   1.0000   1.0000

          k = 0.1667 0.5353 0.4902 (  6524 PWs)   bands (ev):

   -14.1516 -14.1466 -14.1433 -14.1424 -14.1394 -14.1393 -14.1379 -14.1376
   -14.1275 -14.1255 -14.1232 -14.1179 -14.1127 -14.1086 -14.0953 -14.0931
   -14.0915 -14.0908 -14.0822 -14.0797  -5.9291  -5.7141  -5.2500  -5.0004
    -0.1513   0.5693   1.0093   1.3583   3.0399   3.4711   3.7230   4.4108
     4.6185   5.1509   5.4994   5.5838   6.2225   6.3336   6.5728   6.7432

     occupation numbers 
     1.0000   1.0000   1.0000   1.0000   1.0000   1.0000   1.0000   1.0000
     1.0000   1.0000   1.0000   1.0000   1.0000   1.0000   1.0000   1.0000
     1.0000   1.0000   1.0000   1.0000   1.0000   1.0000   1.0000   1.0000
     1.0000   1.0000   1.0000   1.0000   1.0000   1.0000   1.0000   1.0000
     1.0000   1.0000   1.0000   1.0000   1.0000   1.0000   1.0000   1.0000

          k = 0.1667 0.5353 0.8170 (  6523 PWs)   bands (ev):

   -14.1508 -14.1464 -14.1457 -14.1433 -14.1400 -14.1400 -14.1380 -14.1376
   -14.1273 -14.1259 -14.1208 -14.1173 -14.1100 -14.1071 -14.0953 -14.0929
   -14.0921 -14.0909 -14.0819 -14.0802  -5.7463  -5.5499  -5.2586  -5.0478
    -0.3462   0.2306   0.7636   1.1208   3.2972   3.4218   3.6711   4.3626
     4.4490   5.2255   5.3145   5.8762   6.0787   6.3002   6.4867   6.7161

     occupation numbers 
     1.0000   1.0000   1.0000   1.0000   1.0000   1.0000   1.0000   1.0000
     1.0000   1.0000   1.0000   1.0000   1.0000   1.0000   1.0000   1.0000
     1.0000   1.0000   1.0000   1.0000   1.0000   1.0000   1.0000   1.0000
     1.0000   1.0000   1.0000   1.0000   1.0000   1.0000   1.0000   1.0000
     1.0000   1.0000   1.0000   1.0000   1.0000   1.0000   1.0000   1.0000

          k = 0.1667 0.5353 1.1438 (  6494 PWs)   bands (ev):

   -14.1498 -14.1481 -14.1456 -14.1445 -14.1405 -14.1404 -14.1381 -14.1379
   -14.1269 -14.1264 -14.1186 -14.1174 -14.1076 -14.1065 -14.0949 -14.0940
   -14.0915 -14.0911 -14.0814 -14.0808  -5.5377  -5.4040  -5.2928  -5.1567
    -0.3873  -0.1759   0.7208   0.8598   3.6095   3.6629   3.9025   4.1533
     4.4054   4.7565   5.3693   5.6560   5.9674   6.1968   6.4250   6.5983

     occupation numbers 
     1.0000   1.0000   1.0000   1.0000   1.0000   1.0000   1.0000   1.0000
     1.0000   1.0000   1.0000   1.0000   1.0000   1.0000   1.0000   1.0000
     1.0000   1.0000   1.0000   1.0000   1.0000   1.0000   1.0000   1.0000
     1.0000   1.0000   1.0000   1.0000   1.0000   1.0000   1.0000   1.0000
     1.0000   1.0000   1.0000   1.0000   1.0000   1.0000   1.0000   1.0000

          k = 0.1667 0.8922 0.1634 (  6539 PWs)   bands (ev):

   -14.1476 -14.1454 -14.1433 -14.1429 -14.1409 -14.1359 -14.1352 -14.1348
   -14.1293 -14.1285 -14.1267 -14.1198 -14.1108 -14.1065 -14.0969 -14.0966
   -14.0904 -14.0873 -14.0813 -14.0801  -5.7549  -5.5764  -5.1765  -5.0046
    -0.2205   0.2913   0.6348   0.8464   3.2422   3.9906   4.3388   4.6108
     5.0243   5.0831   5.3166   5.4959   5.9083   6.3387   6.4244   6.7346

     occupation numbers 
     1.0000   1.0000   1.0000   1.0000   1.0000   1.0000   1.0000   1.0000
     1.0000   1.0000   1.0000   1.0000   1.0000   1.0000   1.0000   1.0000
     1.0000   1.0000   1.0000   1.0000   1.0000   1.0000   1.0000   1.0000
     1.0000   1.0000   1.0000   1.0000   1.0000   1.0000   1.0000   1.0000
     1.0000   1.0000   1.0000   1.0000   1.0000   1.0000   1.0000   1.0000

          k = 0.1667 0.8922 0.4902 (  6531 PWs)   bands (ev):

   -14.1497 -14.1467 -14.1444 -14.1433 -14.1414 -14.1364 -14.1349 -14.1343
   -14.1294 -14.1286 -14.1246 -14.1195 -14.1093 -14.1057 -14.0963 -14.0961
   -14.0905 -14.0878 -14.0813 -14.0802  -5.6644  -5.4958  -5.1573  -4.9986
    -0.1848   0.3820   0.6506   0.8190   3.2433   3.3631   3.6660   4.1743
     4.5894   5.1784   5.3303   5.7054   5.8307   6.0493   6.3326   6.5323

     occupation numbers 
     1.0000   1.0000   1.0000   1.0000   1.0000   1.0000   1.0000   1.0000
     1.0000   1.0000   1.0000   1.0000   1.0000   1.0000   1.0000   1.0000
     1.0000   1.0000   1.0000   1.0000   1.0000   1.0000   1.0000   1.0000
     1.0000   1.0000   1.0000   1.0000   1.0000   1.0000   1.0000   1.0000
     1.0000   1.0000   1.0000   1.0000   1.0000   1.0000   1.0000   1.0000

          k = 0.1667 0.8922 0.8170 (  6524 PWs)   bands (ev):

   -14.1518 -14.1495 -14.1459 -14.1450 -14.1408 -14.1373 -14.1347 -14.1341
   -14.1288 -14.1284 -14.1224 -14.1192 -14.1069 -14.1045 -14.0955 -14.0952
   -14.0905 -14.0887 -14.0811 -14.0804  -5.5096  -5.3596  -5.1492  -5.0105
    -0.1355   0.3469   0.6942   0.8548   2.8489   3.1575   3.6038   3.8069
     4.0398   4.7309   5.0285   5.3357   5.6241   5.7845   5.9700   6.4541

     occupation numbers 
     1.0000   1.0000   1.0000   1.0000   1.0000   1.0000   1.0000   1.0000
     1.0000   1.0000   1.0000   1.0000   1.0000   1.0000   1.0000   1.0000
     1.0000   1.0000   1.0000   1.0000   1.0000   1.0000   1.0000   1.0000
     1.0000   1.0000   1.0000   1.0000   1.0000   1.0000   1.0000   1.0000
     1.0000   1.0000   1.0000   1.0000   1.0000   1.0000   1.0000   1.0000

          k = 0.1667 0.8922 1.1438 (  6524 PWs)   bands (ev):

   -14.1528 -14.1519 -14.1468 -14.1465 -14.1398 -14.1385 -14.1345 -14.1343
   -14.1282 -14.1281 -14.1206 -14.1195 -14.1047 -14.1039 -14.0947 -14.0946
   -14.0902 -14.0896 -14.0809 -14.0806  -5.3419  -5.2430  -5.1637  -5.0702
    -0.0520   0.1230   0.8177   0.8741   2.8580   3.1851   3.2256   3.5932
     4.0069   4.4229   4.6728   5.0773   5.2390   5.4704   6.0214   6.1777

     occupation numbers 
     1.0000   1.0000   1.0000   1.0000   1.0000   1.0000   1.0000   1.0000
     1.0000   1.0000   1.0000   1.0000   1.0000   1.0000   1.0000   1.0000
     1.0000   1.0000   1.0000   1.0000   1.0000   1.0000   1.0000   1.0000
     1.0000   1.0000   1.0000   1.0000   1.0000   1.0000   1.0000   1.0000
     1.0000   1.0000   1.0000   1.0000   1.0000   1.0000   1.0000   1.0000

          k = 0.1667 1.2491 0.1634 (  6543 PWs)   bands (ev):

   -14.1485 -14.1469 -14.1461 -14.1449 -14.1367 -14.1343 -14.1324 -14.1316
   -14.1303 -14.1284 -14.1267 -14.1230 -14.1068 -14.1037 -14.1020 -14.1004
   -14.0855 -14.0836 -14.0817 -14.0813  -5.4231  -5.3296  -5.1780  -5.1443
    -0.2890  -0.0001   0.1465   0.3644   3.7650   4.2216   4.5601   4.8312
     5.0041   5.0796   5.4431   5.6689   6.0406   6.1857   6.2696   6.4140

     occupation numbers 
     1.0000   1.0000   1.0000   1.0000   1.0000   1.0000   1.0000   1.0000
     1.0000   1.0000   1.0000   1.0000   1.0000   1.0000   1.0000   1.0000
     1.0000   1.0000   1.0000   1.0000   1.0000   1.0000   1.0000   1.0000
     1.0000   1.0000   1.0000   1.0000   1.0000   1.0000   1.0000   1.0000
     1.0000   1.0000   1.0000   1.0000   1.0000   1.0000   1.0000   1.0000

          k = 0.1667 1.2491 0.4902 (  6534 PWs)   bands (ev):

   -14.1506 -14.1490 -14.1478 -14.1468 -14.1367 -14.1345 -14.1319 -14.1316
   -14.1295 -14.1283 -14.1253 -14.1225 -14.1058 -14.1037 -14.1003 -14.0994
   -14.0856 -14.0841 -14.0816 -14.0813  -5.3564  -5.2707  -5.1433  -5.1093
    -0.1445   0.1378   0.2816   0.4349   3.5164   3.7204   3.9580   4.2504
     4.3432   4.8308   5.2000   5.3761   5.4939   5.7820   6.1229   6.4216

     occupation numbers 
     1.0000   1.0000   1.0000   1.0000   1.0000   1.0000   1.0000   1.0000
     1.0000   1.0000   1.0000   1.0000   1.0000   1.0000   1.0000   1.0000
     1.0000   1.0000   1.0000   1.0000   1.0000   1.0000   1.0000   1.0000
     1.0000   1.0000   1.0000   1.0000   1.0000   1.0000   1.0000   1.0000
     1.0000   1.0000   1.0000   1.0000   1.0000   1.0000   1.0000   1.0000

          k = 0.1667 1.2491 0.8170 (  6530 PWs)   bands (ev):

   -14.1534 -14.1522 -14.1501 -14.1493 -14.1366 -14.1350 -14.1317 -14.1315
   -14.1284 -14.1278 -14.1238 -14.1220 -14.1041 -14.1029 -14.0983 -14.0979
   -14.0858 -14.0848 -14.0814 -14.0813  -5.2497  -5.1787  -5.1003  -5.0647
     0.0986   0.3483   0.4998   0.5533   2.8679   3.2938   3.3861   3.7873
     3.8677   4.2909   4.5142   4.9817   5.0634   5.3503   5.9761   6.1321

     occupation numbers 
     1.0000   1.0000   1.0000   1.0000   1.0000   1.0000   1.0000   1.0000
     1.0000   1.0000   1.0000   1.0000   1.0000   1.0000   1.0000   1.0000
     1.0000   1.0000   1.0000   1.0000   1.0000   1.0000   1.0000   1.0000
     1.0000   1.0000   1.0000   1.0000   1.0000   1.0000   1.0000   1.0000
     1.0000   1.0000   1.0000   1.0000   1.0000   1.0000   1.0000   1.0000

          k = 0.1667 1.2491 1.1438 (  6545 PWs)   bands (ev):

   -14.1550 -14.1546 -14.1515 -14.1512 -14.1363 -14.1357 -14.1317 -14.1316
   -14.1276 -14.1274 -14.1227 -14.1221 -14.1027 -14.1023 -14.0969 -14.0968
   -14.0857 -14.0854 -14.0813 -14.0813  -5.1494  -5.1073  -5.0779  -5.0486
     0.3309   0.4337   0.6883   0.7124   2.6052   2.8036   3.1480   3.3503
     3.6267   3.7514   4.1953   4.4986   5.0519   5.2496   5.8888   5.9272

     occupation numbers 
     1.0000   1.0000   1.0000   1.0000   1.0000   1.0000   1.0000   1.0000
     1.0000   1.0000   1.0000   1.0000   1.0000   1.0000   1.0000   1.0000
     1.0000   1.0000   1.0000   1.0000   1.0000   1.0000   1.0000   1.0000
     1.0000   1.0000   1.0000   1.0000   1.0000   1.0000   1.0000   1.0000
     1.0000   1.0000   1.0000   1.0000   1.0000   1.0000   1.0000   1.0000

          k =-0.5000 0.1784 0.1634 (  6508 PWs)   bands (ev):

   -14.1541 -14.1541 -14.1432 -14.1432 -14.1381 -14.1381 -14.1366 -14.1366
   -14.1233 -14.1233 -14.1217 -14.1217 -14.1138 -14.1138 -14.0960 -14.0960
   -14.0890 -14.0890 -14.0808 -14.0808  -6.0868  -6.0868  -5.1530  -5.1530
     0.4449   0.4449   1.9527   1.9527   3.3730   3.3730   4.2833   4.2833
     4.6720   4.6720   5.2235   5.2235   5.5593   5.5593   6.6790   6.6790

     occupation numbers 
     1.0000   1.0000   1.0000   1.0000   1.0000   1.0000   1.0000   1.0000
     1.0000   1.0000   1.0000   1.0000   1.0000   1.0000   1.0000   1.0000
     1.0000   1.0000   1.0000   1.0000   1.0000   1.0000   1.0000   1.0000
     1.0000   1.0000   1.0000   1.0000   1.0000   1.0000   1.0000   1.0000
     1.0000   1.0000   1.0000   1.0000   1.0000   1.0000   1.0000   1.0000

          k =-0.5000 0.1784 0.4902 (  6508 PWs)   bands (ev):

   -14.1534 -14.1534 -14.1433 -14.1433 -14.1390 -14.1390 -14.1367 -14.1367
   -14.1223 -14.1223 -14.1214 -14.1214 -14.1126 -14.1126 -14.0962 -14.0962
   -14.0892 -14.0892 -14.0809 -14.0809  -5.9819  -5.9819  -5.1564  -5.1564
     0.1374   0.1374   1.5069   1.5069   3.5554   3.5554   4.3334   4.3334
     5.0092   5.0092   5.3796   5.3796   6.0424   6.0424   6.5594   6.5594

     occupation numbers 
     1.0000   1.0000   1.0000   1.0000   1.0000   1.0000   1.0000   1.0000
     1.0000   1.0000   1.0000   1.0000   1.0000   1.0000   1.0000   1.0000
     1.0000   1.0000   1.0000   1.0000   1.0000   1.0000   1.0000   1.0000
     1.0000   1.0000   1.0000   1.0000   1.0000   1.0000   1.0000   1.0000
     1.0000   1.0000   1.0000   1.0000   1.0000   1.0000   1.0000   1.0000

          k =-0.5000 0.1784 0.8170 (  6516 PWs)   bands (ev):

   -14.1522 -14.1522 -14.1439 -14.1439 -14.1400 -14.1400 -14.1371 -14.1371
   -14.1226 -14.1226 -14.1194 -14.1194 -14.1107 -14.1107 -14.0966 -14.0966
   -14.0894 -14.0894 -14.0810 -14.0810  -5.7975  -5.7975  -5.1937  -5.1937
    -0.2263  -0.2263   0.9755   0.9755   3.8645   3.8645   4.6084   4.6084
     5.1480   5.1480   5.6271   5.6271   6.2579   6.2579   6.7752   6.7752

     occupation numbers 
     1.0000   1.0000   1.0000   1.0000   1.0000   1.0000   1.0000   1.0000
     1.0000   1.0000   1.0000   1.0000   1.0000   1.0000   1.0000   1.0000
     1.0000   1.0000   1.0000   1.0000   1.0000   1.0000   1.0000   1.0000
     1.0000   1.0000   1.0000   1.0000   1.0000   1.0000   1.0000   1.0000
     1.0000   1.0000   1.0000   1.0000   1.0000   1.0000   1.0000   1.0000

          k =-0.5000 0.1784 1.1438 (  6498 PWs)   bands (ev):

   -14.1511 -14.1511 -14.1447 -14.1447 -14.1406 -14.1406 -14.1374 -14.1374
   -14.1229 -14.1229 -14.1179 -14.1179 -14.1094 -14.1094 -14.0969 -14.0969
   -14.0895 -14.0895 -14.0811 -14.0811  -5.6005  -5.6005  -5.2847  -5.2847
    -0.4407  -0.4407   0.6301   0.6301   4.2748   4.2748   4.9080   4.9080
     4.9809   4.9809   5.4683   5.4683   6.6644   6.6644   6.9340   6.9340

     occupation numbers 
     1.0000   1.0000   1.0000   1.0000   1.0000   1.0000   1.0000   1.0000
     1.0000   1.0000   1.0000   1.0000   1.0000   1.0000   1.0000   1.0000
     1.0000   1.0000   1.0000   1.0000   1.0000   1.0000   1.0000   1.0000
     1.0000   1.0000   1.0000   1.0000   1.0000   1.0000   1.0000   1.0000
     1.0000   1.0000   1.0000   1.0000   1.0000   1.0000   1.0000   1.0000

          k =-0.5000 0.5353 0.1634 (  6506 PWs)   bands (ev):

   -14.1495 -14.1495 -14.1416 -14.1416 -14.1390 -14.1390 -14.1380 -14.1380
   -14.1256 -14.1256 -14.1229 -14.1229 -14.1113 -14.1113 -14.0941 -14.0941
   -14.0910 -14.0910 -14.0808 -14.0808  -5.9397  -5.9397  -5.1068  -5.1068
     0.2574   0.2574   1.4474   1.4474   3.5016   3.5016   4.1479   4.1479
     4.9829   4.9829   5.1508   5.1508   5.8271   5.8271   6.7026   6.7026

     occupation numbers 
     1.0000   1.0000   1.0000   1.0000   1.0000   1.0000   1.0000   1.0000
     1.0000   1.0000   1.0000   1.0000   1.0000   1.0000   1.0000   1.0000
     1.0000   1.0000   1.0000   1.0000   1.0000   1.0000   1.0000   1.0000
     1.0000   1.0000   1.0000   1.0000   1.0000   1.0000   1.0000   1.0000
     1.0000   1.0000   1.0000   1.0000   1.0000   1.0000   1.0000   1.0000

          k =-0.5000 0.5353 0.4902 (  6536 PWs)   bands (ev):

   -14.1493 -14.1493 -14.1428 -14.1428 -14.1393 -14.1393 -14.1378 -14.1378
   -14.1257 -14.1257 -14.1216 -14.1216 -14.1102 -14.1102 -14.0941 -14.0941
   -14.0913 -14.0913 -14.0809 -14.0809  -5.8406  -5.8406  -5.1061  -5.1061
     0.1160   0.1160   1.2464   1.2464   3.4690   3.4690   3.9633   3.9633
     4.6214   4.6214   5.6531   5.6531   6.2284   6.2284   6.6576   6.6576

     occupation numbers 
     1.0000   1.0000   1.0000   1.0000   1.0000   1.0000   1.0000   1.0000
     1.0000   1.0000   1.0000   1.0000   1.0000   1.0000   1.0000   1.0000
     1.0000   1.0000   1.0000   1.0000   1.0000   1.0000   1.0000   1.0000
     1.0000   1.0000   1.0000   1.0000   1.0000   1.0000   1.0000   1.0000
     1.0000   1.0000   1.0000   1.0000   1.0000   1.0000   1.0000   1.0000

          k =-0.5000 0.5353 0.8170 (  6516 PWs)   bands (ev):

   -14.1489 -14.1489 -14.1447 -14.1447 -14.1398 -14.1398 -14.1376 -14.1376
   -14.1259 -14.1259 -14.1199 -14.1199 -14.1083 -14.1083 -14.0941 -14.0941
   -14.0917 -14.0917 -14.0809 -14.0809  -5.6684  -5.6684  -5.1330  -5.1330
    -0.1045  -0.1045   0.9548   0.9548   3.4672   3.4672   4.1335   4.1335
     4.4925   4.4925   5.6813   5.6813   6.0932   6.0932   6.6219   6.6219

     occupation numbers 
     1.0000   1.0000   1.0000   1.0000   1.0000   1.0000   1.0000   1.0000
     1.0000   1.0000   1.0000   1.0000   1.0000   1.0000   1.0000   1.0000
     1.0000   1.0000   1.0000   1.0000   1.0000   1.0000   1.0000   1.0000
     1.0000   1.0000   1.0000   1.0000   1.0000   1.0000   1.0000   1.0000
     1.0000   1.0000   1.0000   1.0000   1.0000   1.0000   1.0000   1.0000

          k =-0.5000 0.5353 1.1438 (  6522 PWs)   bands (ev):

   -14.1482 -14.1482 -14.1464 -14.1464 -14.1402 -14.1402 -14.1376 -14.1376
   -14.1261 -14.1261 -14.1188 -14.1188 -14.1068 -14.1068 -14.0942 -14.0942
   -14.0918 -14.0918 -14.0809 -14.0809  -5.4875  -5.4875  -5.2084  -5.2084
    -0.2619  -0.2619   0.7359   0.7359   3.7033   3.7033   4.0770   4.0770
     4.7507   4.7507   5.2568   5.2568   5.9361   5.9361   6.4349   6.4349

     occupation numbers 
     1.0000   1.0000   1.0000   1.0000   1.0000   1.0000   1.0000   1.0000
     1.0000   1.0000   1.0000   1.0000   1.0000   1.0000   1.0000   1.0000
     1.0000   1.0000   1.0000   1.0000   1.0000   1.0000   1.0000   1.0000
     1.0000   1.0000   1.0000   1.0000   1.0000   1.0000   1.0000   1.0000
     1.0000   1.0000   1.0000   1.0000   1.0000   1.0000   1.0000   1.0000

          k =-0.5000 0.8922 0.1634 (  6552 PWs)   bands (ev):

   -14.1470 -14.1470 -14.1425 -14.1425 -14.1388 -14.1388 -14.1353 -14.1353
   -14.1286 -14.1286 -14.1234 -14.1234 -14.1083 -14.1083 -14.0968 -14.0968
   -14.0888 -14.0888 -14.0807 -14.0807  -5.6796  -5.6796  -5.0762  -5.0762
    -0.0070  -0.0070   0.7529   0.7529   3.7920   3.7920   4.3230   4.3230
     5.1507   5.1507   5.3420   5.3420   5.8777   5.8777   6.5978   6.5978

     occupation numbers 
     1.0000   1.0000   1.0000   1.0000   1.0000   1.0000   1.0000   1.0000
     1.0000   1.0000   1.0000   1.0000   1.0000   1.0000   1.0000   1.0000
     1.0000   1.0000   1.0000   1.0000   1.0000   1.0000   1.0000   1.0000
     1.0000   1.0000   1.0000   1.0000   1.0000   1.0000   1.0000   1.0000
     1.0000   1.0000   1.0000   1.0000   1.0000   1.0000   1.0000   1.0000

          k =-0.5000 0.8922 0.4902 (  6532 PWs)   bands (ev):

   -14.1485 -14.1485 -14.1439 -14.1439 -14.1390 -14.1390 -14.1347 -14.1347
   -14.1281 -14.1281 -14.1228 -14.1228 -14.1071 -14.1071 -14.0964 -14.0964
   -14.0891 -14.0891 -14.0807 -14.0807  -5.5939  -5.5939  -5.0639  -5.0639
     0.0446   0.0446   0.7619   0.7619   3.3712   3.3712   4.0894   4.0894
     4.5583   4.5583   5.5949   5.5949   5.7880   5.7880   6.4937   6.4937

     occupation numbers 
     1.0000   1.0000   1.0000   1.0000   1.0000   1.0000   1.0000   1.0000
     1.0000   1.0000   1.0000   1.0000   1.0000   1.0000   1.0000   1.0000
     1.0000   1.0000   1.0000   1.0000   1.0000   1.0000   1.0000   1.0000
     1.0000   1.0000   1.0000   1.0000   1.0000   1.0000   1.0000   1.0000
     1.0000   1.0000   1.0000   1.0000   1.0000   1.0000   1.0000   1.0000

          k =-0.5000 0.8922 0.8170 (  6514 PWs)   bands (ev):

   -14.1505 -14.1505 -14.1458 -14.1458 -14.1393 -14.1393 -14.1342 -14.1342
   -14.1276 -14.1276 -14.1218 -14.1218 -14.1052 -14.1052 -14.0958 -14.0958
   -14.0895 -14.0895 -14.0807 -14.0807  -5.4492  -5.4492  -5.0653  -5.0653
     0.0734   0.0734   0.7847   0.7847   3.0127   3.0127   3.7629   3.7629
     4.4180   4.4180   5.0644   5.0644   5.5631   5.5631   6.2887   6.2887

     occupation numbers 
     1.0000   1.0000   1.0000   1.0000   1.0000   1.0000   1.0000   1.0000
     1.0000   1.0000   1.0000   1.0000   1.0000   1.0000   1.0000   1.0000
     1.0000   1.0000   1.0000   1.0000   1.0000   1.0000   1.0000   1.0000
     1.0000   1.0000   1.0000   1.0000   1.0000   1.0000   1.0000   1.0000
     1.0000   1.0000   1.0000   1.0000   1.0000   1.0000   1.0000   1.0000

          k =-0.5000 0.8922 1.1438 (  6530 PWs)   bands (ev):

   -14.1519 -14.1519 -14.1473 -14.1473 -14.1394 -14.1394 -14.1340 -14.1340
   -14.1274 -14.1274 -14.1210 -14.1210 -14.1037 -14.1037 -14.0952 -14.0952
   -14.0898 -14.0898 -14.0807 -14.0807  -5.3044  -5.3044  -5.1052  -5.1052
     0.0483   0.0483   0.8166   0.8166   3.0216   3.0216   3.3598   3.3598
     4.4053   4.4053   4.7297   4.7297   5.4575   5.4575   5.9318   5.9318

     occupation numbers 
     1.0000   1.0000   1.0000   1.0000   1.0000   1.0000   1.0000   1.0000
     1.0000   1.0000   1.0000   1.0000   1.0000   1.0000   1.0000   1.0000
     1.0000   1.0000   1.0000   1.0000   1.0000   1.0000   1.0000   1.0000
     1.0000   1.0000   1.0000   1.0000   1.0000   1.0000   1.0000   1.0000
     1.0000   1.0000   1.0000   1.0000   1.0000   1.0000   1.0000   1.0000

          k =-0.5000 1.2491 0.1634 (  6544 PWs)   bands (ev):

   -14.1475 -14.1475 -14.1459 -14.1459 -14.1346 -14.1346 -14.1337 -14.1337
   -14.1281 -14.1281 -14.1253 -14.1253 -14.1050 -14.1050 -14.1013 -14.1013
   -14.0845 -14.0845 -14.0815 -14.0815  -5.3819  -5.3819  -5.1558  -5.1558
    -0.0933  -0.0933   0.1745   0.1745   4.2622   4.2622   4.6045   4.6045
     5.0857   5.0857   5.3021   5.3021   5.9927   5.9927   6.3076   6.3076

     occupation numbers 
     1.0000   1.0000   1.0000   1.0000   1.0000   1.0000   1.0000   1.0000
     1.0000   1.0000   1.0000   1.0000   1.0000   1.0000   1.0000   1.0000
     1.0000   1.0000   1.0000   1.0000   1.0000   1.0000   1.0000   1.0000
     1.0000   1.0000   1.0000   1.0000   1.0000   1.0000   1.0000   1.0000
     1.0000   1.0000   1.0000   1.0000   1.0000   1.0000   1.0000   1.0000

          k =-0.5000 1.2491 0.4902 (  6528 PWs)   bands (ev):

   -14.1494 -14.1494 -14.1478 -14.1478 -14.1349 -14.1349 -14.1334 -14.1334
   -14.1272 -14.1272 -14.1248 -14.1248 -14.1039 -14.1039 -14.1005 -14.1005
   -14.0846 -14.0846 -14.0816 -14.0816  -5.3189  -5.3189  -5.1211  -5.1211
     0.0421   0.0421   0.2886   0.2886   3.6622   3.6622   4.1599   4.1599
     4.6744   4.6744   5.1140   5.1140   5.6471   5.6471   6.0749   6.0749

     occupation numbers 
     1.0000   1.0000   1.0000   1.0000   1.0000   1.0000   1.0000   1.0000
     1.0000   1.0000   1.0000   1.0000   1.0000   1.0000   1.0000   1.0000
     1.0000   1.0000   1.0000   1.0000   1.0000   1.0000   1.0000   1.0000
     1.0000   1.0000   1.0000   1.0000   1.0000   1.0000   1.0000   1.0000
     1.0000   1.0000   1.0000   1.0000   1.0000   1.0000   1.0000   1.0000

          k =-0.5000 1.2491 0.8170 (  6518 PWs)   bands (ev):

   -14.1521 -14.1521 -14.1503 -14.1503 -14.1354 -14.1354 -14.1332 -14.1332
   -14.1262 -14.1262 -14.1240 -14.1240 -14.1022 -14.1022 -14.0993 -14.0993
   -14.0848 -14.0848 -14.0817 -14.0817  -5.2197  -5.2197  -5.0771  -5.0771
     0.2480   0.2480   0.4866   0.4866   3.0797   3.0797   3.5791   3.5791
     4.1239   4.1239   4.5732   4.5732   5.4978   5.4978   5.8638   5.8638

     occupation numbers 
     1.0000   1.0000   1.0000   1.0000   1.0000   1.0000   1.0000   1.0000
     1.0000   1.0000   1.0000   1.0000   1.0000   1.0000   1.0000   1.0000
     1.0000   1.0000   1.0000   1.0000   1.0000   1.0000   1.0000   1.0000
     1.0000   1.0000   1.0000   1.0000   1.0000   1.0000   1.0000   1.0000
     1.0000   1.0000   1.0000   1.0000   1.0000   1.0000   1.0000   1.0000

          k =-0.5000 1.2491 1.1438 (  6532 PWs)   bands (ev):

   -14.1539 -14.1539 -14.1521 -14.1521 -14.1358 -14.1358 -14.1333 -14.1333
   -14.1255 -14.1255 -14.1233 -14.1233 -14.1010 -14.1010 -14.0983 -14.0983
   -14.0850 -14.0850 -14.0817 -14.0817  -5.1327  -5.1327  -5.0590  -5.0590
     0.3911   0.3911   0.6814   0.6814   2.8584   2.8584   3.1080   3.1080
     3.7388   3.7388   4.0591   4.0591   5.5929   5.5929   5.7732   5.7732

     occupation numbers 
     1.0000   1.0000   1.0000   1.0000   1.0000   1.0000   1.0000   1.0000
     1.0000   1.0000   1.0000   1.0000   1.0000   1.0000   1.0000   1.0000
     1.0000   1.0000   1.0000   1.0000   1.0000   1.0000   1.0000   1.0000
     1.0000   1.0000   1.0000   1.0000   1.0000   1.0000   1.0000   1.0000
     1.0000   1.0000   1.0000   1.0000   1.0000   1.0000   1.0000   1.0000

     highest occupied level (ev):     6.9936

!    total energy              =    -827.74074162 Ry
     estimated scf accuracy    <          2.8E-10 Ry

     The total energy is the sum of the following terms:
     one-electron contribution =    -273.17365817 Ry
     hartree contribution      =     184.65359577 Ry
     xc contribution           =    -308.86532923 Ry
     ewald contribution        =    -430.23786764 Ry
     DFT-D3 Dispersion         =      -0.11748235 Ry

     convergence has been achieved in  12 iterations

     Forces acting on atoms (cartesian axes, Ry/au):

     atom    1 type  2   force =    -0.00751969    0.00000000   -0.00051962
     atom    2 type  1   force =     0.00816946    0.00000000    0.00122476
     atom    3 type  2   force =     0.00751969    0.00000000   -0.00051962
     atom    4 type  1   force =    -0.00816946   -0.00000000    0.00122476
     atom    5 type  2   force =    -0.00751969    0.00000000    0.00051962
     atom    6 type  1   force =     0.00816946    0.00000000   -0.00122476
     atom    7 type  2   force =     0.00751969   -0.00000000    0.00051962
     atom    8 type  1   force =    -0.00816946    0.00000000   -0.00122476
     The non-local contrib.  to forces
     atom    1 type  2   force =    -0.09586108    0.00000000    0.11582897
     atom    2 type  1   force =     0.33739589    0.00000000    0.30262911
     atom    3 type  2   force =     0.09586108    0.00000000    0.11582897
     atom    4 type  1   force =    -0.33739589    0.00000000    0.30262911
     atom    5 type  2   force =    -0.09586108    0.00000000   -0.11582897
     atom    6 type  1   force =     0.33739589    0.00000000   -0.30262911
     atom    7 type  2   force =     0.09586108    0.00000000   -0.11582897
     atom    8 type  1   force =    -0.33739589    0.00000000   -0.30262911
     The ionic contribution  to forces
     atom    1 type  2   force =     0.93523436   -0.00000000   -1.41552364
     atom    2 type  1   force =    -0.57548584    0.00000000   -0.87786322
     atom    3 type  2   force =    -0.93523436    0.00000000   -1.41552364
     atom    4 type  1   force =     0.57548584    0.00000000   -0.87786322
     atom    5 type  2   force =     0.93523436    0.00000000    1.41552364
     atom    6 type  1   force =    -0.57548584    0.00000000    0.87786322
     atom    7 type  2   force =    -0.93523436    0.00000000    1.41552364
     atom    8 type  1   force =     0.57548584    0.00000000    0.87786322
     The local contribution  to forces
     atom    1 type  2   force =    -0.85744885    0.00000000    1.31001395
     atom    2 type  1   force =     0.25383298   -0.00000000    0.57999302
     atom    3 type  2   force =     0.85744885    0.00000000    1.31001395
     atom    4 type  1   force =    -0.25383298    0.00000000    0.57999302
     atom    5 type  2   force =    -0.85744885    0.00000000   -1.31001395
     atom    6 type  1   force =     0.25383298   -0.00000000   -0.57999302
     atom    7 type  2   force =     0.85744885    0.00000000   -1.31001395
     atom    8 type  1   force =    -0.25383298   -0.00000000   -0.57999302
     The core correction contribution to forces
     atom    1 type  2   force =     0.01101174    0.00000000   -0.01278365
     atom    2 type  1   force =    -0.00731089   -0.00000000   -0.00470639
     atom    3 type  2   force =    -0.01101174   -0.00000000   -0.01278365
     atom    4 type  1   force =     0.00731089    0.00000000   -0.00470639
     atom    5 type  2   force =     0.01101174   -0.00000000    0.01278365
     atom    6 type  1   force =    -0.00731089    0.00000000    0.00470639
     atom    7 type  2   force =    -0.01101174   -0.00000000    0.01278365
     atom    8 type  1   force =     0.00731089   -0.00000000    0.00470639
     The Hubbard contrib.    to forces
     atom    1 type  2   force =     0.00000000    0.00000000    0.00000000
     atom    2 type  1   force =     0.00000000    0.00000000    0.00000000
     atom    3 type  2   force =     0.00000000    0.00000000    0.00000000
     atom    4 type  1   force =     0.00000000    0.00000000    0.00000000
     atom    5 type  2   force =     0.00000000    0.00000000    0.00000000
     atom    6 type  1   force =     0.00000000    0.00000000    0.00000000
     atom    7 type  2   force =     0.00000000    0.00000000    0.00000000
     atom    8 type  1   force =     0.00000000    0.00000000    0.00000000
     The SCF correction term to forces
     atom    1 type  2   force =     0.00000223    0.00000000   -0.00000102
     atom    2 type  1   force =    -0.00000070   -0.00000000    0.00000319
     atom    3 type  2   force =    -0.00000223   -0.00000000   -0.00000102
     atom    4 type  1   force =     0.00000070    0.00000000    0.00000319
     atom    5 type  2   force =     0.00000223    0.00000000    0.00000102
     atom    6 type  1   force =    -0.00000070    0.00000000   -0.00000319
     atom    7 type  2   force =    -0.00000223   -0.00000000    0.00000102
     atom    8 type  1   force =     0.00000070    0.00000000   -0.00000319

     DFT-D3 dispersion contribution to forces:
     atom    1 type  2   force =    -0.00045809   -0.00000000    0.00194576
     atom    2 type  1   force =    -0.00026197   -0.00000000    0.00116905
     atom    3 type  2   force =     0.00045809    0.00000000    0.00194576
     atom    4 type  1   force =     0.00026197   -0.00000000    0.00116905
     atom    5 type  2   force =    -0.00045809    0.00000000   -0.00194576
     atom    6 type  1   force =    -0.00026197    0.00000000   -0.00116905
     atom    7 type  2   force =     0.00045809    0.00000000   -0.00194576
     atom    8 type  1   force =     0.00026197   -0.00000000   -0.00116905

     Total force =     0.022366     Total SCF correction =     0.000008

     DFT-D3 dispersion Force =     0.004661

     Writing all to output data dir ./tmp/SnSe_pnma.save/ :
     XML data file, charge density, pseudopotentials, collected wavefunctions
 
     init_run     :      1.80s CPU      1.98s WALL (       1 calls)
     electrons    :     40.07s CPU     43.01s WALL (       1 calls)
     forces       :      0.77s CPU      0.86s WALL (       1 calls)
     force_dftd3  :      0.05s CPU      0.05s WALL (       1 calls)

     Called by init_run:
     wfcinit      :      1.08s CPU      1.10s WALL (       1 calls)
     wfcinit:atom :      0.01s CPU      0.02s WALL (      11 calls)
     wfcinit:wfcr :      0.92s CPU      0.93s WALL (      11 calls)
     potinit      :      0.15s CPU      0.18s WALL (       1 calls)
     hinit0       :      0.23s CPU      0.24s WALL (       1 calls)

     Called by electrons:
     c_bands      :     29.22s CPU     29.58s WALL (      12 calls)
     sum_band     :      7.15s CPU      8.37s WALL (      12 calls)
     v_of_rho     :      1.39s CPU      1.44s WALL (      13 calls)
     v_h          :      0.10s CPU      0.10s WALL (      13 calls)
     v_xc         :      1.39s CPU      1.44s WALL (      14 calls)
     newd         :      2.36s CPU      3.74s WALL (      13 calls)
     mix_rho      :      0.15s CPU      0.15s WALL (      12 calls)
     energy_dftd3 :      0.05s CPU      0.05s WALL (       1 calls)

     Called by c_bands:
     init_us_2    :      0.93s CPU      0.95s WALL (     286 calls)
     cegterg      :     25.34s CPU     25.60s WALL (     132 calls)

     Called by sum_band:
     sum_band:wei :      0.00s CPU      0.00s WALL (      12 calls)
     sum_band:loo :      4.24s CPU      4.28s WALL (      12 calls)
     sum_band:buf :      0.06s CPU      0.06s WALL (     132 calls)
     sum_band:ini :      0.40s CPU      0.40s WALL (     132 calls)
     sum_band:cal :      0.59s CPU      0.59s WALL (     132 calls)
     sum_band:bec :      0.01s CPU      0.01s WALL (     132 calls)
     addusdens    :      2.43s CPU      3.54s WALL (      12 calls)
                                        0.00s GPU  (      12 calls)
     addusd:skk   :      0.01s CPU      0.01s WALL (      24 calls)
                                        0.00s GPU  (      24 calls)

     Called by *egterg:
     cdiaghg      :      0.98s CPU      0.99s WALL (     607 calls)
     cegterg:over :      1.43s CPU      1.43s WALL (     475 calls)
     cegterg:upda :      0.81s CPU      0.83s WALL (     475 calls)
     cegterg:last :      1.92s CPU      1.92s WALL (     328 calls)
     h_psi        :     18.11s CPU     18.30s WALL (     618 calls)
     s_psi        :      2.04s CPU      2.07s WALL (     618 calls)
     g_psi        :      0.08s CPU      0.08s WALL (     475 calls)

     Called by h_psi:
     h_psi:calbec :      1.92s CPU      1.93s WALL (     618 calls)
     vloc_psi     :     13.93s CPU     14.08s WALL (     618 calls)
     add_vuspsi   :      2.10s CPU      2.10s WALL (     618 calls)

     General routines
     calbec       :      2.70s CPU      2.72s WALL (     794 calls)
     fft          :      0.67s CPU      0.68s WALL (     178 calls)
     ffts         :      0.02s CPU      0.02s WALL (      25 calls)
     fftw         :      9.56s CPU      9.67s WALL (   37448 calls)
     interpolate  :      0.07s CPU      0.07s WALL (      13 calls)
 
     Parallel routines
 
     PWSCF        :     42.89s CPU     46.71s WALL

 
   This run was terminated on:  15:20:29  20May2026            

=------------------------------------------------------------------------------=
   JOB DONE.
=------------------------------------------------------------------------------=
