
     Program PWSCF v.7.3.1 starts on 20May2026 at 19:54: 0 

     This program is part of the open-source Quantum ESPRESSO suite
     for quantum simulation of materials; please cite
         "P. Giannozzi et al., J. Phys.:Condens. Matter 21 395502 (2009);
         "P. Giannozzi et al., J. Phys.:Condens. Matter 29 465901 (2017);
         "P. Giannozzi et al., J. Chem. Phys. 152 154105 (2020);
          URL http://www.quantum-espresso.org", 
     in publications or presentations arising from this work. More details at
     http://www.quantum-espresso.org/quote

     Parallel version (MPI & OpenMP), running on       6 processor cores
     Number of MPI processes:                 6
     Threads/MPI process:                     1

     MPI processes distributed on     1 nodes
     5387 MiB available memory on the printing compute node when the environment starts
 
     Waiting for input...
     Reading input from standard input

     Current dimensions of program PWSCF are:
     Max number of different atomic species (ntypx) = 10
     Max number of k-points (npk) =  40000
     Max angular momentum in pseudopotentials (lmaxx) =  4
 
     K-points division:     npool     =       3
     R & G space division:  proc/nbgrp/npool/nimage =       2
     Subspace diagonalization in iterative solution of the eigenvalue problem:
     a serial algorithm will be used

 
     Parallelization info
     --------------------
     sticks:   dense  smooth     PW     G-vecs:    dense   smooth      PW
     Min        4043    1617    456               180990    45780    6901
     Max        4044    1618    457               180991    45781    6902
     Sum        8087    3235    913               361981    91561   13803
 
     Using Slab Decomposition
 


     bravais-lattice index     =            8
     lattice parameter (alat)  =      21.4862  a.u.
     unit-cell volume          =    1458.0585 (a.u.)^3
     number of atoms/cell      =            8
     number of atomic types    =            2
     number of electrons       =        80.00
     number of Kohn-Sham states=           40
     kinetic-energy cutoff     =      60.0000  Ry
     charge density cutoff     =     600.0000  Ry
     scf convergence threshold =      1.0E-08
     mixing beta               =       0.7000
     number of iterations used =            8  plain     mixing
     Exchange-correlation= SLA  PW   PBE  PBE
                           (   1   4   3   4   0   0   0)

     celldm(1)=  21.486186  celldm(2)=   0.366878  celldm(3)=   0.400660
     celldm(4)=   0.000000  celldm(5)=   0.000000  celldm(6)=   0.000000

     crystal axes: (cart. coord. in units of alat)
               a(1) = (   1.000000   0.000000   0.000000 )  
               a(2) = (   0.000000   0.366878   0.000000 )  
               a(3) = (   0.000000   0.000000   0.400660 )  

     reciprocal axes: (cart. coord. in units 2 pi/alat)
               b(1) = (  1.000000  0.000000  0.000000 )  
               b(2) = (  0.000000  2.725704  0.000000 )  
               b(3) = (  0.000000  0.000000  2.495884 )  


     PseudoPot. # 1 for Sn read from file:
     ../pseudo/Sn_pbe_v1.uspp.F.UPF
     MD5 check sum: 4cf58ce39ec5d5d420df3dd08604eb00
     Pseudo is Ultrasoft + core correction, Zval = 14.0
     Generated by new atomic code, or converted to UPF format
     Using radial grid of  891 points,  6 beta functions with: 
                l(1) =   0
                l(2) =   0
                l(3) =   1
                l(4) =   1
                l(5) =   2
                l(6) =   2
     Q(r) pseudized with  6 coefficients,  rinner =    1.200   1.200   1.200
                                                       1.200   1.200

     PseudoPot. # 2 for Se read from file:
     ../pseudo/Se_pbe_v1.uspp.F.UPF
     MD5 check sum: 1b3568f3a8ae88f9a2a0ad0698632c85
     Pseudo is Ultrasoft + core correction, Zval =  6.0
     Generated by new atomic code, or converted to UPF format
     Using radial grid of  877 points,  6 beta functions with: 
                l(1) =   0
                l(2) =   0
                l(3) =   1
                l(4) =   1
                l(5) =   2
                l(6) =   2
     Q(r) pseudized with  8 coefficients,  rinner =    1.300   1.300   1.300
                                                       1.300   1.300

     atomic species   valence    mass     pseudopotential
     Sn               14.00   118.71000     Sn( 1.00)
     Se                6.00    78.97100     Se( 1.00)

      8 Sym. Ops., with inversion, found ( 6 have fractional translation)


                                    s                        frac. trans.

      isym =  1     identity                                     

 cryst.   s( 1) = (     1          0          0      )
                  (     0          1          0      )
                  (     0          0          1      )

 cart.    s( 1) = (  1.0000000  0.0000000  0.0000000 )
                  (  0.0000000  1.0000000  0.0000000 )
                  (  0.0000000  0.0000000  1.0000000 )


      isym =  2     180 deg rotation - cart. axis [0,0,1]        

 cryst.   s( 2) = (    -1          0          0      )    f =(  0.5000000 )
                  (     0         -1          0      )       ( -0.0000000 )
                  (     0          0          1      )       ( -0.5000000 )

 cart.    s( 2) = ( -1.0000000  0.0000000  0.0000000 )    f =(  0.5000000 )
                  (  0.0000000 -1.0000000  0.0000000 )       ( -0.0000000 )
                  (  0.0000000  0.0000000  1.0000000 )       ( -0.2003298 )


      isym =  3     180 deg rotation - cart. axis [0,1,0]        

 cryst.   s( 3) = (    -1          0          0      )    f =(  0.0000000 )
                  (     0          1          0      )       ( -0.5000000 )
                  (     0          0         -1      )       (  0.0000000 )

 cart.    s( 3) = ( -1.0000000  0.0000000  0.0000000 )    f =(  0.0000000 )
                  (  0.0000000  1.0000000  0.0000000 )       ( -0.1834389 )
                  (  0.0000000  0.0000000 -1.0000000 )       (  0.0000000 )


      isym =  4     180 deg rotation - cart. axis [1,0,0]        

 cryst.   s( 4) = (     1          0          0      )    f =(  0.5000000 )
                  (     0         -1          0      )       (  0.5000000 )
                  (     0          0         -1      )       (  0.5000000 )

 cart.    s( 4) = (  1.0000000  0.0000000  0.0000000 )    f =(  0.5000000 )
                  (  0.0000000 -1.0000000  0.0000000 )       (  0.1834389 )
                  (  0.0000000  0.0000000 -1.0000000 )       (  0.2003298 )


      isym =  5     inversion                                    

 cryst.   s( 5) = (    -1          0          0      )
                  (     0         -1          0      )
                  (     0          0         -1      )

 cart.    s( 5) = ( -1.0000000  0.0000000  0.0000000 )
                  (  0.0000000 -1.0000000  0.0000000 )
                  (  0.0000000  0.0000000 -1.0000000 )


      isym =  6     inv. 180 deg rotation - cart. axis [0,0,1]   

 cryst.   s( 6) = (     1          0          0      )    f =(  0.5000000 )
                  (     0          1          0      )       (  0.0000000 )
                  (     0          0         -1      )       (  0.5000000 )

 cart.    s( 6) = (  1.0000000  0.0000000  0.0000000 )    f =(  0.5000000 )
                  (  0.0000000  1.0000000  0.0000000 )       (  0.0000000 )
                  (  0.0000000  0.0000000 -1.0000000 )       (  0.2003298 )


      isym =  7     inv. 180 deg rotation - cart. axis [0,1,0]   

 cryst.   s( 7) = (     1          0          0      )    f =(  0.0000000 )
                  (     0         -1          0      )       (  0.5000000 )
                  (     0          0          1      )       (  0.0000000 )

 cart.    s( 7) = (  1.0000000  0.0000000  0.0000000 )    f =(  0.0000000 )
                  (  0.0000000 -1.0000000  0.0000000 )       (  0.1834389 )
                  (  0.0000000  0.0000000  1.0000000 )       (  0.0000000 )


      isym =  8     inv. 180 deg rotation - cart. axis [1,0,0]   

 cryst.   s( 8) = (    -1          0          0      )    f =(  0.5000000 )
                  (     0          1          0      )       ( -0.5000000 )
                  (     0          0          1      )       ( -0.5000000 )

 cart.    s( 8) = ( -1.0000000  0.0000000  0.0000000 )    f =(  0.5000000 )
                  (  0.0000000  1.0000000  0.0000000 )       ( -0.1834389 )
                  (  0.0000000  0.0000000  1.0000000 )       ( -0.2003298 )


     point group D_2h (mmm) 
     there are  8 classes
     the character table:

       E     C2    C2'   C2''  i     s_v   s_v'  s_v''
A_g    1.00  1.00  1.00  1.00  1.00  1.00  1.00  1.00
B_1g   1.00  1.00 -1.00 -1.00  1.00  1.00 -1.00 -1.00
B_2g   1.00 -1.00  1.00 -1.00  1.00 -1.00  1.00 -1.00
B_3g   1.00 -1.00 -1.00  1.00  1.00 -1.00 -1.00  1.00
A_u    1.00  1.00  1.00  1.00 -1.00 -1.00 -1.00 -1.00
B_1u   1.00  1.00 -1.00 -1.00 -1.00 -1.00  1.00  1.00
B_2u   1.00 -1.00  1.00 -1.00 -1.00  1.00 -1.00  1.00
B_3u   1.00 -1.00 -1.00  1.00 -1.00  1.00  1.00 -1.00

     the symmetry operations in each class and the name of the first element:

     E        1
          identity                                               
     C2       2
          180 deg rotation - cart. axis [0,0,1]                  
     C2'      4
          180 deg rotation - cart. axis [1,0,0]                  
     C2''     3
          180 deg rotation - cart. axis [0,1,0]                  
     i        5
          inversion                                              
     s_v      6
          inv. 180 deg rotation - cart. axis [0,0,1]             
     s_v'     8
          inv. 180 deg rotation - cart. axis [1,0,0]             
     s_v''    7
          inv. 180 deg rotation - cart. axis [0,1,0]             

   Cartesian axes

     site n.     atom                  positions (alat units)
         1        Se     tau(   1) = (   0.8549563   0.0917194   0.1936180  )
         2        Sn     tau(   2) = (   0.1165395   0.0917194   0.0449889  )
         3        Se     tau(   3) = (   0.6450437   0.2751583   0.3939478  )
         4        Sn     tau(   4) = (   0.3834605   0.2751583   0.2453187  )
         5        Se     tau(   5) = (   0.3549563   0.0917194   0.0067118  )
         6        Sn     tau(   6) = (   0.6165395   0.0917194   0.1553409  )
         7        Se     tau(   7) = (   0.1450437   0.2751583   0.2070416  )
         8        Sn     tau(   8) = (   0.8834605   0.2751583   0.3556708  )

     --------------------------------------------
     DFT-D3 Dispersion Correction (3-body terms):
     --------------------------------------------
       Reference C6 values for interpolation: 

         atom   Coordination number   C6
         Se         0.000           427.35
         Se         0.990           427.57
         Se         1.981           421.05
         Sn         0.000          1255.14
         Sn         0.951          1084.09
         Sn         1.950          1010.83
         Sn         2.926           818.29
         Sn         3.912           672.20

       Values used:

         atom   Coordination number  R0_AB[au]  C6      C8
         Se         3.479            3.332    421.05  29958.36
         Sn         4.232            3.957    672.43  84397.02
         Se         3.479            3.332    421.05  29958.36
         Sn         4.232            3.957    672.43  84397.02
         Se         3.479            3.332    421.05  29958.36
         Sn         4.232            3.957    672.43  84397.02
         Se         3.479            3.332    421.05  29958.36
         Sn         4.232            3.957    672.43  84397.02

         Molecular C6 ( Ry / a.u.^6 ) =     34502.54


   Crystallographic axes

     site n.     atom                  positions (cryst. coord.)
         1        Se     tau(   1) = (  0.8549563  0.2500000  0.4832481  )
         2        Sn     tau(   2) = (  0.1165395  0.2500000  0.1122870  )
         3        Se     tau(   3) = (  0.6450437  0.7500000  0.9832481  )
         4        Sn     tau(   4) = (  0.3834605  0.7500000  0.6122870  )
         5        Se     tau(   5) = (  0.3549563  0.2500000  0.0167519  )
         6        Sn     tau(   6) = (  0.6165395  0.2500000  0.3877130  )
         7        Se     tau(   7) = (  0.1450437  0.7500000  0.5167519  )
         8        Sn     tau(   8) = (  0.8834605  0.7500000  0.8877130  )

     number of k points=    32
                       cart. coord. in units 2pi/alat
        k(    1) = (   0.1666667   0.1703565   0.1559928), wk =   0.0833333
        k(    2) = (   0.1666667   0.1703565   0.4679783), wk =   0.0833333
        k(    3) = (   0.1666667   0.1703565   0.7799638), wk =   0.0833333
        k(    4) = (   0.1666667   0.1703565   1.0919493), wk =   0.0833333
        k(    5) = (   0.1666667   0.5110694   0.1559928), wk =   0.0833333
        k(    6) = (   0.1666667   0.5110694   0.4679783), wk =   0.0833333
        k(    7) = (   0.1666667   0.5110694   0.7799638), wk =   0.0833333
        k(    8) = (   0.1666667   0.5110694   1.0919493), wk =   0.0833333
        k(    9) = (   0.1666667   0.8517824   0.1559928), wk =   0.0833333
        k(   10) = (   0.1666667   0.8517824   0.4679783), wk =   0.0833333
        k(   11) = (   0.1666667   0.8517824   0.7799638), wk =   0.0833333
        k(   12) = (   0.1666667   0.8517824   1.0919493), wk =   0.0833333
        k(   13) = (   0.1666667   1.1924953   0.1559928), wk =   0.0833333
        k(   14) = (   0.1666667   1.1924953   0.4679783), wk =   0.0833333
        k(   15) = (   0.1666667   1.1924953   0.7799638), wk =   0.0833333
        k(   16) = (   0.1666667   1.1924953   1.0919493), wk =   0.0833333
        k(   17) = (  -0.5000000   0.1703565   0.1559928), wk =   0.0416667
        k(   18) = (  -0.5000000   0.1703565   0.4679783), wk =   0.0416667
        k(   19) = (  -0.5000000   0.1703565   0.7799638), wk =   0.0416667
        k(   20) = (  -0.5000000   0.1703565   1.0919493), wk =   0.0416667
        k(   21) = (  -0.5000000   0.5110694   0.1559928), wk =   0.0416667
        k(   22) = (  -0.5000000   0.5110694   0.4679783), wk =   0.0416667
        k(   23) = (  -0.5000000   0.5110694   0.7799638), wk =   0.0416667
        k(   24) = (  -0.5000000   0.5110694   1.0919493), wk =   0.0416667
        k(   25) = (  -0.5000000   0.8517824   0.1559928), wk =   0.0416667
        k(   26) = (  -0.5000000   0.8517824   0.4679783), wk =   0.0416667
        k(   27) = (  -0.5000000   0.8517824   0.7799638), wk =   0.0416667
        k(   28) = (  -0.5000000   0.8517824   1.0919493), wk =   0.0416667
        k(   29) = (  -0.5000000   1.1924953   0.1559928), wk =   0.0416667
        k(   30) = (  -0.5000000   1.1924953   0.4679783), wk =   0.0416667
        k(   31) = (  -0.5000000   1.1924953   0.7799638), wk =   0.0416667
        k(   32) = (  -0.5000000   1.1924953   1.0919493), wk =   0.0416667

                       cryst. coord.
        k(    1) = (   0.1666667   0.0625000   0.0625000), wk =   0.0833333
        k(    2) = (   0.1666667   0.0625000   0.1875000), wk =   0.0833333
        k(    3) = (   0.1666667   0.0625000   0.3125000), wk =   0.0833333
        k(    4) = (   0.1666667   0.0625000   0.4375000), wk =   0.0833333
        k(    5) = (   0.1666667   0.1875000   0.0625000), wk =   0.0833333
        k(    6) = (   0.1666667   0.1875000   0.1875000), wk =   0.0833333
        k(    7) = (   0.1666667   0.1875000   0.3125000), wk =   0.0833333
        k(    8) = (   0.1666667   0.1875000   0.4375000), wk =   0.0833333
        k(    9) = (   0.1666667   0.3125000   0.0625000), wk =   0.0833333
        k(   10) = (   0.1666667   0.3125000   0.1875000), wk =   0.0833333
        k(   11) = (   0.1666667   0.3125000   0.3125000), wk =   0.0833333
        k(   12) = (   0.1666667   0.3125000   0.4375000), wk =   0.0833333
        k(   13) = (   0.1666667   0.4375000   0.0625000), wk =   0.0833333
        k(   14) = (   0.1666667   0.4375000   0.1875000), wk =   0.0833333
        k(   15) = (   0.1666667   0.4375000   0.3125000), wk =   0.0833333
        k(   16) = (   0.1666667   0.4375000   0.4375000), wk =   0.0833333
        k(   17) = (  -0.5000000   0.0625000   0.0625000), wk =   0.0416667
        k(   18) = (  -0.5000000   0.0625000   0.1875000), wk =   0.0416667
        k(   19) = (  -0.5000000   0.0625000   0.3125000), wk =   0.0416667
        k(   20) = (  -0.5000000   0.0625000   0.4375000), wk =   0.0416667
        k(   21) = (  -0.5000000   0.1875000   0.0625000), wk =   0.0416667
        k(   22) = (  -0.5000000   0.1875000   0.1875000), wk =   0.0416667
        k(   23) = (  -0.5000000   0.1875000   0.3125000), wk =   0.0416667
        k(   24) = (  -0.5000000   0.1875000   0.4375000), wk =   0.0416667
        k(   25) = (  -0.5000000   0.3125000   0.0625000), wk =   0.0416667
        k(   26) = (  -0.5000000   0.3125000   0.1875000), wk =   0.0416667
        k(   27) = (  -0.5000000   0.3125000   0.3125000), wk =   0.0416667
        k(   28) = (  -0.5000000   0.3125000   0.4375000), wk =   0.0416667
        k(   29) = (  -0.5000000   0.4375000   0.0625000), wk =   0.0416667
        k(   30) = (  -0.5000000   0.4375000   0.1875000), wk =   0.0416667
        k(   31) = (  -0.5000000   0.4375000   0.3125000), wk =   0.0416667
        k(   32) = (  -0.5000000   0.4375000   0.4375000), wk =   0.0416667

     Dense  grid:   361981 G-vectors     FFT dimensions: ( 180,  64,  72)

     Smooth grid:    91561 G-vectors     FFT dimensions: ( 108,  40,  48)

     Dynamical RAM for                 wfc:       3.49 MB

     Dynamical RAM for     wfc (w. buffer):      41.90 MB

     Dynamical RAM for           str. fact:       5.52 MB

     Dynamical RAM for           local pot:       0.00 MB

     Dynamical RAM for          nlocal pot:      12.57 MB

     Dynamical RAM for                qrad:       3.93 MB

     Dynamical RAM for          rho,v,vnew:      17.78 MB

     Dynamical RAM for               rhoin:       5.93 MB

     Dynamical RAM for            rho*nmix:      44.19 MB

     Dynamical RAM for           G-vectors:      10.71 MB

     Dynamical RAM for          h,s,v(r/c):       0.29 MB

     Dynamical RAM for          <psi|beta>:       0.09 MB

     Dynamical RAM for                 psi:       6.98 MB

     Dynamical RAM for                hpsi:       6.98 MB

     Dynamical RAM for                spsi:       6.98 MB

     Dynamical RAM for      wfcinit/wfcrot:       9.14 MB

     Dynamical RAM for           addusdens:     176.75 MB

     Dynamical RAM for          addusforce:     181.83 MB

     Estimated static dynamical RAM per process >     122.44 MB

     Estimated max dynamical RAM per process >     348.45 MB

     Estimated total dynamical RAM >       1.87 GB

     Initial potential from superposition of free atoms

     starting charge      75.9995, renormalised to      80.0000
     Starting wfcs are   52 randomized atomic wfcs

     total cpu time spent up to now is        3.8 secs

     Self-consistent Calculation

     iteration #  1     ecut=    60.00 Ry     beta= 0.70
     Davidson diagonalization with overlap

---- Real-time Memory Report at c_bands before calling an iterative solver
           392 MiB given to the printing process from OS
             0 MiB allocation reported by mallinfo(arena+hblkhd)
          4281 MiB available memory on the node where the printing process lives
------------------
     ethr =  1.00E-02,  avg # of iterations =  2.0

     total cpu time spent up to now is       10.7 secs

     total energy              =    -826.63940450 Ry
     estimated scf accuracy    <       2.67423367 Ry

     iteration #  2     ecut=    60.00 Ry     beta= 0.70
     Davidson diagonalization with overlap

---- Real-time Memory Report at c_bands before calling an iterative solver
           491 MiB given to the printing process from OS
             0 MiB allocation reported by mallinfo(arena+hblkhd)
          4104 MiB available memory on the node where the printing process lives
------------------
     ethr =  3.34E-03,  avg # of iterations =  3.0

     total cpu time spent up to now is       18.5 secs

     total energy              =    -827.54681014 Ry
     estimated scf accuracy    <       0.96488661 Ry

     iteration #  3     ecut=    60.00 Ry     beta= 0.70
     Davidson diagonalization with overlap

---- Real-time Memory Report at c_bands before calling an iterative solver
           531 MiB given to the printing process from OS
             0 MiB allocation reported by mallinfo(arena+hblkhd)
          3937 MiB available memory on the node where the printing process lives
------------------
     ethr =  1.21E-03,  avg # of iterations =  2.5

     total cpu time spent up to now is       25.1 secs

     total energy              =    -827.74068974 Ry
     estimated scf accuracy    <       0.00979672 Ry

     iteration #  4     ecut=    60.00 Ry     beta= 0.70
     Davidson diagonalization with overlap

---- Real-time Memory Report at c_bands before calling an iterative solver
           534 MiB given to the printing process from OS
             0 MiB allocation reported by mallinfo(arena+hblkhd)
          3934 MiB available memory on the node where the printing process lives
------------------
     ethr =  1.22E-05,  avg # of iterations =  5.0

     total cpu time spent up to now is       33.8 secs

     total energy              =    -827.74703232 Ry
     estimated scf accuracy    <       0.00500609 Ry

     iteration #  5     ecut=    60.00 Ry     beta= 0.70
     Davidson diagonalization with overlap

---- Real-time Memory Report at c_bands before calling an iterative solver
           537 MiB given to the printing process from OS
             0 MiB allocation reported by mallinfo(arena+hblkhd)
          3929 MiB available memory on the node where the printing process lives
------------------
     ethr =  6.26E-06,  avg # of iterations =  3.1

     total cpu time spent up to now is       40.8 secs

     total energy              =    -827.74865821 Ry
     estimated scf accuracy    <       0.00089598 Ry

     iteration #  6     ecut=    60.00 Ry     beta= 0.70
     Davidson diagonalization with overlap

---- Real-time Memory Report at c_bands before calling an iterative solver
           539 MiB given to the printing process from OS
             0 MiB allocation reported by mallinfo(arena+hblkhd)
          3926 MiB available memory on the node where the printing process lives
------------------
     ethr =  1.12E-06,  avg # of iterations =  2.0

     total cpu time spent up to now is       47.3 secs

     total energy              =    -827.74870056 Ry
     estimated scf accuracy    <       0.00014578 Ry

     iteration #  7     ecut=    60.00 Ry     beta= 0.70
     Davidson diagonalization with overlap

---- Real-time Memory Report at c_bands before calling an iterative solver
           541 MiB given to the printing process from OS
             0 MiB allocation reported by mallinfo(arena+hblkhd)
          3923 MiB available memory on the node where the printing process lives
------------------
     ethr =  1.82E-07,  avg # of iterations =  3.5

     total cpu time spent up to now is       54.4 secs

     total energy              =    -827.74873390 Ry
     estimated scf accuracy    <       0.00000311 Ry

     iteration #  8     ecut=    60.00 Ry     beta= 0.70
     Davidson diagonalization with overlap

---- Real-time Memory Report at c_bands before calling an iterative solver
           544 MiB given to the printing process from OS
             0 MiB allocation reported by mallinfo(arena+hblkhd)
          3917 MiB available memory on the node where the printing process lives
------------------
     ethr =  3.88E-09,  avg # of iterations =  7.7

     total cpu time spent up to now is       68.0 secs

     total energy              =    -827.74873995 Ry
     estimated scf accuracy    <       0.00000189 Ry

     iteration #  9     ecut=    60.00 Ry     beta= 0.70
     Davidson diagonalization with overlap

---- Real-time Memory Report at c_bands before calling an iterative solver
           547 MiB given to the printing process from OS
             0 MiB allocation reported by mallinfo(arena+hblkhd)
          3906 MiB available memory on the node where the printing process lives
------------------
     ethr =  2.37E-09,  avg # of iterations =  2.6

     total cpu time spent up to now is       74.8 secs

     total energy              =    -827.74874029 Ry
     estimated scf accuracy    <       0.00000003 Ry

     iteration # 10     ecut=    60.00 Ry     beta= 0.70
     Davidson diagonalization with overlap

---- Real-time Memory Report at c_bands before calling an iterative solver
           549 MiB given to the printing process from OS
             0 MiB allocation reported by mallinfo(arena+hblkhd)
          3903 MiB available memory on the node where the printing process lives
------------------
     ethr =  3.13E-11,  avg # of iterations =  5.5

     total cpu time spent up to now is       85.2 secs

     End of self-consistent calculation

          k = 0.1667 0.1704 0.1560 ( 11467 PWs)   bands (ev):

   -13.5557 -13.5459 -13.5420 -13.5394 -13.5386 -13.5367 -13.5326 -13.5293
   -13.5258 -13.5196 -13.5195 -13.5185 -13.5075 -13.5023 -13.4848 -13.4832
   -13.4771 -13.4766 -13.4666 -13.4604  -5.8805  -5.5840  -4.8576  -4.4524
     0.4665   1.3389   2.2350   2.5897   3.1192   4.3534   4.4874   4.7637
     5.0253   5.1129   5.6842   6.0113   6.2606   6.6879   7.0287   7.3270

     occupation numbers 
     1.0000   1.0000   1.0000   1.0000   1.0000   1.0000   1.0000   1.0000
     1.0000   1.0000   1.0000   1.0000   1.0000   1.0000   1.0000   1.0000
     1.0000   1.0000   1.0000   1.0000   1.0000   1.0000   1.0000   1.0000
     1.0000   1.0000   1.0000   1.0000   1.0000   1.0000   1.0000   1.0000
     1.0000   1.0000   1.0000   1.0000   1.0000   1.0000   1.0000   1.0000

          k = 0.1667 0.1704 0.4680 ( 11451 PWs)   bands (ev):

   -13.5542 -13.5454 -13.5419 -13.5405 -13.5383 -13.5379 -13.5332 -13.5303
   -13.5251 -13.5197 -13.5172 -13.5160 -13.5070 -13.5027 -13.4851 -13.4823
   -13.4781 -13.4772 -13.4661 -13.4608  -5.7632  -5.4765  -4.8581  -4.4919
     0.1536   1.0912   1.6850   2.2717   3.2200   4.3938   4.6065   5.1565
     5.3536   5.6409   5.6909   6.1182   6.4919   6.7961   7.1245   7.3602

     occupation numbers 
     1.0000   1.0000   1.0000   1.0000   1.0000   1.0000   1.0000   1.0000
     1.0000   1.0000   1.0000   1.0000   1.0000   1.0000   1.0000   1.0000
     1.0000   1.0000   1.0000   1.0000   1.0000   1.0000   1.0000   1.0000
     1.0000   1.0000   1.0000   1.0000   1.0000   1.0000   1.0000   1.0000
     1.0000   1.0000   1.0000   1.0000   1.0000   1.0000   1.0000   1.0000

          k = 0.1667 0.1704 0.7800 ( 11452 PWs)   bands (ev):

   -13.5517 -13.5450 -13.5424 -13.5416 -13.5395 -13.5383 -13.5338 -13.5318
   -13.5238 -13.5203 -13.5133 -13.5125 -13.5067 -13.5038 -13.4848 -13.4814
   -13.4797 -13.4781 -13.4652 -13.4617  -5.5519  -5.2845  -4.8981  -4.5924
    -0.1501   0.5913   1.2429   1.7941   3.5237   4.6244   4.8234   5.4189
     5.6756   5.7970   6.0609   6.1659   6.6634   7.1287   7.1726   7.6083

     occupation numbers 
     1.0000   1.0000   1.0000   1.0000   1.0000   1.0000   1.0000   1.0000
     1.0000   1.0000   1.0000   1.0000   1.0000   1.0000   1.0000   1.0000
     1.0000   1.0000   1.0000   1.0000   1.0000   1.0000   1.0000   1.0000
     1.0000   1.0000   1.0000   1.0000   1.0000   1.0000   1.0000   1.0000
     1.0000   1.0000   1.0000   1.0000   1.0000   1.0000   1.0000   1.0000

          k = 0.1667 0.1704 1.0919 ( 11426 PWs)   bands (ev):

   -13.5488 -13.5462 -13.5429 -13.5424 -13.5397 -13.5389 -13.5339 -13.5332
   -13.5224 -13.5212 -13.5093 -13.5090 -13.5073 -13.5057 -13.4837 -13.4820
   -13.4799 -13.4790 -13.4640 -13.4628  -5.2982  -5.1173  -4.9581  -4.7682
    -0.2019   0.0723   1.1577   1.3695   3.9929   4.4989   5.2009   5.4803
     5.7006   5.8337   6.1112   6.3795   6.9533   7.2569   7.4373   7.5204

     occupation numbers 
     1.0000   1.0000   1.0000   1.0000   1.0000   1.0000   1.0000   1.0000
     1.0000   1.0000   1.0000   1.0000   1.0000   1.0000   1.0000   1.0000
     1.0000   1.0000   1.0000   1.0000   1.0000   1.0000   1.0000   1.0000
     1.0000   1.0000   1.0000   1.0000   1.0000   1.0000   1.0000   1.0000
     1.0000   1.0000   1.0000   1.0000   1.0000   1.0000   1.0000   1.0000

          k = 0.1667 0.5111 0.1560 ( 11468 PWs)   bands (ev):

   -13.5499 -13.5442 -13.5418 -13.5385 -13.5371 -13.5363 -13.5353 -13.5326
   -13.5263 -13.5217 -13.5169 -13.5162 -13.5052 -13.5032 -13.4855 -13.4826
   -13.4800 -13.4754 -13.4663 -13.4617  -5.7186  -5.4448  -4.7932  -4.4548
     0.3217   1.0918   1.8998   2.0142   3.2339   4.2175   4.5287   4.8634
     5.1650   5.3286   5.7127   6.0614   6.2703   6.9129   7.1829   7.2906

     occupation numbers 
     1.0000   1.0000   1.0000   1.0000   1.0000   1.0000   1.0000   1.0000
     1.0000   1.0000   1.0000   1.0000   1.0000   1.0000   1.0000   1.0000
     1.0000   1.0000   1.0000   1.0000   1.0000   1.0000   1.0000   1.0000
     1.0000   1.0000   1.0000   1.0000   1.0000   1.0000   1.0000   1.0000
     1.0000   1.0000   1.0000   1.0000   1.0000   1.0000   1.0000   1.0000

          k = 0.1667 0.5111 0.4680 ( 11450 PWs)   bands (ev):

   -13.5498 -13.5443 -13.5432 -13.5391 -13.5373 -13.5366 -13.5347 -13.5339
   -13.5258 -13.5219 -13.5147 -13.5139 -13.5055 -13.5029 -13.4852 -13.4824
   -13.4803 -13.4763 -13.4659 -13.4620  -5.6072  -5.3439  -4.7909  -4.4831
     0.1644   1.0312   1.5424   1.9093   3.3676   3.8167   4.1160   4.9655
     5.1597   5.7129   5.8824   6.0785   6.6914   6.8325   7.1696   7.3489

     occupation numbers 
     1.0000   1.0000   1.0000   1.0000   1.0000   1.0000   1.0000   1.0000
     1.0000   1.0000   1.0000   1.0000   1.0000   1.0000   1.0000   1.0000
     1.0000   1.0000   1.0000   1.0000   1.0000   1.0000   1.0000   1.0000
     1.0000   1.0000   1.0000   1.0000   1.0000   1.0000   1.0000   1.0000
     1.0000   1.0000   1.0000   1.0000   1.0000   1.0000   1.0000   1.0000

          k = 0.1667 0.5111 0.7800 ( 11432 PWs)   bands (ev):

   -13.5498 -13.5460 -13.5435 -13.5403 -13.5381 -13.5360 -13.5357 -13.5340
   -13.5247 -13.5223 -13.5114 -13.5103 -13.5056 -13.5030 -13.4845 -13.4823
   -13.4805 -13.4777 -13.4651 -13.4625  -5.4086  -5.1657  -4.8219  -4.5611
    -0.0074   0.6999   1.2752   1.6834   3.6246   3.7698   4.0662   4.8670
     4.9873   5.7194   5.7973   6.3431   6.5689   6.8384   7.0477   7.3527

     occupation numbers 
     1.0000   1.0000   1.0000   1.0000   1.0000   1.0000   1.0000   1.0000
     1.0000   1.0000   1.0000   1.0000   1.0000   1.0000   1.0000   1.0000
     1.0000   1.0000   1.0000   1.0000   1.0000   1.0000   1.0000   1.0000
     1.0000   1.0000   1.0000   1.0000   1.0000   1.0000   1.0000   1.0000
     1.0000   1.0000   1.0000   1.0000   1.0000   1.0000   1.0000   1.0000

          k = 0.1667 0.5111 1.0919 ( 11423 PWs)   bands (ev):

   -13.5495 -13.5482 -13.5428 -13.5417 -13.5382 -13.5372 -13.5350 -13.5343
   -13.5237 -13.5229 -13.5084 -13.5072 -13.5059 -13.5042 -13.4836 -13.4826
   -13.4801 -13.4791 -13.4642 -13.4632  -5.1749  -5.0125  -4.8720  -4.7069
    -0.0086   0.2503   1.2623   1.4225   3.9422   4.0079   4.2883   4.5738
     4.8854   5.2037   5.8644   6.1481   6.5358   6.7910   7.0653   7.2590

     occupation numbers 
     1.0000   1.0000   1.0000   1.0000   1.0000   1.0000   1.0000   1.0000
     1.0000   1.0000   1.0000   1.0000   1.0000   1.0000   1.0000   1.0000
     1.0000   1.0000   1.0000   1.0000   1.0000   1.0000   1.0000   1.0000
     1.0000   1.0000   1.0000   1.0000   1.0000   1.0000   1.0000   1.0000
     1.0000   1.0000   1.0000   1.0000   1.0000   1.0000   1.0000   1.0000

          k = 0.1667 0.8518 0.1560 ( 11447 PWs)   bands (ev):

   -13.5479 -13.5457 -13.5439 -13.5432 -13.5348 -13.5326 -13.5315 -13.5298
   -13.5248 -13.5235 -13.5164 -13.5114 -13.5057 -13.5019 -13.4897 -13.4884
   -13.4768 -13.4724 -13.4660 -13.4638  -5.4230  -5.2027  -4.7259  -4.5216
     0.1281   0.7803   1.1141   1.4758   3.5741   4.3337   4.7076   5.0716
     5.4070   5.4935   5.8489   6.0341   6.3875   6.8847   6.9989   7.3808

     occupation numbers 
     1.0000   1.0000   1.0000   1.0000   1.0000   1.0000   1.0000   1.0000
     1.0000   1.0000   1.0000   1.0000   1.0000   1.0000   1.0000   1.0000
     1.0000   1.0000   1.0000   1.0000   1.0000   1.0000   1.0000   1.0000
     1.0000   1.0000   1.0000   1.0000   1.0000   1.0000   1.0000   1.0000
     1.0000   1.0000   1.0000   1.0000   1.0000   1.0000   1.0000   1.0000

          k = 0.1667 0.8518 0.4680 ( 11444 PWs)   bands (ev):

   -13.5506 -13.5476 -13.5454 -13.5437 -13.5354 -13.5316 -13.5311 -13.5296
   -13.5241 -13.5233 -13.5146 -13.5099 -13.5057 -13.5014 -13.4892 -13.4880
   -13.4768 -13.4731 -13.4656 -13.4637  -5.3258  -5.1167  -4.7143  -4.5246
     0.1674   0.8740   1.1464   1.3927   3.5744   3.6898   4.0582   4.6779
     5.1117   5.6526   5.7245   6.1958   6.2806   6.6791   6.8816   7.1390

     occupation numbers 
     1.0000   1.0000   1.0000   1.0000   1.0000   1.0000   1.0000   1.0000
     1.0000   1.0000   1.0000   1.0000   1.0000   1.0000   1.0000   1.0000
     1.0000   1.0000   1.0000   1.0000   1.0000   1.0000   1.0000   1.0000
     1.0000   1.0000   1.0000   1.0000   1.0000   1.0000   1.0000   1.0000
     1.0000   1.0000   1.0000   1.0000   1.0000   1.0000   1.0000   1.0000

          k = 0.1667 0.8518 0.7800 ( 11435 PWs)   bands (ev):

   -13.5533 -13.5510 -13.5470 -13.5456 -13.5350 -13.5315 -13.5304 -13.5294
   -13.5232 -13.5230 -13.5120 -13.5083 -13.5047 -13.5012 -13.4883 -13.4875
   -13.4767 -13.4741 -13.4651 -13.4638  -5.1572  -4.9697  -4.7217  -4.5535
     0.2284   0.8266   1.2059   1.3755   3.1905   3.5375   3.9664   4.2479
     4.5795   5.1345   5.4505   5.8206   6.1281   6.4179   6.6532   7.1091

     occupation numbers 
     1.0000   1.0000   1.0000   1.0000   1.0000   1.0000   1.0000   1.0000
     1.0000   1.0000   1.0000   1.0000   1.0000   1.0000   1.0000   1.0000
     1.0000   1.0000   1.0000   1.0000   1.0000   1.0000   1.0000   1.0000
     1.0000   1.0000   1.0000   1.0000   1.0000   1.0000   1.0000   1.0000
     1.0000   1.0000   1.0000   1.0000   1.0000   1.0000   1.0000   1.0000

          k = 0.1667 0.8518 1.0919 ( 11438 PWs)   bands (ev):

   -13.5547 -13.5538 -13.5479 -13.5474 -13.5339 -13.5325 -13.5298 -13.5294
   -13.5226 -13.5226 -13.5097 -13.5082 -13.5029 -13.5016 -13.4875 -13.4872
   -13.4761 -13.4751 -13.4645 -13.4640  -4.9687  -4.8477  -4.7475  -4.6352
     0.3389   0.5560   1.3366   1.3926   3.2080   3.5522   3.6484   4.0241
     4.4109   4.8025   5.1813   5.5701   5.8016   6.0699   6.7409   6.8740

     occupation numbers 
     1.0000   1.0000   1.0000   1.0000   1.0000   1.0000   1.0000   1.0000
     1.0000   1.0000   1.0000   1.0000   1.0000   1.0000   1.0000   1.0000
     1.0000   1.0000   1.0000   1.0000   1.0000   1.0000   1.0000   1.0000
     1.0000   1.0000   1.0000   1.0000   1.0000   1.0000   1.0000   1.0000
     1.0000   1.0000   1.0000   1.0000   1.0000   1.0000   1.0000   1.0000

          k = 0.1667 1.1925 0.1560 ( 11441 PWs)   bands (ev):

   -13.5500 -13.5486 -13.5470 -13.5457 -13.5313 -13.5298 -13.5284 -13.5269
   -13.5213 -13.5193 -13.5177 -13.5124 -13.5035 -13.4986 -13.4961 -13.4942
   -13.4716 -13.4691 -13.4669 -13.4666  -5.0581  -4.9365  -4.7563  -4.7255
     0.1088   0.4430   0.7035   0.9726   4.0883   4.5300   4.9209   5.2566
     5.4455   5.4876   5.9043   6.1921   6.5104   6.7329   6.7884   6.9601

     occupation numbers 
     1.0000   1.0000   1.0000   1.0000   1.0000   1.0000   1.0000   1.0000
     1.0000   1.0000   1.0000   1.0000   1.0000   1.0000   1.0000   1.0000
     1.0000   1.0000   1.0000   1.0000   1.0000   1.0000   1.0000   1.0000
     1.0000   1.0000   1.0000   1.0000   1.0000   1.0000   1.0000   1.0000
     1.0000   1.0000   1.0000   1.0000   1.0000   1.0000   1.0000   1.0000

          k = 0.1667 1.1925 0.4680 ( 11458 PWs)   bands (ev):

   -13.5527 -13.5514 -13.5485 -13.5475 -13.5317 -13.5299 -13.5272 -13.5263
   -13.5208 -13.5192 -13.5160 -13.5119 -13.5027 -13.4993 -13.4942 -13.4932
   -13.4719 -13.4699 -13.4664 -13.4662  -4.9867  -4.8751  -4.7240  -4.6908
     0.2545   0.5808   0.8258   1.0162   3.8454   4.0349   4.3117   4.5945
     4.8033   5.2420   5.7179   5.9068   6.0291   6.3133   6.8256   7.0783

     occupation numbers 
     1.0000   1.0000   1.0000   1.0000   1.0000   1.0000   1.0000   1.0000
     1.0000   1.0000   1.0000   1.0000   1.0000   1.0000   1.0000   1.0000
     1.0000   1.0000   1.0000   1.0000   1.0000   1.0000   1.0000   1.0000
     1.0000   1.0000   1.0000   1.0000   1.0000   1.0000   1.0000   1.0000
     1.0000   1.0000   1.0000   1.0000   1.0000   1.0000   1.0000   1.0000

          k = 0.1667 1.1925 0.7800 ( 11447 PWs)   bands (ev):

   -13.5562 -13.5552 -13.5508 -13.5501 -13.5318 -13.5303 -13.5261 -13.5256
   -13.5200 -13.5188 -13.5141 -13.5114 -13.5012 -13.4994 -13.4921 -13.4917
   -13.4720 -13.4707 -13.4659 -13.4658  -4.8710  -4.7785  -4.6864  -4.6478
     0.5017   0.7944   1.0155   1.0799   3.2020   3.6537   3.7595   4.0756
     4.3718   4.7062   5.0639   5.5241   5.6291   5.8877   6.6911   6.8287

     occupation numbers 
     1.0000   1.0000   1.0000   1.0000   1.0000   1.0000   1.0000   1.0000
     1.0000   1.0000   1.0000   1.0000   1.0000   1.0000   1.0000   1.0000
     1.0000   1.0000   1.0000   1.0000   1.0000   1.0000   1.0000   1.0000
     1.0000   1.0000   1.0000   1.0000   1.0000   1.0000   1.0000   1.0000
     1.0000   1.0000   1.0000   1.0000   1.0000   1.0000   1.0000   1.0000

          k = 0.1667 1.1925 1.0919 ( 11433 PWs)   bands (ev):

   -13.5584 -13.5580 -13.5523 -13.5521 -13.5315 -13.5309 -13.5255 -13.5253
   -13.5192 -13.5187 -13.5126 -13.5116 -13.4998 -13.4992 -13.4909 -13.4908
   -13.4717 -13.4713 -13.4656 -13.4655  -4.7588  -4.7059  -4.6687  -4.6351
     0.7455   0.8742   1.1631   1.1979   2.9481   3.1529   3.5442   3.6807
     4.1876   4.2156   4.7268   5.0520   5.5960   5.7842   6.5516   6.6018

     occupation numbers 
     1.0000   1.0000   1.0000   1.0000   1.0000   1.0000   1.0000   1.0000
     1.0000   1.0000   1.0000   1.0000   1.0000   1.0000   1.0000   1.0000
     1.0000   1.0000   1.0000   1.0000   1.0000   1.0000   1.0000   1.0000
     1.0000   1.0000   1.0000   1.0000   1.0000   1.0000   1.0000   1.0000
     1.0000   1.0000   1.0000   1.0000   1.0000   1.0000   1.0000   1.0000

          k =-0.5000 0.1704 0.1560 ( 11462 PWs)   bands (ev):

   -13.5513 -13.5513 -13.5402 -13.5402 -13.5383 -13.5383 -13.5306 -13.5306
   -13.5228 -13.5228 -13.5190 -13.5190 -13.5048 -13.5048 -13.4836 -13.4836
   -13.4771 -13.4771 -13.4633 -13.4633  -5.7589  -5.7589  -4.6283  -4.6283
     0.7743   0.7743   2.5075   2.5075   3.7902   3.7902   4.6732   4.6732
     5.1559   5.1559   5.7663   5.7663   6.1175   6.1175   7.2392   7.2392

     occupation numbers 
     1.0000   1.0000   1.0000   1.0000   1.0000   1.0000   1.0000   1.0000
     1.0000   1.0000   1.0000   1.0000   1.0000   1.0000   1.0000   1.0000
     1.0000   1.0000   1.0000   1.0000   1.0000   1.0000   1.0000   1.0000
     1.0000   1.0000   1.0000   1.0000   1.0000   1.0000   1.0000   1.0000
     1.0000   1.0000   1.0000   1.0000   1.0000   1.0000   1.0000   1.0000

          k =-0.5000 0.1704 0.4680 ( 11450 PWs)   bands (ev):

   -13.5504 -13.5504 -13.5402 -13.5402 -13.5390 -13.5390 -13.5317 -13.5317
   -13.5223 -13.5223 -13.5165 -13.5165 -13.5049 -13.5049 -13.4834 -13.4834
   -13.4778 -13.4778 -13.4633 -13.4633  -5.6467  -5.6467  -4.6481  -4.6481
     0.4900   0.4900   2.0424   2.0424   4.0210   4.0210   4.7407   4.7407
     5.4285   5.4285   5.9177   5.9177   6.5638   6.5638   7.1463   7.1463

     occupation numbers 
     1.0000   1.0000   1.0000   1.0000   1.0000   1.0000   1.0000   1.0000
     1.0000   1.0000   1.0000   1.0000   1.0000   1.0000   1.0000   1.0000
     1.0000   1.0000   1.0000   1.0000   1.0000   1.0000   1.0000   1.0000
     1.0000   1.0000   1.0000   1.0000   1.0000   1.0000   1.0000   1.0000
     1.0000   1.0000   1.0000   1.0000   1.0000   1.0000   1.0000   1.0000

          k =-0.5000 0.1704 0.7800 ( 11438 PWs)   bands (ev):

   -13.5488 -13.5488 -13.5415 -13.5415 -13.5390 -13.5390 -13.5332 -13.5332
   -13.5218 -13.5218 -13.5128 -13.5128 -13.5053 -13.5053 -13.4830 -13.4830
   -13.4789 -13.4789 -13.4633 -13.4633  -5.4472  -5.4472  -4.7165  -4.7165
     0.1616   0.1616   1.4982   1.4982   4.3420   4.3420   5.0233   5.0233
     5.5676   5.5676   6.1338   6.1338   6.7774   6.7774   7.3169   7.3169

     occupation numbers 
     1.0000   1.0000   1.0000   1.0000   1.0000   1.0000   1.0000   1.0000
     1.0000   1.0000   1.0000   1.0000   1.0000   1.0000   1.0000   1.0000
     1.0000   1.0000   1.0000   1.0000   1.0000   1.0000   1.0000   1.0000
     1.0000   1.0000   1.0000   1.0000   1.0000   1.0000   1.0000   1.0000
     1.0000   1.0000   1.0000   1.0000   1.0000   1.0000   1.0000   1.0000

          k =-0.5000 0.1704 1.0919 ( 11432 PWs)   bands (ev):

   -13.5474 -13.5474 -13.5428 -13.5428 -13.5390 -13.5390 -13.5342 -13.5342
   -13.5214 -13.5214 -13.5092 -13.5092 -13.5065 -13.5065 -13.4826 -13.4826
   -13.4798 -13.4798 -13.4634 -13.4634  -5.2297  -5.2297  -4.8420  -4.8420
    -0.0225  -0.0225   1.1411   1.1411   4.7514   4.7514   5.3240   5.3240
     5.4067   5.4067   5.9869   5.9869   7.1494   7.1494   7.4312   7.4312

     occupation numbers 
     1.0000   1.0000   1.0000   1.0000   1.0000   1.0000   1.0000   1.0000
     1.0000   1.0000   1.0000   1.0000   1.0000   1.0000   1.0000   1.0000
     1.0000   1.0000   1.0000   1.0000   1.0000   1.0000   1.0000   1.0000
     1.0000   1.0000   1.0000   1.0000   1.0000   1.0000   1.0000   1.0000
     1.0000   1.0000   1.0000   1.0000   1.0000   1.0000   1.0000   1.0000

          k =-0.5000 0.5111 0.1560 ( 11454 PWs)   bands (ev):

   -13.5470 -13.5470 -13.5407 -13.5407 -13.5368 -13.5368 -13.5338 -13.5338
   -13.5240 -13.5240 -13.5164 -13.5164 -13.5043 -13.5043 -13.4842 -13.4842
   -13.4774 -13.4774 -13.4639 -13.4639  -5.6056  -5.6056  -4.5994  -4.5994
     0.6110   0.6110   2.0014   2.0014   3.9168   3.9168   4.5635   4.5635
     5.4592   5.4592   5.6502   5.6502   6.3153   6.3153   7.3306   7.3306

     occupation numbers 
     1.0000   1.0000   1.0000   1.0000   1.0000   1.0000   1.0000   1.0000
     1.0000   1.0000   1.0000   1.0000   1.0000   1.0000   1.0000   1.0000
     1.0000   1.0000   1.0000   1.0000   1.0000   1.0000   1.0000   1.0000
     1.0000   1.0000   1.0000   1.0000   1.0000   1.0000   1.0000   1.0000
     1.0000   1.0000   1.0000   1.0000   1.0000   1.0000   1.0000   1.0000

          k =-0.5000 0.5111 0.4680 ( 11450 PWs)   bands (ev):

   -13.5472 -13.5472 -13.5417 -13.5417 -13.5367 -13.5367 -13.5340 -13.5340
   -13.5237 -13.5237 -13.5141 -13.5141 -13.5044 -13.5044 -13.4841 -13.4841
   -13.4781 -13.4781 -13.4638 -13.4638  -5.4995  -5.4995  -4.6126  -4.6126
     0.4861   0.4861   1.7776   1.7776   3.8556   3.8556   4.4563   4.4563
     5.1344   5.1344   6.0904   6.0904   6.6901   6.6901   7.2511   7.2511

     occupation numbers 
     1.0000   1.0000   1.0000   1.0000   1.0000   1.0000   1.0000   1.0000
     1.0000   1.0000   1.0000   1.0000   1.0000   1.0000   1.0000   1.0000
     1.0000   1.0000   1.0000   1.0000   1.0000   1.0000   1.0000   1.0000
     1.0000   1.0000   1.0000   1.0000   1.0000   1.0000   1.0000   1.0000
     1.0000   1.0000   1.0000   1.0000   1.0000   1.0000   1.0000   1.0000

          k =-0.5000 0.5111 0.7800 ( 11430 PWs)   bands (ev):

   -13.5476 -13.5476 -13.5434 -13.5434 -13.5365 -13.5365 -13.5342 -13.5342
   -13.5234 -13.5234 -13.5109 -13.5109 -13.5045 -13.5045 -13.4838 -13.4838
   -13.4789 -13.4789 -13.4636 -13.4636  -5.3130  -5.3130  -4.6659  -4.6659
     0.2924   0.2924   1.4705   1.4705   3.8462   3.8462   4.6258   4.6258
     4.9802   4.9802   6.1716   6.1716   6.5484   6.5484   7.2066   7.2066

     occupation numbers 
     1.0000   1.0000   1.0000   1.0000   1.0000   1.0000   1.0000   1.0000
     1.0000   1.0000   1.0000   1.0000   1.0000   1.0000   1.0000   1.0000
     1.0000   1.0000   1.0000   1.0000   1.0000   1.0000   1.0000   1.0000
     1.0000   1.0000   1.0000   1.0000   1.0000   1.0000   1.0000   1.0000
     1.0000   1.0000   1.0000   1.0000   1.0000   1.0000   1.0000   1.0000

          k =-0.5000 0.5111 1.0919 ( 11426 PWs)   bands (ev):

   -13.5480 -13.5480 -13.5446 -13.5446 -13.5362 -13.5362 -13.5344 -13.5344
   -13.5233 -13.5233 -13.5082 -13.5082 -13.5049 -13.5049 -13.4835 -13.4835
   -13.4796 -13.4796 -13.4634 -13.4634  -5.1132  -5.1132  -4.7706  -4.7706
     0.1572   0.1572   1.2437   1.2437   4.0850   4.0850   4.4964   4.4964
     5.2153   5.2153   5.7897   5.7897   6.4574   6.4574   7.0385   7.0385

     occupation numbers 
     1.0000   1.0000   1.0000   1.0000   1.0000   1.0000   1.0000   1.0000
     1.0000   1.0000   1.0000   1.0000   1.0000   1.0000   1.0000   1.0000
     1.0000   1.0000   1.0000   1.0000   1.0000   1.0000   1.0000   1.0000
     1.0000   1.0000   1.0000   1.0000   1.0000   1.0000   1.0000   1.0000
     1.0000   1.0000   1.0000   1.0000   1.0000   1.0000   1.0000   1.0000

          k =-0.5000 0.8518 0.1560 ( 11434 PWs)   bands (ev):

   -13.5473 -13.5473 -13.5429 -13.5429 -13.5332 -13.5332 -13.5316 -13.5316
   -13.5239 -13.5239 -13.5140 -13.5140 -13.5035 -13.5035 -13.4892 -13.4892
   -13.4745 -13.4745 -13.4649 -13.4649  -5.3306  -5.3306  -4.6052  -4.6052
     0.3954   0.3954   1.2962   1.2962   4.2010   4.2010   4.7432   4.7432
     5.6228   5.6228   5.7840   5.7840   6.3251   6.3251   7.1938   7.1938

     occupation numbers 
     1.0000   1.0000   1.0000   1.0000   1.0000   1.0000   1.0000   1.0000
     1.0000   1.0000   1.0000   1.0000   1.0000   1.0000   1.0000   1.0000
     1.0000   1.0000   1.0000   1.0000   1.0000   1.0000   1.0000   1.0000
     1.0000   1.0000   1.0000   1.0000   1.0000   1.0000   1.0000   1.0000
     1.0000   1.0000   1.0000   1.0000   1.0000   1.0000   1.0000   1.0000

          k =-0.5000 0.8518 0.4680 ( 11454 PWs)   bands (ev):

   -13.5491 -13.5491 -13.5447 -13.5447 -13.5332 -13.5332 -13.5307 -13.5307
   -13.5234 -13.5234 -13.5127 -13.5127 -13.5030 -13.5030 -13.4890 -13.4890
   -13.4747 -13.4747 -13.4647 -13.4647  -5.2389  -5.2389  -4.6014  -4.6014
     0.4537   0.4537   1.2857   1.2857   3.7405   3.7405   4.5628   4.5628
     5.0410   5.0410   6.0340   6.0340   6.2587   6.2587   7.0918   7.0918

     occupation numbers 
     1.0000   1.0000   1.0000   1.0000   1.0000   1.0000   1.0000   1.0000
     1.0000   1.0000   1.0000   1.0000   1.0000   1.0000   1.0000   1.0000
     1.0000   1.0000   1.0000   1.0000   1.0000   1.0000   1.0000   1.0000
     1.0000   1.0000   1.0000   1.0000   1.0000   1.0000   1.0000   1.0000
     1.0000   1.0000   1.0000   1.0000   1.0000   1.0000   1.0000   1.0000

          k =-0.5000 0.8518 0.7800 ( 11426 PWs)   bands (ev):

   -13.5516 -13.5516 -13.5472 -13.5472 -13.5328 -13.5328 -13.5300 -13.5300
   -13.5228 -13.5228 -13.5110 -13.5110 -13.5021 -13.5021 -13.4886 -13.4886
   -13.4750 -13.4750 -13.4644 -13.4644  -5.0820  -5.0820  -4.6191  -4.6191
     0.4920   0.4920   1.2846   1.2846   3.3978   3.3978   4.2257   4.2257
     4.8262   4.8262   5.5152   5.5152   6.1367   6.1367   6.9548   6.9548

     occupation numbers 
     1.0000   1.0000   1.0000   1.0000   1.0000   1.0000   1.0000   1.0000
     1.0000   1.0000   1.0000   1.0000   1.0000   1.0000   1.0000   1.0000
     1.0000   1.0000   1.0000   1.0000   1.0000   1.0000   1.0000   1.0000
     1.0000   1.0000   1.0000   1.0000   1.0000   1.0000   1.0000   1.0000
     1.0000   1.0000   1.0000   1.0000   1.0000   1.0000   1.0000   1.0000

          k =-0.5000 0.8518 1.0919 ( 11426 PWs)   bands (ev):

   -13.5533 -13.5533 -13.5490 -13.5490 -13.5324 -13.5324 -13.5298 -13.5298
   -13.5224 -13.5224 -13.5100 -13.5100 -13.5011 -13.5011 -13.4883 -13.4883
   -13.4752 -13.4752 -13.4642 -13.4642  -4.9221  -4.9221  -4.6778  -4.6778
     0.4709   0.4709   1.3103   1.3103   3.4112   3.4112   3.7743   3.7743
     4.8292   4.8292   5.1387   5.1387   6.1129   6.1129   6.6275   6.6275

     occupation numbers 
     1.0000   1.0000   1.0000   1.0000   1.0000   1.0000   1.0000   1.0000
     1.0000   1.0000   1.0000   1.0000   1.0000   1.0000   1.0000   1.0000
     1.0000   1.0000   1.0000   1.0000   1.0000   1.0000   1.0000   1.0000
     1.0000   1.0000   1.0000   1.0000   1.0000   1.0000   1.0000   1.0000
     1.0000   1.0000   1.0000   1.0000   1.0000   1.0000   1.0000   1.0000

          k =-0.5000 1.1925 0.1560 ( 11424 PWs)   bands (ev):

   -13.5487 -13.5487 -13.5471 -13.5471 -13.5296 -13.5296 -13.5289 -13.5289
   -13.5198 -13.5198 -13.5152 -13.5152 -13.5006 -13.5006 -13.4955 -13.4955
   -13.4703 -13.4703 -13.4668 -13.4668  -5.0045  -5.0045  -4.7342  -4.7342
     0.3699   0.3699   0.6884   0.6884   4.6632   4.6632   5.0131   5.0131
     5.5117   5.5117   5.7574   5.7574   6.4460   6.4460   6.8156   6.8156

     occupation numbers 
     1.0000   1.0000   1.0000   1.0000   1.0000   1.0000   1.0000   1.0000
     1.0000   1.0000   1.0000   1.0000   1.0000   1.0000   1.0000   1.0000
     1.0000   1.0000   1.0000   1.0000   1.0000   1.0000   1.0000   1.0000
     1.0000   1.0000   1.0000   1.0000   1.0000   1.0000   1.0000   1.0000
     1.0000   1.0000   1.0000   1.0000   1.0000   1.0000   1.0000   1.0000

          k =-0.5000 1.1925 0.4680 ( 11424 PWs)   bands (ev):

   -13.5509 -13.5509 -13.5493 -13.5493 -13.5295 -13.5295 -13.5285 -13.5285
   -13.5192 -13.5192 -13.5147 -13.5147 -13.4996 -13.4996 -13.4947 -13.4947
   -13.4703 -13.4703 -13.4667 -13.4667  -4.9379  -4.9379  -4.7008  -4.7008
     0.5022   0.5022   0.7910   0.7910   4.0228   4.0228   4.5540   4.5540
     5.0978   5.0978   5.5401   5.5401   6.2609   6.2609   6.6978   6.6978

     occupation numbers 
     1.0000   1.0000   1.0000   1.0000   1.0000   1.0000   1.0000   1.0000
     1.0000   1.0000   1.0000   1.0000   1.0000   1.0000   1.0000   1.0000
     1.0000   1.0000   1.0000   1.0000   1.0000   1.0000   1.0000   1.0000
     1.0000   1.0000   1.0000   1.0000   1.0000   1.0000   1.0000   1.0000
     1.0000   1.0000   1.0000   1.0000   1.0000   1.0000   1.0000   1.0000

          k =-0.5000 1.1925 0.7800 ( 11450 PWs)   bands (ev):

   -13.5540 -13.5540 -13.5523 -13.5523 -13.5294 -13.5294 -13.5281 -13.5281
   -13.5182 -13.5182 -13.5139 -13.5139 -13.4981 -13.4981 -13.4936 -13.4936
   -13.4703 -13.4703 -13.4665 -13.4665  -4.8318  -4.8318  -4.6602  -4.6602
     0.6992   0.6992   0.9668   0.9668   3.4594   3.4594   3.9744   3.9744
     4.5350   4.5350   4.9941   4.9941   6.1740   6.1740   6.5462   6.5462

     occupation numbers 
     1.0000   1.0000   1.0000   1.0000   1.0000   1.0000   1.0000   1.0000
     1.0000   1.0000   1.0000   1.0000   1.0000   1.0000   1.0000   1.0000
     1.0000   1.0000   1.0000   1.0000   1.0000   1.0000   1.0000   1.0000
     1.0000   1.0000   1.0000   1.0000   1.0000   1.0000   1.0000   1.0000
     1.0000   1.0000   1.0000   1.0000   1.0000   1.0000   1.0000   1.0000

          k =-0.5000 1.1925 1.0919 ( 11468 PWs)   bands (ev):

   -13.5560 -13.5560 -13.5544 -13.5544 -13.5295 -13.5295 -13.5280 -13.5280
   -13.5176 -13.5176 -13.5133 -13.5133 -13.4970 -13.4970 -13.4928 -13.4928
   -13.4703 -13.4703 -13.4664 -13.4664  -4.7374  -4.7374  -4.6470  -4.6470
     0.8260   0.8260   1.1435   1.1435   3.2672   3.2672   3.5135   3.5135
     4.1789   4.1789   4.4698   4.4698   6.2716   6.2716   6.4592   6.4592

     occupation numbers 
     1.0000   1.0000   1.0000   1.0000   1.0000   1.0000   1.0000   1.0000
     1.0000   1.0000   1.0000   1.0000   1.0000   1.0000   1.0000   1.0000
     1.0000   1.0000   1.0000   1.0000   1.0000   1.0000   1.0000   1.0000
     1.0000   1.0000   1.0000   1.0000   1.0000   1.0000   1.0000   1.0000
     1.0000   1.0000   1.0000   1.0000   1.0000   1.0000   1.0000   1.0000

     highest occupied level (ev):     7.6083

!    total energy              =    -827.74874032 Ry
     estimated scf accuracy    <          4.9E-09 Ry

     The total energy is the sum of the following terms:
     one-electron contribution =    -263.16377960 Ry
     hartree contribution      =     181.34649253 Ry
     xc contribution           =    -309.05068129 Ry
     ewald contribution        =    -436.75971029 Ry
     DFT-D3 Dispersion         =      -0.12106166 Ry

     convergence has been achieved in  10 iterations

     Forces acting on atoms (cartesian axes, Ry/au):

     atom    1 type  2   force =     0.00508160    0.00000000    0.00014165
     atom    2 type  1   force =    -0.00519509    0.00000000   -0.00025694
     atom    3 type  2   force =    -0.00508160   -0.00000000    0.00014165
     atom    4 type  1   force =     0.00519509   -0.00000000   -0.00025694
     atom    5 type  2   force =     0.00508160    0.00000000   -0.00014165
     atom    6 type  1   force =    -0.00519509   -0.00000000    0.00025694
     atom    7 type  2   force =    -0.00508160    0.00000000   -0.00014165
     atom    8 type  1   force =     0.00519509    0.00000000    0.00025694
     The non-local contrib.  to forces
     atom    1 type  2   force =    -0.10540392    0.00000000    0.11281985
     atom    2 type  1   force =     0.34960455    0.00000000    0.30388754
     atom    3 type  2   force =     0.10540392    0.00000000    0.11281985
     atom    4 type  1   force =    -0.34960455    0.00000000    0.30388754
     atom    5 type  2   force =    -0.10540392    0.00000000   -0.11281985
     atom    6 type  1   force =     0.34960455    0.00000000   -0.30388754
     atom    7 type  2   force =     0.10540392    0.00000000   -0.11281985
     atom    8 type  1   force =    -0.34960455    0.00000000   -0.30388754
     The ionic contribution  to forces
     atom    1 type  2   force =     1.25948668   -0.00000000   -1.25383391
     atom    2 type  1   force =    -0.63333277    0.00000000   -0.67613826
     atom    3 type  2   force =    -1.25948668   -0.00000000   -1.25383391
     atom    4 type  1   force =     0.63333277   -0.00000000   -0.67613826
     atom    5 type  2   force =     1.25948668    0.00000000    1.25383391
     atom    6 type  1   force =    -0.63333277   -0.00000000    0.67613826
     atom    7 type  2   force =    -1.25948668   -0.00000000    1.25383391
     atom    8 type  1   force =     0.63333277   -0.00000000    0.67613826
     The local contribution  to forces
     atom    1 type  2   force =    -1.15985377    0.00000000    1.15210847
     atom    2 type  1   force =     0.28465875   -0.00000000    0.37611421
     atom    3 type  2   force =     1.15985377    0.00000000    1.15210847
     atom    4 type  1   force =    -0.28465875   -0.00000000    0.37611421
     atom    5 type  2   force =    -1.15985377    0.00000000   -1.15210847
     atom    6 type  1   force =     0.28465875    0.00000000   -0.37611421
     atom    7 type  2   force =     1.15985377   -0.00000000   -1.15210847
     atom    8 type  1   force =    -0.28465875   -0.00000000   -0.37611421
     The core correction contribution to forces
     atom    1 type  2   force =     0.01164136    0.00000000   -0.01251887
     atom    2 type  1   force =    -0.00561795   -0.00000000   -0.00518509
     atom    3 type  2   force =    -0.01164136    0.00000000   -0.01251887
     atom    4 type  1   force =     0.00561795   -0.00000000   -0.00518509
     atom    5 type  2   force =     0.01164136   -0.00000000    0.01251887
     atom    6 type  1   force =    -0.00561795   -0.00000000    0.00518509
     atom    7 type  2   force =    -0.01164136    0.00000000    0.01251887
     atom    8 type  1   force =     0.00561795    0.00000000    0.00518509
     The Hubbard contrib.    to forces
     atom    1 type  2   force =     0.00000000    0.00000000    0.00000000
     atom    2 type  1   force =     0.00000000    0.00000000    0.00000000
     atom    3 type  2   force =     0.00000000    0.00000000    0.00000000
     atom    4 type  1   force =     0.00000000    0.00000000    0.00000000
     atom    5 type  2   force =     0.00000000    0.00000000    0.00000000
     atom    6 type  1   force =     0.00000000    0.00000000    0.00000000
     atom    7 type  2   force =     0.00000000    0.00000000    0.00000000
     atom    8 type  1   force =     0.00000000    0.00000000    0.00000000
     The SCF correction term to forces
     atom    1 type  2   force =    -0.00002115   -0.00000000    0.00000691
     atom    2 type  1   force =     0.00017803   -0.00000000    0.00008470
     atom    3 type  2   force =     0.00002115   -0.00000000    0.00000691
     atom    4 type  1   force =    -0.00017803   -0.00000000    0.00008470
     atom    5 type  2   force =    -0.00002115   -0.00000000   -0.00000691
     atom    6 type  1   force =     0.00017803    0.00000000   -0.00008470
     atom    7 type  2   force =     0.00002115    0.00000000   -0.00000691
     atom    8 type  1   force =    -0.00017803   -0.00000000   -0.00008470

     DFT-D3 dispersion contribution to forces:
     atom    1 type  2   force =    -0.00076760    0.00000000    0.00155919
     atom    2 type  1   force =    -0.00068570   -0.00000000    0.00097995
     atom    3 type  2   force =     0.00076760   -0.00000000    0.00155919
     atom    4 type  1   force =     0.00068570    0.00000000    0.00097995
     atom    5 type  2   force =    -0.00076760    0.00000000   -0.00155919
     atom    6 type  1   force =    -0.00068570   -0.00000000   -0.00097995
     atom    7 type  2   force =     0.00076760   -0.00000000   -0.00155919
     atom    8 type  1   force =     0.00068570    0.00000000   -0.00097995

     Total force =     0.014546     Total SCF correction =     0.000397

     DFT-D3 dispersion Force =     0.004219

     Writing all to output data dir ./tmp/SnSe_pnma.save/ :
     XML data file, charge density, pseudopotentials, collected wavefunctions
 
     init_run     :      3.08s CPU      3.42s WALL (       1 calls)
     electrons    :     77.52s CPU     81.53s WALL (       1 calls)
     forces       :      1.25s CPU      1.48s WALL (       1 calls)
     force_dftd3  :      0.05s CPU      0.06s WALL (       1 calls)

     Called by init_run:
     wfcinit      :      1.96s CPU      2.00s WALL (       1 calls)
     wfcinit:atom :      0.03s CPU      0.03s WALL (      11 calls)
     wfcinit:wfcr :      1.74s CPU      1.75s WALL (      11 calls)
     potinit      :      0.30s CPU      0.36s WALL (       1 calls)
     hinit0       :      0.21s CPU      0.23s WALL (       1 calls)

     Called by electrons:
     c_bands      :     58.60s CPU     58.98s WALL (      10 calls)
     sum_band     :     13.14s CPU     14.84s WALL (      10 calls)
     v_of_rho     :      2.20s CPU      2.33s WALL (      11 calls)
     v_h          :      0.17s CPU      0.18s WALL (      11 calls)
     v_xc         :      2.21s CPU      2.34s WALL (      12 calls)
     newd         :      3.72s CPU      5.59s WALL (      11 calls)
     mix_rho      :      0.23s CPU      0.25s WALL (      10 calls)
     energy_dftd3 :      0.04s CPU      0.04s WALL (       1 calls)

     Called by c_bands:
     init_us_2    :      1.47s CPU      1.48s WALL (     242 calls)
     cegterg      :     52.97s CPU     53.17s WALL (     110 calls)

     Called by sum_band:
     sum_band:wei :      0.00s CPU      0.00s WALL (      10 calls)
     sum_band:loo :      9.12s CPU      9.14s WALL (      10 calls)
     sum_band:buf :      0.09s CPU      0.09s WALL (     110 calls)
     sum_band:ini :      0.63s CPU      0.63s WALL (     110 calls)
     sum_band:cal :      0.82s CPU      0.82s WALL (     110 calls)
     sum_band:bec :      0.01s CPU      0.01s WALL (     110 calls)
     addusdens    :      3.55s CPU      5.16s WALL (      10 calls)
                                        0.00s GPU  (      10 calls)
     addusd:skk   :      0.02s CPU      0.03s WALL (      20 calls)
                                        0.00s GPU  (      20 calls)

     Called by *egterg:
     cdiaghg      :      0.87s CPU      0.87s WALL (     529 calls)
     cegterg:over :      2.34s CPU      2.35s WALL (     419 calls)
     cegterg:upda :      1.42s CPU      1.43s WALL (     419 calls)
     cegterg:last :      3.53s CPU      3.53s WALL (     312 calls)
     h_psi        :     41.81s CPU     41.99s WALL (     540 calls)
     s_psi        :      3.39s CPU      3.40s WALL (     540 calls)
     g_psi        :      0.15s CPU      0.15s WALL (     419 calls)

     Called by h_psi:
     h_psi:calbec :      3.08s CPU      3.08s WALL (     540 calls)
     vloc_psi     :     35.07s CPU     35.23s WALL (     540 calls)
     add_vuspsi   :      3.38s CPU      3.38s WALL (     540 calls)

     General routines
     calbec       :      4.23s CPU      4.24s WALL (     694 calls)
     fft          :      1.21s CPU      1.23s WALL (     152 calls)
     ffts         :      0.03s CPU      0.04s WALL (      21 calls)
     fftw         :     22.17s CPU     22.25s WALL (   34796 calls)
     interpolate  :      0.12s CPU      0.12s WALL (      11 calls)
 
     Parallel routines
 
     PWSCF        :   1m22.30s CPU   1m27.94s WALL

 
   This run was terminated on:  19:55:28  20May2026            

=------------------------------------------------------------------------------=
   JOB DONE.
=------------------------------------------------------------------------------=
