
     Program PWSCF v.7.3.1 starts on 20May2026 at 14:57: 9 

     This program is part of the open-source Quantum ESPRESSO suite
     for quantum simulation of materials; please cite
         "P. Giannozzi et al., J. Phys.:Condens. Matter 21 395502 (2009);
         "P. Giannozzi et al., J. Phys.:Condens. Matter 29 465901 (2017);
         "P. Giannozzi et al., J. Chem. Phys. 152 154105 (2020);
          URL http://www.quantum-espresso.org", 
     in publications or presentations arising from this work. More details at
     http://www.quantum-espresso.org/quote

     Parallel version (MPI & OpenMP), running on       6 processor cores
     Number of MPI processes:                 6
     Threads/MPI process:                     1

     MPI processes distributed on     1 nodes
     10809 MiB available memory on the printing compute node when the environment starts
 
     Waiting for input...
     Reading input from standard input

     Current dimensions of program PWSCF are:
     Max number of different atomic species (ntypx) = 10
     Max number of k-points (npk) =  40000
     Max angular momentum in pseudopotentials (lmaxx) =  4
 
     K-points division:     npool     =       3
     R & G space division:  proc/nbgrp/npool/nimage =       2
     Subspace diagonalization in iterative solution of the eigenvalue problem:
     a serial algorithm will be used

 
     Parallelization info
     --------------------
     sticks:   dense  smooth     PW     G-vecs:    dense   smooth      PW
     Min        1985     791    237                62927    15882    2563
     Max        1986     792    238                62930    15883    2564
     Sum        3971    1583    475               125857    31765    5127
 
     Using Slab Decomposition
 


     bravais-lattice index     =            8
     lattice parameter (alat)  =      21.1082  a.u.
     unit-cell volume          =    1432.4110 (a.u.)^3
     number of atoms/cell      =            8
     number of atomic types    =            2
     number of electrons       =        80.00
     number of Kohn-Sham states=           40
     kinetic-energy cutoff     =      30.0000  Ry
     charge density cutoff     =     300.0000  Ry
     scf convergence threshold =      1.0E-08
     mixing beta               =       0.7000
     number of iterations used =            8  plain     mixing
     Exchange-correlation= SLA  PW   PBE  PBE
                           (   1   4   3   4   0   0   0)

     celldm(1)=  21.108241  celldm(2)=   0.373447  celldm(3)=   0.407833
     celldm(4)=   0.000000  celldm(5)=   0.000000  celldm(6)=   0.000000

     crystal axes: (cart. coord. in units of alat)
               a(1) = (   1.000000   0.000000   0.000000 )  
               a(2) = (   0.000000   0.373447   0.000000 )  
               a(3) = (   0.000000   0.000000   0.407833 )  

     reciprocal axes: (cart. coord. in units 2 pi/alat)
               b(1) = (  1.000000  0.000000  0.000000 )  
               b(2) = (  0.000000  2.677758  0.000000 )  
               b(3) = (  0.000000  0.000000  2.451981 )  


     PseudoPot. # 1 for Sn read from file:
     ../pseudo/Sn_pbe_v1.uspp.F.UPF
     MD5 check sum: 4cf58ce39ec5d5d420df3dd08604eb00
     Pseudo is Ultrasoft + core correction, Zval = 14.0
     Generated by new atomic code, or converted to UPF format
     Using radial grid of  891 points,  6 beta functions with: 
                l(1) =   0
                l(2) =   0
                l(3) =   1
                l(4) =   1
                l(5) =   2
                l(6) =   2
     Q(r) pseudized with  6 coefficients,  rinner =    1.200   1.200   1.200
                                                       1.200   1.200

     PseudoPot. # 2 for Se read from file:
     ../pseudo/Se_pbe_v1.uspp.F.UPF
     MD5 check sum: 1b3568f3a8ae88f9a2a0ad0698632c85
     Pseudo is Ultrasoft + core correction, Zval =  6.0
     Generated by new atomic code, or converted to UPF format
     Using radial grid of  877 points,  6 beta functions with: 
                l(1) =   0
                l(2) =   0
                l(3) =   1
                l(4) =   1
                l(5) =   2
                l(6) =   2
     Q(r) pseudized with  8 coefficients,  rinner =    1.300   1.300   1.300
                                                       1.300   1.300

     atomic species   valence    mass     pseudopotential
     Sn               14.00   118.71000     Sn( 1.00)
     Se                6.00    78.97100     Se( 1.00)

      8 Sym. Ops., with inversion, found ( 6 have fractional translation)


                                    s                        frac. trans.

      isym =  1     identity                                     

 cryst.   s( 1) = (     1          0          0      )
                  (     0          1          0      )
                  (     0          0          1      )

 cart.    s( 1) = (  1.0000000  0.0000000  0.0000000 )
                  (  0.0000000  1.0000000  0.0000000 )
                  (  0.0000000  0.0000000  1.0000000 )


      isym =  2     180 deg rotation - cart. axis [0,0,1]        

 cryst.   s( 2) = (    -1          0          0      )    f =(  0.5000000 )
                  (     0         -1          0      )       (  0.0000000 )
                  (     0          0          1      )       (  0.5000000 )

 cart.    s( 2) = ( -1.0000000  0.0000000  0.0000000 )    f =(  0.5000000 )
                  (  0.0000000 -1.0000000  0.0000000 )       (  0.0000000 )
                  (  0.0000000  0.0000000  1.0000000 )       (  0.2039167 )


      isym =  3     180 deg rotation - cart. axis [0,1,0]        

 cryst.   s( 3) = (    -1          0          0      )    f =( -0.0000000 )
                  (     0          1          0      )       ( -0.5000000 )
                  (     0          0         -1      )       (  0.0000000 )

 cart.    s( 3) = ( -1.0000000  0.0000000  0.0000000 )    f =( -0.0000000 )
                  (  0.0000000  1.0000000  0.0000000 )       ( -0.1867234 )
                  (  0.0000000  0.0000000 -1.0000000 )       (  0.0000000 )


      isym =  4     180 deg rotation - cart. axis [1,0,0]        

 cryst.   s( 4) = (     1          0          0      )    f =(  0.5000000 )
                  (     0         -1          0      )       ( -0.5000000 )
                  (     0          0         -1      )       (  0.5000000 )

 cart.    s( 4) = (  1.0000000  0.0000000  0.0000000 )    f =(  0.5000000 )
                  (  0.0000000 -1.0000000  0.0000000 )       ( -0.1867234 )
                  (  0.0000000  0.0000000 -1.0000000 )       (  0.2039167 )


      isym =  5     inversion                                    

 cryst.   s( 5) = (    -1          0          0      )
                  (     0         -1          0      )
                  (     0          0         -1      )

 cart.    s( 5) = ( -1.0000000  0.0000000  0.0000000 )
                  (  0.0000000 -1.0000000  0.0000000 )
                  (  0.0000000  0.0000000 -1.0000000 )


      isym =  6     inv. 180 deg rotation - cart. axis [0,0,1]   

 cryst.   s( 6) = (     1          0          0      )    f =(  0.5000000 )
                  (     0          1          0      )       (  0.0000000 )
                  (     0          0         -1      )       (  0.5000000 )

 cart.    s( 6) = (  1.0000000  0.0000000  0.0000000 )    f =(  0.5000000 )
                  (  0.0000000  1.0000000  0.0000000 )       (  0.0000000 )
                  (  0.0000000  0.0000000 -1.0000000 )       (  0.2039167 )


      isym =  7     inv. 180 deg rotation - cart. axis [0,1,0]   

 cryst.   s( 7) = (     1          0          0      )    f =(  0.0000000 )
                  (     0         -1          0      )       ( -0.5000000 )
                  (     0          0          1      )       (  0.0000000 )

 cart.    s( 7) = (  1.0000000  0.0000000  0.0000000 )    f =(  0.0000000 )
                  (  0.0000000 -1.0000000  0.0000000 )       ( -0.1867234 )
                  (  0.0000000  0.0000000  1.0000000 )       (  0.0000000 )


      isym =  8     inv. 180 deg rotation - cart. axis [1,0,0]   

 cryst.   s( 8) = (    -1          0          0      )    f =(  0.5000000 )
                  (     0          1          0      )       ( -0.5000000 )
                  (     0          0          1      )       (  0.5000000 )

 cart.    s( 8) = ( -1.0000000  0.0000000  0.0000000 )    f =(  0.5000000 )
                  (  0.0000000  1.0000000  0.0000000 )       ( -0.1867234 )
                  (  0.0000000  0.0000000  1.0000000 )       (  0.2039167 )


     point group D_2h (mmm) 
     there are  8 classes
     the character table:

       E     C2    C2'   C2''  i     s_v   s_v'  s_v''
A_g    1.00  1.00  1.00  1.00  1.00  1.00  1.00  1.00
B_1g   1.00  1.00 -1.00 -1.00  1.00  1.00 -1.00 -1.00
B_2g   1.00 -1.00  1.00 -1.00  1.00 -1.00  1.00 -1.00
B_3g   1.00 -1.00 -1.00  1.00  1.00 -1.00 -1.00  1.00
A_u    1.00  1.00  1.00  1.00 -1.00 -1.00 -1.00 -1.00
B_1u   1.00  1.00 -1.00 -1.00 -1.00 -1.00  1.00  1.00
B_2u   1.00 -1.00  1.00 -1.00 -1.00  1.00 -1.00  1.00
B_3u   1.00 -1.00 -1.00  1.00 -1.00  1.00  1.00 -1.00

     the symmetry operations in each class and the name of the first element:

     E        1
          identity                                               
     C2       2
          180 deg rotation - cart. axis [0,0,1]                  
     C2'      4
          180 deg rotation - cart. axis [1,0,0]                  
     C2''     3
          180 deg rotation - cart. axis [0,1,0]                  
     i        5
          inversion                                              
     s_v      6
          inv. 180 deg rotation - cart. axis [0,0,1]             
     s_v'     8
          inv. 180 deg rotation - cart. axis [1,0,0]             
     s_v''    7
          inv. 180 deg rotation - cart. axis [0,1,0]             

   Cartesian axes

     site n.     atom                  positions (alat units)
         1        Se     tau(   1) = (   0.8549563   0.0933617   0.1970847  )
         2        Sn     tau(   2) = (   0.1165395   0.0933617   0.0457944  )
         3        Se     tau(   3) = (   0.6450437   0.2800850   0.4010015  )
         4        Sn     tau(   4) = (   0.3834605   0.2800850   0.2497111  )
         5        Se     tau(   5) = (   0.3549563   0.0933617   0.0068320  )
         6        Sn     tau(   6) = (   0.6165395   0.0933617   0.1581223  )
         7        Se     tau(   7) = (   0.1450437   0.2800850   0.2107487  )
         8        Sn     tau(   8) = (   0.8834605   0.2800850   0.3620391  )

     --------------------------------------------
     DFT-D3 Dispersion Correction (3-body terms):
     --------------------------------------------
       Reference C6 values for interpolation: 

         atom   Coordination number   C6
         Se         0.000           427.35
         Se         0.990           427.57
         Se         1.981           421.05
         Sn         0.000          1255.14
         Sn         0.951          1084.09
         Sn         1.950          1010.83
         Sn         2.926           818.29
         Sn         3.912           672.20

       Values used:

         atom   Coordination number  R0_AB[au]  C6      C8
         Se         3.554            3.332    421.05  29958.36
         Sn         4.377            3.957    672.27  84377.96
         Se         3.554            3.332    421.05  29958.36
         Sn         4.377            3.957    672.27  84377.96
         Se         3.554            3.332    421.05  29958.36
         Sn         4.377            3.957    672.27  84377.96
         Se         3.554            3.332    421.05  29958.36
         Sn         4.377            3.957    672.27  84377.96

         Molecular C6 ( Ry / a.u.^6 ) =     34498.23


   Crystallographic axes

     site n.     atom                  positions (cryst. coord.)
         1        Se     tau(   1) = (  0.8549563  0.2500000  0.4832481  )
         2        Sn     tau(   2) = (  0.1165395  0.2500000  0.1122870  )
         3        Se     tau(   3) = (  0.6450437  0.7500000  0.9832481  )
         4        Sn     tau(   4) = (  0.3834605  0.7500000  0.6122870  )
         5        Se     tau(   5) = (  0.3549563  0.2500000  0.0167519  )
         6        Sn     tau(   6) = (  0.6165395  0.2500000  0.3877130  )
         7        Se     tau(   7) = (  0.1450437  0.7500000  0.5167519  )
         8        Sn     tau(   8) = (  0.8834605  0.7500000  0.8877130  )

     number of k points=    32
                       cart. coord. in units 2pi/alat
        k(    1) = (   0.1666667   0.1673599   0.1532488), wk =   0.0833333
        k(    2) = (   0.1666667   0.1673599   0.4597465), wk =   0.0833333
        k(    3) = (   0.1666667   0.1673599   0.7662441), wk =   0.0833333
        k(    4) = (   0.1666667   0.1673599   1.0727417), wk =   0.0833333
        k(    5) = (   0.1666667   0.5020796   0.1532488), wk =   0.0833333
        k(    6) = (   0.1666667   0.5020796   0.4597465), wk =   0.0833333
        k(    7) = (   0.1666667   0.5020796   0.7662441), wk =   0.0833333
        k(    8) = (   0.1666667   0.5020796   1.0727417), wk =   0.0833333
        k(    9) = (   0.1666667   0.8367994   0.1532488), wk =   0.0833333
        k(   10) = (   0.1666667   0.8367994   0.4597465), wk =   0.0833333
        k(   11) = (   0.1666667   0.8367994   0.7662441), wk =   0.0833333
        k(   12) = (   0.1666667   0.8367994   1.0727417), wk =   0.0833333
        k(   13) = (   0.1666667   1.1715192   0.1532488), wk =   0.0833333
        k(   14) = (   0.1666667   1.1715192   0.4597465), wk =   0.0833333
        k(   15) = (   0.1666667   1.1715192   0.7662441), wk =   0.0833333
        k(   16) = (   0.1666667   1.1715192   1.0727417), wk =   0.0833333
        k(   17) = (  -0.5000000   0.1673599   0.1532488), wk =   0.0416667
        k(   18) = (  -0.5000000   0.1673599   0.4597465), wk =   0.0416667
        k(   19) = (  -0.5000000   0.1673599   0.7662441), wk =   0.0416667
        k(   20) = (  -0.5000000   0.1673599   1.0727417), wk =   0.0416667
        k(   21) = (  -0.5000000   0.5020796   0.1532488), wk =   0.0416667
        k(   22) = (  -0.5000000   0.5020796   0.4597465), wk =   0.0416667
        k(   23) = (  -0.5000000   0.5020796   0.7662441), wk =   0.0416667
        k(   24) = (  -0.5000000   0.5020796   1.0727417), wk =   0.0416667
        k(   25) = (  -0.5000000   0.8367994   0.1532488), wk =   0.0416667
        k(   26) = (  -0.5000000   0.8367994   0.4597465), wk =   0.0416667
        k(   27) = (  -0.5000000   0.8367994   0.7662441), wk =   0.0416667
        k(   28) = (  -0.5000000   0.8367994   1.0727417), wk =   0.0416667
        k(   29) = (  -0.5000000   1.1715192   0.1532488), wk =   0.0416667
        k(   30) = (  -0.5000000   1.1715192   0.4597465), wk =   0.0416667
        k(   31) = (  -0.5000000   1.1715192   0.7662441), wk =   0.0416667
        k(   32) = (  -0.5000000   1.1715192   1.0727417), wk =   0.0416667

                       cryst. coord.
        k(    1) = (   0.1666667   0.0625000   0.0625000), wk =   0.0833333
        k(    2) = (   0.1666667   0.0625000   0.1875000), wk =   0.0833333
        k(    3) = (   0.1666667   0.0625000   0.3125000), wk =   0.0833333
        k(    4) = (   0.1666667   0.0625000   0.4375000), wk =   0.0833333
        k(    5) = (   0.1666667   0.1875000   0.0625000), wk =   0.0833333
        k(    6) = (   0.1666667   0.1875000   0.1875000), wk =   0.0833333
        k(    7) = (   0.1666667   0.1875000   0.3125000), wk =   0.0833333
        k(    8) = (   0.1666667   0.1875000   0.4375000), wk =   0.0833333
        k(    9) = (   0.1666667   0.3125000   0.0625000), wk =   0.0833333
        k(   10) = (   0.1666667   0.3125000   0.1875000), wk =   0.0833333
        k(   11) = (   0.1666667   0.3125000   0.3125000), wk =   0.0833333
        k(   12) = (   0.1666667   0.3125000   0.4375000), wk =   0.0833333
        k(   13) = (   0.1666667   0.4375000   0.0625000), wk =   0.0833333
        k(   14) = (   0.1666667   0.4375000   0.1875000), wk =   0.0833333
        k(   15) = (   0.1666667   0.4375000   0.3125000), wk =   0.0833333
        k(   16) = (   0.1666667   0.4375000   0.4375000), wk =   0.0833333
        k(   17) = (  -0.5000000   0.0625000   0.0625000), wk =   0.0416667
        k(   18) = (  -0.5000000   0.0625000   0.1875000), wk =   0.0416667
        k(   19) = (  -0.5000000   0.0625000   0.3125000), wk =   0.0416667
        k(   20) = (  -0.5000000   0.0625000   0.4375000), wk =   0.0416667
        k(   21) = (  -0.5000000   0.1875000   0.0625000), wk =   0.0416667
        k(   22) = (  -0.5000000   0.1875000   0.1875000), wk =   0.0416667
        k(   23) = (  -0.5000000   0.1875000   0.3125000), wk =   0.0416667
        k(   24) = (  -0.5000000   0.1875000   0.4375000), wk =   0.0416667
        k(   25) = (  -0.5000000   0.3125000   0.0625000), wk =   0.0416667
        k(   26) = (  -0.5000000   0.3125000   0.1875000), wk =   0.0416667
        k(   27) = (  -0.5000000   0.3125000   0.3125000), wk =   0.0416667
        k(   28) = (  -0.5000000   0.3125000   0.4375000), wk =   0.0416667
        k(   29) = (  -0.5000000   0.4375000   0.0625000), wk =   0.0416667
        k(   30) = (  -0.5000000   0.4375000   0.1875000), wk =   0.0416667
        k(   31) = (  -0.5000000   0.4375000   0.3125000), wk =   0.0416667
        k(   32) = (  -0.5000000   0.4375000   0.4375000), wk =   0.0416667

     Dense  grid:   125857 G-vectors     FFT dimensions: ( 120,  48,  48)

     Smooth grid:    31765 G-vectors     FFT dimensions: (  80,  30,  32)

     Dynamical RAM for                 wfc:       1.21 MB

     Dynamical RAM for     wfc (w. buffer):      14.55 MB

     Dynamical RAM for           str. fact:       1.92 MB

     Dynamical RAM for           local pot:       0.00 MB

     Dynamical RAM for          nlocal pot:       4.37 MB

     Dynamical RAM for                qrad:       2.78 MB

     Dynamical RAM for          rho,v,vnew:       6.04 MB

     Dynamical RAM for               rhoin:       2.01 MB

     Dynamical RAM for            rho*nmix:      15.36 MB

     Dynamical RAM for           G-vectors:       3.72 MB

     Dynamical RAM for          h,s,v(r/c):       0.29 MB

     Dynamical RAM for          <psi|beta>:       0.09 MB

     Dynamical RAM for                 psi:       2.43 MB

     Dynamical RAM for                hpsi:       2.43 MB

     Dynamical RAM for                spsi:       2.43 MB

     Dynamical RAM for      wfcinit/wfcrot:       3.22 MB

     Dynamical RAM for           addusdens:      61.45 MB

     Dynamical RAM for          addusforce:      63.23 MB

     Estimated static dynamical RAM per process >      43.56 MB

     Estimated max dynamical RAM per process >     122.15 MB

     Estimated total dynamical RAM >     671.44 MB

     Initial potential from superposition of free atoms

     starting charge      75.9995, renormalised to      80.0000
     Starting wfcs are   52 randomized atomic wfcs

     total cpu time spent up to now is        1.5 secs

     Self-consistent Calculation

     iteration #  1     ecut=    30.00 Ry     beta= 0.70
     Davidson diagonalization with overlap

---- Real-time Memory Report at c_bands before calling an iterative solver
           206 MiB given to the printing process from OS
             0 MiB allocation reported by mallinfo(arena+hblkhd)
         10368 MiB available memory on the node where the printing process lives
------------------
     ethr =  1.00E-02,  avg # of iterations =  2.0

     total cpu time spent up to now is        3.7 secs

     total energy              =    -826.61741303 Ry
     estimated scf accuracy    <       2.67551946 Ry

     iteration #  2     ecut=    30.00 Ry     beta= 0.70
     Davidson diagonalization with overlap

---- Real-time Memory Report at c_bands before calling an iterative solver
           254 MiB given to the printing process from OS
             0 MiB allocation reported by mallinfo(arena+hblkhd)
          9893 MiB available memory on the node where the printing process lives
------------------
     ethr =  3.34E-03,  avg # of iterations =  3.0

     total cpu time spent up to now is        5.8 secs

     total energy              =    -827.53405293 Ry
     estimated scf accuracy    <       0.94999286 Ry

     iteration #  3     ecut=    30.00 Ry     beta= 0.70
     Davidson diagonalization with overlap

---- Real-time Memory Report at c_bands before calling an iterative solver
           276 MiB given to the printing process from OS
             0 MiB allocation reported by mallinfo(arena+hblkhd)
          9798 MiB available memory on the node where the printing process lives
------------------
     ethr =  1.19E-03,  avg # of iterations =  2.5

     total cpu time spent up to now is        7.7 secs

     total energy              =    -827.72589838 Ry
     estimated scf accuracy    <       0.00880908 Ry

     iteration #  4     ecut=    30.00 Ry     beta= 0.70
     Davidson diagonalization with overlap

---- Real-time Memory Report at c_bands before calling an iterative solver
           278 MiB given to the printing process from OS
             0 MiB allocation reported by mallinfo(arena+hblkhd)
          9796 MiB available memory on the node where the printing process lives
------------------
     ethr =  1.10E-05,  avg # of iterations =  5.0

     total cpu time spent up to now is       10.1 secs

     total energy              =    -827.73156690 Ry
     estimated scf accuracy    <       0.00449988 Ry

     iteration #  5     ecut=    30.00 Ry     beta= 0.70
     Davidson diagonalization with overlap

---- Real-time Memory Report at c_bands before calling an iterative solver
           283 MiB given to the printing process from OS
             0 MiB allocation reported by mallinfo(arena+hblkhd)
          9789 MiB available memory on the node where the printing process lives
------------------
     ethr =  5.62E-06,  avg # of iterations =  3.2

     total cpu time spent up to now is       12.1 secs

     total energy              =    -827.73300916 Ry
     estimated scf accuracy    <       0.00098265 Ry

     iteration #  6     ecut=    30.00 Ry     beta= 0.70
     Davidson diagonalization with overlap

---- Real-time Memory Report at c_bands before calling an iterative solver
           285 MiB given to the printing process from OS
             0 MiB allocation reported by mallinfo(arena+hblkhd)
          9788 MiB available memory on the node where the printing process lives
------------------
     ethr =  1.23E-06,  avg # of iterations =  2.1

     total cpu time spent up to now is       13.9 secs

     total energy              =    -827.73312287 Ry
     estimated scf accuracy    <       0.00004770 Ry

     iteration #  7     ecut=    30.00 Ry     beta= 0.70
     Davidson diagonalization with overlap

---- Real-time Memory Report at c_bands before calling an iterative solver
           286 MiB given to the printing process from OS
             0 MiB allocation reported by mallinfo(arena+hblkhd)
          9787 MiB available memory on the node where the printing process lives
------------------
     ethr =  5.96E-08,  avg # of iterations =  4.1

     total cpu time spent up to now is       16.1 secs

     total energy              =    -827.73315800 Ry
     estimated scf accuracy    <       0.00001538 Ry

     iteration #  8     ecut=    30.00 Ry     beta= 0.70
     Davidson diagonalization with overlap

---- Real-time Memory Report at c_bands before calling an iterative solver
           288 MiB given to the printing process from OS
             0 MiB allocation reported by mallinfo(arena+hblkhd)
          9785 MiB available memory on the node where the printing process lives
------------------
     ethr =  1.92E-08,  avg # of iterations =  2.0

     total cpu time spent up to now is       18.0 secs

     total energy              =    -827.73315872 Ry
     estimated scf accuracy    <       0.00000190 Ry

     iteration #  9     ecut=    30.00 Ry     beta= 0.70
     Davidson diagonalization with overlap

---- Real-time Memory Report at c_bands before calling an iterative solver
           289 MiB given to the printing process from OS
             0 MiB allocation reported by mallinfo(arena+hblkhd)
          9784 MiB available memory on the node where the printing process lives
------------------
     ethr =  2.37E-09,  avg # of iterations =  3.8

     total cpu time spent up to now is       20.3 secs

     total energy              =    -827.73315936 Ry
     estimated scf accuracy    <       0.00000005 Ry

     iteration # 10     ecut=    30.00 Ry     beta= 0.70
     Davidson diagonalization with overlap

---- Real-time Memory Report at c_bands before calling an iterative solver
           293 MiB given to the printing process from OS
             0 MiB allocation reported by mallinfo(arena+hblkhd)
          9832 MiB available memory on the node where the printing process lives
------------------
     ethr =  6.46E-11,  avg # of iterations =  5.1

     total cpu time spent up to now is       22.7 secs

     End of self-consistent calculation

          k = 0.1667 0.1674 0.1532 (  3979 PWs)   bands (ev):

   -13.3187 -13.3074 -13.3032 -13.3014 -13.2995 -13.2984 -13.2947 -13.2912
   -13.2858 -13.2822 -13.2794 -13.2790 -13.2677 -13.2604 -13.2419 -13.2410
   -13.2336 -13.2331 -13.2214 -13.2144  -5.7637  -5.4463  -4.6706  -4.2320
     0.5722   1.4929   2.4689   2.7930   3.2536   4.4991   4.6262   4.9073
     5.1817   5.3208   5.8941   6.2461   6.5093   6.9939   7.2499   7.5468

     occupation numbers 
     1.0000   1.0000   1.0000   1.0000   1.0000   1.0000   1.0000   1.0000
     1.0000   1.0000   1.0000   1.0000   1.0000   1.0000   1.0000   1.0000
     1.0000   1.0000   1.0000   1.0000   1.0000   1.0000   1.0000   1.0000
     1.0000   1.0000   1.0000   1.0000   1.0000   1.0000   1.0000   1.0000
     1.0000   1.0000   1.0000   1.0000   1.0000   1.0000   1.0000   1.0000

          k = 0.1667 0.1674 0.4597 (  3958 PWs)   bands (ev):

   -13.3170 -13.3068 -13.3031 -13.3024 -13.2997 -13.2992 -13.2954 -13.2922
   -13.2849 -13.2796 -13.2792 -13.2768 -13.2674 -13.2612 -13.2423 -13.2399
   -13.2343 -13.2342 -13.2208 -13.2149  -5.6435  -5.3358  -4.6765  -4.2804
     0.2653   1.2650   1.8851   2.4940   3.3626   4.5321   4.7479   5.3273
     5.5049   5.8595   5.9031   6.3484   6.7015   7.0061   7.3912   7.6183

     occupation numbers 
     1.0000   1.0000   1.0000   1.0000   1.0000   1.0000   1.0000   1.0000
     1.0000   1.0000   1.0000   1.0000   1.0000   1.0000   1.0000   1.0000
     1.0000   1.0000   1.0000   1.0000   1.0000   1.0000   1.0000   1.0000
     1.0000   1.0000   1.0000   1.0000   1.0000   1.0000   1.0000   1.0000
     1.0000   1.0000   1.0000   1.0000   1.0000   1.0000   1.0000   1.0000

          k = 0.1667 0.1674 0.7662 (  3958 PWs)   bands (ev):

   -13.3141 -13.3065 -13.3042 -13.3030 -13.3012 -13.2993 -13.2960 -13.2938
   -13.2835 -13.2797 -13.2754 -13.2731 -13.2674 -13.2628 -13.2419 -13.2387
   -13.2362 -13.2352 -13.2198 -13.2158  -5.4257  -5.1377  -4.7273  -4.3969
    -0.0250   0.7719   1.4381   2.0246   3.6684   4.7621   4.9586   5.5807
     5.8865   5.9877   6.2729   6.3644   6.8756   7.3325   7.4122   7.8563

     occupation numbers 
     1.0000   1.0000   1.0000   1.0000   1.0000   1.0000   1.0000   1.0000
     1.0000   1.0000   1.0000   1.0000   1.0000   1.0000   1.0000   1.0000
     1.0000   1.0000   1.0000   1.0000   1.0000   1.0000   1.0000   1.0000
     1.0000   1.0000   1.0000   1.0000   1.0000   1.0000   1.0000   1.0000
     1.0000   1.0000   1.0000   1.0000   1.0000   1.0000   1.0000   1.0000

          k = 0.1667 0.1674 1.0727 (  3966 PWs)   bands (ev):

   -13.3108 -13.3080 -13.3046 -13.3041 -13.3009 -13.3000 -13.2961 -13.2953
   -13.2819 -13.2806 -13.2712 -13.2695 -13.2679 -13.2654 -13.2406 -13.2386
   -13.2374 -13.2363 -13.2185 -13.2171  -5.1614  -4.9676  -4.7946  -4.5910
    -0.0577   0.2368   1.3711   1.5965   4.1345   4.6332   5.3455   5.6486
     5.8794   6.0258   6.3414   6.5837   7.1681   7.4573   7.6554   7.7359

     occupation numbers 
     1.0000   1.0000   1.0000   1.0000   1.0000   1.0000   1.0000   1.0000
     1.0000   1.0000   1.0000   1.0000   1.0000   1.0000   1.0000   1.0000
     1.0000   1.0000   1.0000   1.0000   1.0000   1.0000   1.0000   1.0000
     1.0000   1.0000   1.0000   1.0000   1.0000   1.0000   1.0000   1.0000
     1.0000   1.0000   1.0000   1.0000   1.0000   1.0000   1.0000   1.0000

          k = 0.1667 0.5021 0.1532 (  3965 PWs)   bands (ev):

   -13.3127 -13.3059 -13.3039 -13.3009 -13.2983 -13.2980 -13.2963 -13.2943
   -13.2864 -13.2810 -13.2784 -13.2769 -13.2654 -13.2616 -13.2438 -13.2399
   -13.2369 -13.2314 -13.2214 -13.2160  -5.5990  -5.3053  -4.6098  -4.2457
     0.4360   1.2591   2.1064   2.2477   3.3670   4.3523   4.6787   5.0326
     5.3281   5.4918   5.9362   6.3009   6.4758   7.1396   7.4309   7.5718

     occupation numbers 
     1.0000   1.0000   1.0000   1.0000   1.0000   1.0000   1.0000   1.0000
     1.0000   1.0000   1.0000   1.0000   1.0000   1.0000   1.0000   1.0000
     1.0000   1.0000   1.0000   1.0000   1.0000   1.0000   1.0000   1.0000
     1.0000   1.0000   1.0000   1.0000   1.0000   1.0000   1.0000   1.0000
     1.0000   1.0000   1.0000   1.0000   1.0000   1.0000   1.0000   1.0000

          k = 0.1667 0.5021 0.4597 (  3987 PWs)   bands (ev):

   -13.3126 -13.3061 -13.3053 -13.3017 -13.2986 -13.2980 -13.2960 -13.2952
   -13.2856 -13.2813 -13.2761 -13.2745 -13.2657 -13.2617 -13.2434 -13.2398
   -13.2372 -13.2324 -13.2209 -13.2163  -5.4847  -5.2016  -4.6123  -4.2810
     0.2825   1.2105   1.7466   2.1232   3.5024   3.9509   4.2709   5.1833
     5.3708   5.9193   6.0331   6.2828   6.8753   7.0340   7.4162   7.5973

     occupation numbers 
     1.0000   1.0000   1.0000   1.0000   1.0000   1.0000   1.0000   1.0000
     1.0000   1.0000   1.0000   1.0000   1.0000   1.0000   1.0000   1.0000
     1.0000   1.0000   1.0000   1.0000   1.0000   1.0000   1.0000   1.0000
     1.0000   1.0000   1.0000   1.0000   1.0000   1.0000   1.0000   1.0000
     1.0000   1.0000   1.0000   1.0000   1.0000   1.0000   1.0000   1.0000

          k = 0.1667 0.5021 0.7662 (  3967 PWs)   bands (ev):

   -13.3125 -13.3081 -13.3056 -13.3029 -13.2996 -13.2973 -13.2970 -13.2949
   -13.2845 -13.2818 -13.2723 -13.2709 -13.2660 -13.2624 -13.2426 -13.2399
   -13.2373 -13.2339 -13.2200 -13.2169  -5.2799  -5.0179  -4.6528  -4.3717
     0.1213   0.8828   1.4718   1.9004   3.7569   3.9056   4.2220   5.0629
     5.1976   5.8952   6.0035   6.5281   6.7657   7.0586   7.2770   7.6114

     occupation numbers 
     1.0000   1.0000   1.0000   1.0000   1.0000   1.0000   1.0000   1.0000
     1.0000   1.0000   1.0000   1.0000   1.0000   1.0000   1.0000   1.0000
     1.0000   1.0000   1.0000   1.0000   1.0000   1.0000   1.0000   1.0000
     1.0000   1.0000   1.0000   1.0000   1.0000   1.0000   1.0000   1.0000
     1.0000   1.0000   1.0000   1.0000   1.0000   1.0000   1.0000   1.0000

          k = 0.1667 0.5021 1.0727 (  3963 PWs)   bands (ev):

   -13.3119 -13.3105 -13.3051 -13.3042 -13.2996 -13.2986 -13.2959 -13.2950
   -13.2834 -13.2825 -13.2689 -13.2673 -13.2668 -13.2642 -13.2415 -13.2405
   -13.2367 -13.2355 -13.2188 -13.2177  -5.0361  -4.8621  -4.7093  -4.5325
     0.1371   0.4156   1.4717   1.6401   4.0718   4.1430   4.4385   4.7374
     5.0752   5.3834   6.0633   6.3447   6.7652   7.0335   7.3217   7.5257

     occupation numbers 
     1.0000   1.0000   1.0000   1.0000   1.0000   1.0000   1.0000   1.0000
     1.0000   1.0000   1.0000   1.0000   1.0000   1.0000   1.0000   1.0000
     1.0000   1.0000   1.0000   1.0000   1.0000   1.0000   1.0000   1.0000
     1.0000   1.0000   1.0000   1.0000   1.0000   1.0000   1.0000   1.0000
     1.0000   1.0000   1.0000   1.0000   1.0000   1.0000   1.0000   1.0000

          k = 0.1667 0.8368 0.1532 (  3987 PWs)   bands (ev):

   -13.3104 -13.3081 -13.3068 -13.3058 -13.2955 -13.2938 -13.2922 -13.2905
   -13.2851 -13.2827 -13.2756 -13.2727 -13.2649 -13.2619 -13.2486 -13.2467
   -13.2332 -13.2284 -13.2214 -13.2187  -5.2966  -5.0589  -4.5506  -4.3344
     0.2587   0.9734   1.2970   1.7253   3.7093   4.4658   4.8498   5.2430
     5.5527   5.6662   6.0557   6.2480   6.5779   7.1062   7.2282   7.6323

     occupation numbers 
     1.0000   1.0000   1.0000   1.0000   1.0000   1.0000   1.0000   1.0000
     1.0000   1.0000   1.0000   1.0000   1.0000   1.0000   1.0000   1.0000
     1.0000   1.0000   1.0000   1.0000   1.0000   1.0000   1.0000   1.0000
     1.0000   1.0000   1.0000   1.0000   1.0000   1.0000   1.0000   1.0000
     1.0000   1.0000   1.0000   1.0000   1.0000   1.0000   1.0000   1.0000

          k = 0.1667 0.8368 0.4597 (  3985 PWs)   bands (ev):

   -13.3133 -13.3101 -13.3082 -13.3064 -13.2960 -13.2927 -13.2918 -13.2904
   -13.2842 -13.2827 -13.2738 -13.2710 -13.2653 -13.2614 -13.2480 -13.2464
   -13.2332 -13.2291 -13.2210 -13.2186  -5.1967  -4.9707  -4.5423  -4.3408
     0.2997   1.0667   1.3343   1.6197   3.7031   3.8203   4.2133   4.8752
     5.3096   5.8352   5.8898   6.3861   6.4590   6.9336   7.1005   7.3934

     occupation numbers 
     1.0000   1.0000   1.0000   1.0000   1.0000   1.0000   1.0000   1.0000
     1.0000   1.0000   1.0000   1.0000   1.0000   1.0000   1.0000   1.0000
     1.0000   1.0000   1.0000   1.0000   1.0000   1.0000   1.0000   1.0000
     1.0000   1.0000   1.0000   1.0000   1.0000   1.0000   1.0000   1.0000
     1.0000   1.0000   1.0000   1.0000   1.0000   1.0000   1.0000   1.0000

          k = 0.1667 0.8368 0.7662 (  3984 PWs)   bands (ev):

   -13.3163 -13.3137 -13.3097 -13.3083 -13.2956 -13.2920 -13.2914 -13.2901
   -13.2830 -13.2825 -13.2711 -13.2685 -13.2651 -13.2615 -13.2471 -13.2461
   -13.2330 -13.2303 -13.2203 -13.2186  -5.0226  -4.8194  -4.5563  -4.3766
     0.3664   1.0122   1.4031   1.5763   3.3231   3.6826   4.1089   4.4204
     4.7922   5.2999   5.6258   6.0154   6.3332   6.6647   6.9399   7.3688

     occupation numbers 
     1.0000   1.0000   1.0000   1.0000   1.0000   1.0000   1.0000   1.0000
     1.0000   1.0000   1.0000   1.0000   1.0000   1.0000   1.0000   1.0000
     1.0000   1.0000   1.0000   1.0000   1.0000   1.0000   1.0000   1.0000
     1.0000   1.0000   1.0000   1.0000   1.0000   1.0000   1.0000   1.0000
     1.0000   1.0000   1.0000   1.0000   1.0000   1.0000   1.0000   1.0000

          k = 0.1667 0.8368 1.0727 (  3977 PWs)   bands (ev):

   -13.3177 -13.3167 -13.3105 -13.3100 -13.2944 -13.2930 -13.2906 -13.2901
   -13.2824 -13.2823 -13.2687 -13.2674 -13.2639 -13.2624 -13.2463 -13.2460
   -13.2324 -13.2314 -13.2195 -13.2189  -4.8256  -4.6956  -4.5867  -4.4669
     0.4885   0.7230   1.5354   1.5907   3.3432   3.6893   3.8146   4.1770
     4.5909   4.9565   5.3914   5.7720   6.0295   6.3127   7.0332   7.1559

     occupation numbers 
     1.0000   1.0000   1.0000   1.0000   1.0000   1.0000   1.0000   1.0000
     1.0000   1.0000   1.0000   1.0000   1.0000   1.0000   1.0000   1.0000
     1.0000   1.0000   1.0000   1.0000   1.0000   1.0000   1.0000   1.0000
     1.0000   1.0000   1.0000   1.0000   1.0000   1.0000   1.0000   1.0000
     1.0000   1.0000   1.0000   1.0000   1.0000   1.0000   1.0000   1.0000

          k = 0.1667 1.1715 0.1532 (  3997 PWs)   bands (ev):

   -13.3128 -13.3116 -13.3094 -13.3082 -13.2916 -13.2902 -13.2891 -13.2873
   -13.2805 -13.2796 -13.2768 -13.2721 -13.2640 -13.2585 -13.2555 -13.2536
   -13.2277 -13.2251 -13.2225 -13.2223  -4.9186  -4.7849  -4.5930  -4.5646
     0.2592   0.6117   0.9253   1.2147   4.2184   4.6506   5.0604   5.4211
     5.6177   5.6466   6.0795   6.4005   6.6959   6.9514   6.9979   7.1783

     occupation numbers 
     1.0000   1.0000   1.0000   1.0000   1.0000   1.0000   1.0000   1.0000
     1.0000   1.0000   1.0000   1.0000   1.0000   1.0000   1.0000   1.0000
     1.0000   1.0000   1.0000   1.0000   1.0000   1.0000   1.0000   1.0000
     1.0000   1.0000   1.0000   1.0000   1.0000   1.0000   1.0000   1.0000
     1.0000   1.0000   1.0000   1.0000   1.0000   1.0000   1.0000   1.0000

          k = 0.1667 1.1715 0.4597 (  3992 PWs)   bands (ev):

   -13.3158 -13.3145 -13.3108 -13.3099 -13.2921 -13.2904 -13.2879 -13.2867
   -13.2800 -13.2788 -13.2754 -13.2715 -13.2633 -13.2594 -13.2536 -13.2526
   -13.2280 -13.2260 -13.2219 -13.2217  -4.8453  -4.7225  -4.5618  -4.5299
     0.4054   0.7492   1.0412   1.2459   3.9725   4.1573   4.4483   4.7279
     4.9851   5.4108   5.9273   6.1190   6.2455   6.5259   7.1000   7.3402

     occupation numbers 
     1.0000   1.0000   1.0000   1.0000   1.0000   1.0000   1.0000   1.0000
     1.0000   1.0000   1.0000   1.0000   1.0000   1.0000   1.0000   1.0000
     1.0000   1.0000   1.0000   1.0000   1.0000   1.0000   1.0000   1.0000
     1.0000   1.0000   1.0000   1.0000   1.0000   1.0000   1.0000   1.0000
     1.0000   1.0000   1.0000   1.0000   1.0000   1.0000   1.0000   1.0000

          k = 0.1667 1.1715 0.7662 (  3982 PWs)   bands (ev):

   -13.3196 -13.3186 -13.3130 -13.3124 -13.2923 -13.2908 -13.2866 -13.2860
   -13.2792 -13.2781 -13.2734 -13.2708 -13.2620 -13.2598 -13.2516 -13.2511
   -13.2281 -13.2269 -13.2213 -13.2210  -4.7259  -4.6240  -4.5264  -4.4872
     0.6542   0.9629   1.2175   1.2851   3.3316   3.7885   3.9033   4.1898
     4.5709   4.8785   5.2857   5.7410   5.8592   6.1086   6.9833   7.1113

     occupation numbers 
     1.0000   1.0000   1.0000   1.0000   1.0000   1.0000   1.0000   1.0000
     1.0000   1.0000   1.0000   1.0000   1.0000   1.0000   1.0000   1.0000
     1.0000   1.0000   1.0000   1.0000   1.0000   1.0000   1.0000   1.0000
     1.0000   1.0000   1.0000   1.0000   1.0000   1.0000   1.0000   1.0000
     1.0000   1.0000   1.0000   1.0000   1.0000   1.0000   1.0000   1.0000

          k = 0.1667 1.1715 1.0727 (  3970 PWs)   bands (ev):

   -13.3220 -13.3216 -13.3145 -13.3143 -13.2920 -13.2914 -13.2859 -13.2857
   -13.2783 -13.2779 -13.2718 -13.2708 -13.2606 -13.2600 -13.2504 -13.2502
   -13.2280 -13.2275 -13.2208 -13.2207  -4.6087  -4.5511  -4.5107  -4.4756
     0.9029   1.0415   1.3453   1.3838   3.0810   3.2876   3.6903   3.8074
     4.4006   4.4189   4.9413   5.2722   5.8224   6.0081   6.8244   6.8798

     occupation numbers 
     1.0000   1.0000   1.0000   1.0000   1.0000   1.0000   1.0000   1.0000
     1.0000   1.0000   1.0000   1.0000   1.0000   1.0000   1.0000   1.0000
     1.0000   1.0000   1.0000   1.0000   1.0000   1.0000   1.0000   1.0000
     1.0000   1.0000   1.0000   1.0000   1.0000   1.0000   1.0000   1.0000
     1.0000   1.0000   1.0000   1.0000   1.0000   1.0000   1.0000   1.0000

          k =-0.5000 0.1674 0.1532 (  3980 PWs)   bands (ev):

   -13.3136 -13.3136 -13.3012 -13.3012 -13.3003 -13.3003 -13.2923 -13.2923
   -13.2827 -13.2827 -13.2810 -13.2810 -13.2636 -13.2636 -13.2410 -13.2410
   -13.2337 -13.2337 -13.2177 -13.2177  -5.6339  -5.6339  -4.4223  -4.4223
     0.8974   0.8974   2.7175   2.7175   3.9568   3.9568   4.8228   4.8228
     5.3606   5.3606   5.9784   5.9784   6.3387   6.3387   7.4662   7.4662

     occupation numbers 
     1.0000   1.0000   1.0000   1.0000   1.0000   1.0000   1.0000   1.0000
     1.0000   1.0000   1.0000   1.0000   1.0000   1.0000   1.0000   1.0000
     1.0000   1.0000   1.0000   1.0000   1.0000   1.0000   1.0000   1.0000
     1.0000   1.0000   1.0000   1.0000   1.0000   1.0000   1.0000   1.0000
     1.0000   1.0000   1.0000   1.0000   1.0000   1.0000   1.0000   1.0000

          k =-0.5000 0.1674 0.4597 (  3958 PWs)   bands (ev):

   -13.3125 -13.3125 -13.3016 -13.3016 -13.3005 -13.3005 -13.2936 -13.2936
   -13.2821 -13.2821 -13.2784 -13.2784 -13.2640 -13.2640 -13.2407 -13.2407
   -13.2345 -13.2345 -13.2177 -13.2177  -5.5188  -5.5188  -4.4491  -4.4491
     0.6238   0.6238   2.2448   2.2448   4.2079   4.2079   4.9027   4.9027
     5.5943   5.5943   6.1336   6.1336   6.7720   6.7720   7.3827   7.3827

     occupation numbers 
     1.0000   1.0000   1.0000   1.0000   1.0000   1.0000   1.0000   1.0000
     1.0000   1.0000   1.0000   1.0000   1.0000   1.0000   1.0000   1.0000
     1.0000   1.0000   1.0000   1.0000   1.0000   1.0000   1.0000   1.0000
     1.0000   1.0000   1.0000   1.0000   1.0000   1.0000   1.0000   1.0000
     1.0000   1.0000   1.0000   1.0000   1.0000   1.0000   1.0000   1.0000

          k =-0.5000 0.1674 0.7662 (  3974 PWs)   bands (ev):

   -13.3108 -13.3108 -13.3033 -13.3033 -13.3001 -13.3001 -13.2953 -13.2953
   -13.2813 -13.2813 -13.2744 -13.2744 -13.2649 -13.2649 -13.2401 -13.2401
   -13.2359 -13.2359 -13.2177 -13.2177  -5.3133  -5.3133  -4.5308  -4.5308
     0.3119   0.3119   1.6957   1.6957   4.5335   4.5335   5.1898   5.1898
     5.7308   5.7308   6.3355   6.3355   6.9883   6.9883   7.5301   7.5301

     occupation numbers 
     1.0000   1.0000   1.0000   1.0000   1.0000   1.0000   1.0000   1.0000
     1.0000   1.0000   1.0000   1.0000   1.0000   1.0000   1.0000   1.0000
     1.0000   1.0000   1.0000   1.0000   1.0000   1.0000   1.0000   1.0000
     1.0000   1.0000   1.0000   1.0000   1.0000   1.0000   1.0000   1.0000
     1.0000   1.0000   1.0000   1.0000   1.0000   1.0000   1.0000   1.0000

          k =-0.5000 0.1674 1.0727 (  3950 PWs)   bands (ev):

   -13.3092 -13.3092 -13.3046 -13.3046 -13.3000 -13.3000 -13.2965 -13.2965
   -13.2809 -13.2809 -13.2706 -13.2706 -13.2664 -13.2664 -13.2393 -13.2393
   -13.2372 -13.2372 -13.2177 -13.2177  -5.0877  -5.0877  -4.6707  -4.6707
     0.1419   0.1419   1.3335   1.3335   4.9427   4.9427   5.4907   5.4907
     5.5754   5.5754   6.1929   6.1929   7.3390   7.3390   7.6284   7.6284

     occupation numbers 
     1.0000   1.0000   1.0000   1.0000   1.0000   1.0000   1.0000   1.0000
     1.0000   1.0000   1.0000   1.0000   1.0000   1.0000   1.0000   1.0000
     1.0000   1.0000   1.0000   1.0000   1.0000   1.0000   1.0000   1.0000
     1.0000   1.0000   1.0000   1.0000   1.0000   1.0000   1.0000   1.0000
     1.0000   1.0000   1.0000   1.0000   1.0000   1.0000   1.0000   1.0000

          k =-0.5000 0.5021 0.1532 (  3984 PWs)   bands (ev):

   -13.3093 -13.3093 -13.3029 -13.3029 -13.2979 -13.2979 -13.2953 -13.2953
   -13.2838 -13.2838 -13.2778 -13.2778 -13.2633 -13.2633 -13.2422 -13.2422
   -13.2337 -13.2337 -13.2186 -13.2186  -5.4781  -5.4781  -4.4009  -4.4009
     0.7441   0.7441   2.2135   2.2135   4.0814   4.0814   4.7287   4.7287
     5.6486   5.6486   5.8503   5.8503   6.5088   6.5088   7.5848   7.5848

     occupation numbers 
     1.0000   1.0000   1.0000   1.0000   1.0000   1.0000   1.0000   1.0000
     1.0000   1.0000   1.0000   1.0000   1.0000   1.0000   1.0000   1.0000
     1.0000   1.0000   1.0000   1.0000   1.0000   1.0000   1.0000   1.0000
     1.0000   1.0000   1.0000   1.0000   1.0000   1.0000   1.0000   1.0000
     1.0000   1.0000   1.0000   1.0000   1.0000   1.0000   1.0000   1.0000

          k =-0.5000 0.5021 0.4597 (  3978 PWs)   bands (ev):

   -13.3095 -13.3095 -13.3040 -13.3040 -13.2980 -13.2980 -13.2953 -13.2953
   -13.2835 -13.2835 -13.2753 -13.2753 -13.2637 -13.2637 -13.2420 -13.2420
   -13.2344 -13.2344 -13.2184 -13.2184  -5.3693  -5.3693  -4.4200  -4.4200
     0.6270   0.6270   1.9792   1.9792   4.0098   4.0098   4.6558   4.6558
     5.3347   5.3347   6.2659   6.2659   6.8716   6.8716   7.4920   7.4920

     occupation numbers 
     1.0000   1.0000   1.0000   1.0000   1.0000   1.0000   1.0000   1.0000
     1.0000   1.0000   1.0000   1.0000   1.0000   1.0000   1.0000   1.0000
     1.0000   1.0000   1.0000   1.0000   1.0000   1.0000   1.0000   1.0000
     1.0000   1.0000   1.0000   1.0000   1.0000   1.0000   1.0000   1.0000
     1.0000   1.0000   1.0000   1.0000   1.0000   1.0000   1.0000   1.0000

          k =-0.5000 0.5021 0.7662 (  3966 PWs)   bands (ev):

   -13.3098 -13.3098 -13.3058 -13.3058 -13.2978 -13.2978 -13.2953 -13.2953
   -13.2831 -13.2831 -13.2716 -13.2716 -13.2643 -13.2643 -13.2418 -13.2418
   -13.2353 -13.2353 -13.2182 -13.2182  -5.1770  -5.1770  -4.4843  -4.4843
     0.4458   0.4458   1.6652   1.6652   3.9967   3.9967   4.8202   4.8202
     5.1739   5.1739   6.3695   6.3695   6.7307   6.7307   7.4427   7.4427

     occupation numbers 
     1.0000   1.0000   1.0000   1.0000   1.0000   1.0000   1.0000   1.0000
     1.0000   1.0000   1.0000   1.0000   1.0000   1.0000   1.0000   1.0000
     1.0000   1.0000   1.0000   1.0000   1.0000   1.0000   1.0000   1.0000
     1.0000   1.0000   1.0000   1.0000   1.0000   1.0000   1.0000   1.0000
     1.0000   1.0000   1.0000   1.0000   1.0000   1.0000   1.0000   1.0000

          k =-0.5000 0.5021 1.0727 (  3956 PWs)   bands (ev):

   -13.3101 -13.3101 -13.3073 -13.3073 -13.2973 -13.2973 -13.2954 -13.2954
   -13.2830 -13.2830 -13.2681 -13.2681 -13.2656 -13.2656 -13.2415 -13.2415
   -13.2360 -13.2360 -13.2180 -13.2180  -4.9696  -4.9696  -4.6012  -4.6012
     0.3213   0.3213   1.4348   1.4348   4.2353   4.2353   4.6590   4.6590
     5.3966   5.3966   6.0136   6.0136   6.6692   6.6692   7.2793   7.2793

     occupation numbers 
     1.0000   1.0000   1.0000   1.0000   1.0000   1.0000   1.0000   1.0000
     1.0000   1.0000   1.0000   1.0000   1.0000   1.0000   1.0000   1.0000
     1.0000   1.0000   1.0000   1.0000   1.0000   1.0000   1.0000   1.0000
     1.0000   1.0000   1.0000   1.0000   1.0000   1.0000   1.0000   1.0000
     1.0000   1.0000   1.0000   1.0000   1.0000   1.0000   1.0000   1.0000

          k =-0.5000 0.8368 0.1532 (  3976 PWs)   bands (ev):

   -13.3099 -13.3099 -13.3056 -13.3056 -13.2940 -13.2940 -13.2924 -13.2924
   -13.2836 -13.2836 -13.2743 -13.2743 -13.2632 -13.2632 -13.2478 -13.2478
   -13.2306 -13.2306 -13.2200 -13.2200  -5.1971  -5.1971  -4.4222  -4.4222
     0.5492   0.5492   1.5060   1.5060   4.3621   4.3621   4.9121   4.9121
     5.8039   5.8039   5.9655   5.9655   6.5035   6.5035   7.4273   7.4273

     occupation numbers 
     1.0000   1.0000   1.0000   1.0000   1.0000   1.0000   1.0000   1.0000
     1.0000   1.0000   1.0000   1.0000   1.0000   1.0000   1.0000   1.0000
     1.0000   1.0000   1.0000   1.0000   1.0000   1.0000   1.0000   1.0000
     1.0000   1.0000   1.0000   1.0000   1.0000   1.0000   1.0000   1.0000
     1.0000   1.0000   1.0000   1.0000   1.0000   1.0000   1.0000   1.0000

          k =-0.5000 0.8368 0.4597 (  3980 PWs)   bands (ev):

   -13.3117 -13.3117 -13.3076 -13.3076 -13.2939 -13.2939 -13.2914 -13.2914
   -13.2833 -13.2833 -13.2726 -13.2726 -13.2631 -13.2631 -13.2477 -13.2477
   -13.2309 -13.2309 -13.2198 -13.2198  -5.1029  -5.1029  -4.4218  -4.4218
     0.6103   0.6103   1.4865   1.4865   3.8869   3.8869   4.7513   4.7513
     5.2294   5.2294   6.2095   6.2095   6.4480   6.4480   7.3335   7.3335

     occupation numbers 
     1.0000   1.0000   1.0000   1.0000   1.0000   1.0000   1.0000   1.0000
     1.0000   1.0000   1.0000   1.0000   1.0000   1.0000   1.0000   1.0000
     1.0000   1.0000   1.0000   1.0000   1.0000   1.0000   1.0000   1.0000
     1.0000   1.0000   1.0000   1.0000   1.0000   1.0000   1.0000   1.0000
     1.0000   1.0000   1.0000   1.0000   1.0000   1.0000   1.0000   1.0000

          k =-0.5000 0.8368 0.7662 (  3972 PWs)   bands (ev):

   -13.3141 -13.3141 -13.3103 -13.3103 -13.2933 -13.2933 -13.2907 -13.2907
   -13.2828 -13.2828 -13.2704 -13.2704 -13.2626 -13.2626 -13.2474 -13.2474
   -13.2311 -13.2311 -13.2194 -13.2194  -4.9413  -4.9413  -4.4462  -4.4462
     0.6532   0.6532   1.4740   1.4740   3.5502   3.5502   4.4051   4.4051
     4.9867   4.9867   5.6984   5.6984   6.3750   6.3750   7.2240   7.2240

     occupation numbers 
     1.0000   1.0000   1.0000   1.0000   1.0000   1.0000   1.0000   1.0000
     1.0000   1.0000   1.0000   1.0000   1.0000   1.0000   1.0000   1.0000
     1.0000   1.0000   1.0000   1.0000   1.0000   1.0000   1.0000   1.0000
     1.0000   1.0000   1.0000   1.0000   1.0000   1.0000   1.0000   1.0000
     1.0000   1.0000   1.0000   1.0000   1.0000   1.0000   1.0000   1.0000

          k =-0.5000 0.8368 1.0727 (  3958 PWs)   bands (ev):

   -13.3158 -13.3158 -13.3122 -13.3122 -13.2925 -13.2925 -13.2906 -13.2906
   -13.2825 -13.2825 -13.2690 -13.2690 -13.2620 -13.2620 -13.2471 -13.2471
   -13.2313 -13.2313 -13.2192 -13.2192  -4.7753  -4.7753  -4.5125  -4.5125
     0.6347   0.6347   1.4959   1.4959   3.5636   3.5636   3.9351   3.9351
     4.9942   4.9942   5.3110   5.3110   6.3839   6.3839   6.9096   6.9096

     occupation numbers 
     1.0000   1.0000   1.0000   1.0000   1.0000   1.0000   1.0000   1.0000
     1.0000   1.0000   1.0000   1.0000   1.0000   1.0000   1.0000   1.0000
     1.0000   1.0000   1.0000   1.0000   1.0000   1.0000   1.0000   1.0000
     1.0000   1.0000   1.0000   1.0000   1.0000   1.0000   1.0000   1.0000
     1.0000   1.0000   1.0000   1.0000   1.0000   1.0000   1.0000   1.0000

          k =-0.5000 1.1715 0.1532 (  3998 PWs)   bands (ev):

   -13.3114 -13.3114 -13.3099 -13.3099 -13.2900 -13.2900 -13.2894 -13.2894
   -13.2795 -13.2795 -13.2746 -13.2746 -13.2607 -13.2607 -13.2550 -13.2550
   -13.2263 -13.2263 -13.2225 -13.2225  -4.8597  -4.8597  -4.5715  -4.5715
     0.5488   0.5488   0.8874   0.8874   4.8210   4.8210   5.1756   5.1756
     5.6829   5.6829   5.9376   5.9376   6.6241   6.6241   7.0144   7.0144

     occupation numbers 
     1.0000   1.0000   1.0000   1.0000   1.0000   1.0000   1.0000   1.0000
     1.0000   1.0000   1.0000   1.0000   1.0000   1.0000   1.0000   1.0000
     1.0000   1.0000   1.0000   1.0000   1.0000   1.0000   1.0000   1.0000
     1.0000   1.0000   1.0000   1.0000   1.0000   1.0000   1.0000   1.0000
     1.0000   1.0000   1.0000   1.0000   1.0000   1.0000   1.0000   1.0000

          k =-0.5000 1.1715 0.4597 (  3998 PWs)   bands (ev):

   -13.3137 -13.3137 -13.3121 -13.3121 -13.2899 -13.2899 -13.2889 -13.2889
   -13.2788 -13.2788 -13.2740 -13.2740 -13.2599 -13.2599 -13.2543 -13.2543
   -13.2263 -13.2263 -13.2223 -13.2223  -4.7915  -4.7915  -4.5387  -4.5387
     0.6795   0.6795   0.9848   0.9848   4.1642   4.1642   4.7058   4.7058
     5.2708   5.2708   5.7133   5.7133   6.5050   6.5050   6.9469   6.9469

     occupation numbers 
     1.0000   1.0000   1.0000   1.0000   1.0000   1.0000   1.0000   1.0000
     1.0000   1.0000   1.0000   1.0000   1.0000   1.0000   1.0000   1.0000
     1.0000   1.0000   1.0000   1.0000   1.0000   1.0000   1.0000   1.0000
     1.0000   1.0000   1.0000   1.0000   1.0000   1.0000   1.0000   1.0000
     1.0000   1.0000   1.0000   1.0000   1.0000   1.0000   1.0000   1.0000

          k =-0.5000 1.1715 0.7662 (  3976 PWs)   bands (ev):

   -13.3168 -13.3168 -13.3153 -13.3153 -13.2897 -13.2897 -13.2886 -13.2886
   -13.2779 -13.2779 -13.2731 -13.2731 -13.2585 -13.2585 -13.2532 -13.2532
   -13.2262 -13.2262 -13.2221 -13.2221  -4.6827  -4.6827  -4.4993  -4.4993
     0.8724   0.8724   1.1501   1.1501   3.6086   3.6086   4.1262   4.1262
     4.7004   4.7004   5.1637   5.1637   6.4507   6.4507   6.8260   6.8260

     occupation numbers 
     1.0000   1.0000   1.0000   1.0000   1.0000   1.0000   1.0000   1.0000
     1.0000   1.0000   1.0000   1.0000   1.0000   1.0000   1.0000   1.0000
     1.0000   1.0000   1.0000   1.0000   1.0000   1.0000   1.0000   1.0000
     1.0000   1.0000   1.0000   1.0000   1.0000   1.0000   1.0000   1.0000
     1.0000   1.0000   1.0000   1.0000   1.0000   1.0000   1.0000   1.0000

          k =-0.5000 1.1715 1.0727 (  3964 PWs)   bands (ev):

   -13.3189 -13.3189 -13.3175 -13.3175 -13.2896 -13.2896 -13.2885 -13.2885
   -13.2773 -13.2773 -13.2725 -13.2725 -13.2574 -13.2574 -13.2525 -13.2525
   -13.2262 -13.2262 -13.2219 -13.2219  -4.5851  -4.5851  -4.4880  -4.4880
     0.9920   0.9920   1.3178   1.3178   3.4279   3.4279   3.6727   3.6727
     4.3523   4.3523   4.6323   4.6323   6.5543   6.5543   6.7443   6.7443

     occupation numbers 
     1.0000   1.0000   1.0000   1.0000   1.0000   1.0000   1.0000   1.0000
     1.0000   1.0000   1.0000   1.0000   1.0000   1.0000   1.0000   1.0000
     1.0000   1.0000   1.0000   1.0000   1.0000   1.0000   1.0000   1.0000
     1.0000   1.0000   1.0000   1.0000   1.0000   1.0000   1.0000   1.0000
     1.0000   1.0000   1.0000   1.0000   1.0000   1.0000   1.0000   1.0000

     highest occupied level (ev):     7.8563

!    total energy              =    -827.73315940 Ry
     estimated scf accuracy    <          3.5E-09 Ry

     The total energy is the sum of the following terms:
     one-electron contribution =    -259.44145302 Ry
     hartree contribution      =     180.16421757 Ry
     xc contribution           =    -309.14003602 Ry
     ewald contribution        =    -439.19331864 Ry
     DFT-D3 Dispersion         =      -0.12256929 Ry

     convergence has been achieved in  10 iterations

     Forces acting on atoms (cartesian axes, Ry/au):

     atom    1 type  2   force =     0.01216218   -0.00000000    0.00109104
     atom    2 type  1   force =    -0.01249654    0.00000000   -0.00049577
     atom    3 type  2   force =    -0.01216218   -0.00000000    0.00109104
     atom    4 type  1   force =     0.01249654    0.00000000   -0.00049577
     atom    5 type  2   force =     0.01216218    0.00000000   -0.00109104
     atom    6 type  1   force =    -0.01249654    0.00000000    0.00049577
     atom    7 type  2   force =    -0.01216218    0.00000000   -0.00109104
     atom    8 type  1   force =     0.01249654    0.00000000    0.00049577
     The non-local contrib.  to forces
     atom    1 type  2   force =    -0.10784805    0.00000000    0.11331867
     atom    2 type  1   force =     0.35326926    0.00000000    0.30440134
     atom    3 type  2   force =     0.10784805    0.00000000    0.11331867
     atom    4 type  1   force =    -0.35326926    0.00000000    0.30440134
     atom    5 type  2   force =    -0.10784805    0.00000000   -0.11331867
     atom    6 type  1   force =     0.35326926    0.00000000   -0.30440134
     atom    7 type  2   force =     0.10784805    0.00000000   -0.11331867
     atom    8 type  1   force =    -0.35326926    0.00000000   -0.30440134
     The ionic contribution  to forces
     atom    1 type  2   force =     1.39230488    0.00000000   -1.18435606
     atom    2 type  1   force =    -0.66746301    0.00000000   -0.59397954
     atom    3 type  2   force =    -1.39230488    0.00000000   -1.18435606
     atom    4 type  1   force =     0.66746301   -0.00000000   -0.59397954
     atom    5 type  2   force =     1.39230488    0.00000000    1.18435606
     atom    6 type  1   force =    -0.66746301    0.00000000    0.59397954
     atom    7 type  2   force =    -1.39230488   -0.00000000    1.18435606
     atom    8 type  1   force =     0.66746301    0.00000000    0.59397954
     The local contribution  to forces
     atom    1 type  2   force =    -1.28329445   -0.00000000    1.08348886
     atom    2 type  1   force =     0.30729496   -0.00000000    0.29356679
     atom    3 type  2   force =     1.28329445   -0.00000000    1.08348886
     atom    4 type  1   force =    -0.30729496   -0.00000000    0.29356679
     atom    5 type  2   force =    -1.28329445   -0.00000000   -1.08348886
     atom    6 type  1   force =     0.30729496   -0.00000000   -0.29356679
     atom    7 type  2   force =     1.28329445    0.00000000   -1.08348886
     atom    8 type  1   force =    -0.30729496   -0.00000000   -0.29356679
     The core correction contribution to forces
     atom    1 type  2   force =     0.01184939   -0.00000000   -0.01281369
     atom    2 type  1   force =    -0.00480965   -0.00000000   -0.00546026
     atom    3 type  2   force =    -0.01184939   -0.00000000   -0.01281369
     atom    4 type  1   force =     0.00480965   -0.00000000   -0.00546026
     atom    5 type  2   force =     0.01184939   -0.00000000    0.01281369
     atom    6 type  1   force =    -0.00480965   -0.00000000    0.00546026
     atom    7 type  2   force =    -0.01184939    0.00000000    0.01281369
     atom    8 type  1   force =     0.00480965   -0.00000000    0.00546026
     The Hubbard contrib.    to forces
     atom    1 type  2   force =     0.00000000    0.00000000    0.00000000
     atom    2 type  1   force =     0.00000000    0.00000000    0.00000000
     atom    3 type  2   force =     0.00000000    0.00000000    0.00000000
     atom    4 type  1   force =     0.00000000    0.00000000    0.00000000
     atom    5 type  2   force =     0.00000000    0.00000000    0.00000000
     atom    6 type  1   force =     0.00000000    0.00000000    0.00000000
     atom    7 type  2   force =     0.00000000    0.00000000    0.00000000
     atom    8 type  1   force =     0.00000000    0.00000000    0.00000000
     The SCF correction term to forces
     atom    1 type  2   force =     0.00001610   -0.00000000    0.00000081
     atom    2 type  1   force =    -0.00009042    0.00000000   -0.00004304
     atom    3 type  2   force =    -0.00001610    0.00000000    0.00000081
     atom    4 type  1   force =     0.00009042   -0.00000000   -0.00004304
     atom    5 type  2   force =     0.00001610   -0.00000000   -0.00000081
     atom    6 type  1   force =    -0.00009042    0.00000000    0.00004304
     atom    7 type  2   force =    -0.00001610    0.00000000   -0.00000081
     atom    8 type  1   force =     0.00009042   -0.00000000    0.00004304

     DFT-D3 dispersion contribution to forces:
     atom    1 type  2   force =    -0.00086569    0.00000000    0.00145245
     atom    2 type  1   force =    -0.00069769   -0.00000000    0.00101895
     atom    3 type  2   force =     0.00086569   -0.00000000    0.00145245
     atom    4 type  1   force =     0.00069769   -0.00000000    0.00101895
     atom    5 type  2   force =    -0.00086569    0.00000000   -0.00145245
     atom    6 type  1   force =    -0.00069769    0.00000000   -0.00101895
     atom    7 type  2   force =     0.00086569   -0.00000000   -0.00145245
     atom    8 type  1   force =     0.00069769    0.00000000   -0.00101895

     Total force =     0.034958     Total SCF correction =     0.000203

     DFT-D3 dispersion Force =     0.004188

     Writing all to output data dir ./tmp/SnSe_pnma.save/ :
     XML data file, charge density, pseudopotentials, collected wavefunctions
 
     init_run     :      1.13s CPU      1.26s WALL (       1 calls)
     electrons    :     19.84s CPU     21.28s WALL (       1 calls)
     forces       :      0.47s CPU      0.54s WALL (       1 calls)
     force_dftd3  :      0.05s CPU      0.06s WALL (       1 calls)

     Called by init_run:
     wfcinit      :      0.64s CPU      0.69s WALL (       1 calls)
     wfcinit:atom :      0.01s CPU      0.01s WALL (      11 calls)
     wfcinit:wfcr :      0.56s CPU      0.60s WALL (      11 calls)
     potinit      :      0.09s CPU      0.10s WALL (       1 calls)
     hinit0       :      0.19s CPU      0.20s WALL (       1 calls)

     Called by electrons:
     c_bands      :     14.68s CPU     14.85s WALL (      10 calls)
     sum_band     :      3.29s CPU      3.91s WALL (      10 calls)
     v_of_rho     :      0.65s CPU      0.68s WALL (      11 calls)
     v_h          :      0.04s CPU      0.05s WALL (      11 calls)
     v_xc         :      0.66s CPU      0.69s WALL (      12 calls)
     newd         :      1.26s CPU      1.88s WALL (      11 calls)
     mix_rho      :      0.09s CPU      0.10s WALL (      10 calls)
     energy_dftd3 :      0.05s CPU      0.05s WALL (       1 calls)

     Called by c_bands:
     init_us_2    :      0.44s CPU      0.45s WALL (     242 calls)
     cegterg      :     13.06s CPU     13.18s WALL (     110 calls)

     Called by sum_band:
     sum_band:wei :      0.00s CPU      0.00s WALL (      10 calls)
     sum_band:loo :      1.97s CPU      1.98s WALL (      10 calls)
     sum_band:buf :      0.03s CPU      0.03s WALL (     110 calls)
     sum_band:ini :      0.20s CPU      0.20s WALL (     110 calls)
     sum_band:cal :      0.30s CPU      0.30s WALL (     110 calls)
     sum_band:bec :      0.01s CPU      0.01s WALL (     110 calls)
     addusdens    :      1.15s CPU      1.72s WALL (      10 calls)
                                        0.00s GPU  (      10 calls)
     addusd:skk   :      0.01s CPU      0.01s WALL (      20 calls)
                                        0.00s GPU  (      20 calls)

     Called by *egterg:
     cdiaghg      :      0.79s CPU      0.80s WALL (     483 calls)
     cegterg:over :      0.72s CPU      0.72s WALL (     373 calls)
     cegterg:upda :      0.41s CPU      0.41s WALL (     373 calls)
     cegterg:last :      0.92s CPU      0.93s WALL (     264 calls)
     h_psi        :      9.31s CPU      9.41s WALL (     494 calls)
     s_psi        :      1.01s CPU      1.02s WALL (     494 calls)
     g_psi        :      0.04s CPU      0.04s WALL (     373 calls)

     Called by h_psi:
     h_psi:calbec :      0.99s CPU      1.00s WALL (     494 calls)
     vloc_psi     :      7.18s CPU      7.26s WALL (     494 calls)
     add_vuspsi   :      1.06s CPU      1.06s WALL (     494 calls)

     General routines
     calbec       :      1.41s CPU      1.42s WALL (     648 calls)
     fft          :      0.30s CPU      0.32s WALL (     152 calls)
     ffts         :      0.01s CPU      0.01s WALL (      21 calls)
     fftw         :      5.88s CPU      5.94s WALL (   31436 calls)
     interpolate  :      0.03s CPU      0.03s WALL (      11 calls)
 
     Parallel routines
 
     PWSCF        :     21.63s CPU     23.67s WALL

 
   This run was terminated on:  14:57:33  20May2026            

=------------------------------------------------------------------------------=
   JOB DONE.
=------------------------------------------------------------------------------=
