
     Program PWSCF v.7.3.1 starts on 20May2026 at 14:43:25 

     This program is part of the open-source Quantum ESPRESSO suite
     for quantum simulation of materials; please cite
         "P. Giannozzi et al., J. Phys.:Condens. Matter 21 395502 (2009);
         "P. Giannozzi et al., J. Phys.:Condens. Matter 29 465901 (2017);
         "P. Giannozzi et al., J. Chem. Phys. 152 154105 (2020);
          URL http://www.quantum-espresso.org", 
     in publications or presentations arising from this work. More details at
     http://www.quantum-espresso.org/quote

     Parallel version (MPI & OpenMP), running on       6 processor cores
     Number of MPI processes:                 6
     Threads/MPI process:                     1

     MPI processes distributed on     1 nodes
     10776 MiB available memory on the printing compute node when the environment starts
 
     Waiting for input...
     Reading input from standard input

     Current dimensions of program PWSCF are:
     Max number of different atomic species (ntypx) = 10
     Max number of k-points (npk) =  40000
     Max angular momentum in pseudopotentials (lmaxx) =  4
 
     K-points division:     npool     =       3
     R & G space division:  proc/nbgrp/npool/nimage =       2
     Subspace diagonalization in iterative solution of the eigenvalue problem:
     a serial algorithm will be used

 
     Parallelization info
     --------------------
     sticks:   dense  smooth     PW     G-vecs:    dense   smooth      PW
     Min        2053     819    247                65028    16437    2661
     Max        2054     820    248                65029    16440    2662
     Sum        4107    1639    495               130057    32877    5323
 
     Using Slab Decomposition
 


     bravais-lattice index     =            8
     lattice parameter (alat)  =      21.8452  a.u.
     unit-cell volume          =    1482.4236 (a.u.)^3
     number of atoms/cell      =            8
     number of atomic types    =            2
     number of electrons       =        80.00
     number of Kohn-Sham states=           40
     kinetic-energy cutoff     =      30.0000  Ry
     charge density cutoff     =     300.0000  Ry
     scf convergence threshold =      1.0E-08
     mixing beta               =       0.7000
     number of iterations used =            8  plain     mixing
     Exchange-correlation= SLA  PW   PBE  PBE
                           (   1   4   3   4   0   0   0)

     celldm(1)=  21.845234  celldm(2)=   0.360848  celldm(3)=   0.394074
     celldm(4)=   0.000000  celldm(5)=   0.000000  celldm(6)=   0.000000

     crystal axes: (cart. coord. in units of alat)
               a(1) = (   1.000000   0.000000   0.000000 )  
               a(2) = (   0.000000   0.360848   0.000000 )  
               a(3) = (   0.000000   0.000000   0.394074 )  

     reciprocal axes: (cart. coord. in units 2 pi/alat)
               b(1) = (  1.000000  0.000000  0.000000 )  
               b(2) = (  0.000000  2.771252  0.000000 )  
               b(3) = (  0.000000  0.000000  2.537592 )  


     PseudoPot. # 1 for Sn read from file:
     ../pseudo/Sn_pbe_v1.uspp.F.UPF
     MD5 check sum: 4cf58ce39ec5d5d420df3dd08604eb00
     Pseudo is Ultrasoft + core correction, Zval = 14.0
     Generated by new atomic code, or converted to UPF format
     Using radial grid of  891 points,  6 beta functions with: 
                l(1) =   0
                l(2) =   0
                l(3) =   1
                l(4) =   1
                l(5) =   2
                l(6) =   2
     Q(r) pseudized with  6 coefficients,  rinner =    1.200   1.200   1.200
                                                       1.200   1.200

     PseudoPot. # 2 for Se read from file:
     ../pseudo/Se_pbe_v1.uspp.F.UPF
     MD5 check sum: 1b3568f3a8ae88f9a2a0ad0698632c85
     Pseudo is Ultrasoft + core correction, Zval =  6.0
     Generated by new atomic code, or converted to UPF format
     Using radial grid of  877 points,  6 beta functions with: 
                l(1) =   0
                l(2) =   0
                l(3) =   1
                l(4) =   1
                l(5) =   2
                l(6) =   2
     Q(r) pseudized with  8 coefficients,  rinner =    1.300   1.300   1.300
                                                       1.300   1.300

     atomic species   valence    mass     pseudopotential
     Sn               14.00   118.71000     Sn( 1.00)
     Se                6.00    78.97100     Se( 1.00)

      8 Sym. Ops., with inversion, found ( 6 have fractional translation)


                                    s                        frac. trans.

      isym =  1     identity                                     

 cryst.   s( 1) = (     1          0          0      )
                  (     0          1          0      )
                  (     0          0          1      )

 cart.    s( 1) = (  1.0000000  0.0000000  0.0000000 )
                  (  0.0000000  1.0000000  0.0000000 )
                  (  0.0000000  0.0000000  1.0000000 )


      isym =  2     180 deg rotation - cart. axis [0,0,1]        

 cryst.   s( 2) = (    -1          0          0      )    f =(  0.5000000 )
                  (     0         -1          0      )       (  0.0000000 )
                  (     0          0          1      )       ( -0.5000000 )

 cart.    s( 2) = ( -1.0000000  0.0000000  0.0000000 )    f =(  0.5000000 )
                  (  0.0000000 -1.0000000  0.0000000 )       (  0.0000000 )
                  (  0.0000000  0.0000000  1.0000000 )       ( -0.1970372 )


      isym =  3     180 deg rotation - cart. axis [0,1,0]        

 cryst.   s( 3) = (    -1          0          0      )    f =(  0.0000000 )
                  (     0          1          0      )       ( -0.5000000 )
                  (     0          0         -1      )       (  0.0000000 )

 cart.    s( 3) = ( -1.0000000  0.0000000  0.0000000 )    f =(  0.0000000 )
                  (  0.0000000  1.0000000  0.0000000 )       ( -0.1804239 )
                  (  0.0000000  0.0000000 -1.0000000 )       (  0.0000000 )


      isym =  4     180 deg rotation - cart. axis [1,0,0]        

 cryst.   s( 4) = (     1          0          0      )    f =(  0.5000000 )
                  (     0         -1          0      )       (  0.5000000 )
                  (     0          0         -1      )       ( -0.5000000 )

 cart.    s( 4) = (  1.0000000  0.0000000  0.0000000 )    f =(  0.5000000 )
                  (  0.0000000 -1.0000000  0.0000000 )       (  0.1804239 )
                  (  0.0000000  0.0000000 -1.0000000 )       ( -0.1970372 )


      isym =  5     inversion                                    

 cryst.   s( 5) = (    -1          0          0      )
                  (     0         -1          0      )
                  (     0          0         -1      )

 cart.    s( 5) = ( -1.0000000  0.0000000  0.0000000 )
                  (  0.0000000 -1.0000000  0.0000000 )
                  (  0.0000000  0.0000000 -1.0000000 )


      isym =  6     inv. 180 deg rotation - cart. axis [0,0,1]   

 cryst.   s( 6) = (     1          0          0      )    f =(  0.5000000 )
                  (     0          1          0      )       (  0.0000000 )
                  (     0          0         -1      )       ( -0.5000000 )

 cart.    s( 6) = (  1.0000000  0.0000000  0.0000000 )    f =(  0.5000000 )
                  (  0.0000000  1.0000000  0.0000000 )       (  0.0000000 )
                  (  0.0000000  0.0000000 -1.0000000 )       ( -0.1970372 )


      isym =  7     inv. 180 deg rotation - cart. axis [0,1,0]   

 cryst.   s( 7) = (     1          0          0      )    f =(  0.0000000 )
                  (     0         -1          0      )       (  0.5000000 )
                  (     0          0          1      )       (  0.0000000 )

 cart.    s( 7) = (  1.0000000  0.0000000  0.0000000 )    f =(  0.0000000 )
                  (  0.0000000 -1.0000000  0.0000000 )       (  0.1804239 )
                  (  0.0000000  0.0000000  1.0000000 )       (  0.0000000 )


      isym =  8     inv. 180 deg rotation - cart. axis [1,0,0]   

 cryst.   s( 8) = (    -1          0          0      )    f =(  0.5000000 )
                  (     0          1          0      )       ( -0.5000000 )
                  (     0          0          1      )       ( -0.5000000 )

 cart.    s( 8) = ( -1.0000000  0.0000000  0.0000000 )    f =(  0.5000000 )
                  (  0.0000000  1.0000000  0.0000000 )       ( -0.1804239 )
                  (  0.0000000  0.0000000  1.0000000 )       ( -0.1970372 )


     point group D_2h (mmm) 
     there are  8 classes
     the character table:

       E     C2    C2'   C2''  i     s_v   s_v'  s_v''
A_g    1.00  1.00  1.00  1.00  1.00  1.00  1.00  1.00
B_1g   1.00  1.00 -1.00 -1.00  1.00  1.00 -1.00 -1.00
B_2g   1.00 -1.00  1.00 -1.00  1.00 -1.00  1.00 -1.00
B_3g   1.00 -1.00 -1.00  1.00  1.00 -1.00 -1.00  1.00
A_u    1.00  1.00  1.00  1.00 -1.00 -1.00 -1.00 -1.00
B_1u   1.00  1.00 -1.00 -1.00 -1.00 -1.00  1.00  1.00
B_2u   1.00 -1.00  1.00 -1.00 -1.00  1.00 -1.00  1.00
B_3u   1.00 -1.00 -1.00  1.00 -1.00  1.00  1.00 -1.00

     the symmetry operations in each class and the name of the first element:

     E        1
          identity                                               
     C2       2
          180 deg rotation - cart. axis [0,0,1]                  
     C2'      4
          180 deg rotation - cart. axis [1,0,0]                  
     C2''     3
          180 deg rotation - cart. axis [0,1,0]                  
     i        5
          inversion                                              
     s_v      6
          inv. 180 deg rotation - cart. axis [0,0,1]             
     s_v'     8
          inv. 180 deg rotation - cart. axis [1,0,0]             
     s_v''    7
          inv. 180 deg rotation - cart. axis [0,1,0]             

   Cartesian axes

     site n.     atom                  positions (alat units)
         1        Se     tau(   1) = (   0.8549563   0.0902119   0.1904357  )
         2        Sn     tau(   2) = (   0.1165395   0.0902119   0.0442494  )
         3        Se     tau(   3) = (   0.6450437   0.2706358   0.3874729  )
         4        Sn     tau(   4) = (   0.3834605   0.2706358   0.2412866  )
         5        Se     tau(   5) = (   0.3549563   0.0902119   0.0066015  )
         6        Sn     tau(   6) = (   0.6165395   0.0902119   0.1527878  )
         7        Se     tau(   7) = (   0.1450437   0.2706358   0.2036387  )
         8        Sn     tau(   8) = (   0.8834605   0.2706358   0.3498250  )

     --------------------------------------------
     DFT-D3 Dispersion Correction (3-body terms):
     --------------------------------------------
       Reference C6 values for interpolation: 

         atom   Coordination number   C6
         Se         0.000           427.35
         Se         0.990           427.57
         Se         1.981           421.05
         Sn         0.000          1255.14
         Sn         0.951          1084.09
         Sn         1.950          1010.83
         Sn         2.926           818.29
         Sn         3.912           672.20

       Values used:

         atom   Coordination number  R0_AB[au]  C6      C8
         Se         3.408            3.332    421.05  29958.36
         Sn         4.099            3.957    672.84  84448.95
         Se         3.408            3.332    421.05  29958.36
         Sn         4.099            3.957    672.84  84448.95
         Se         3.408            3.332    421.05  29958.36
         Sn         4.099            3.957    672.84  84448.95
         Se         3.408            3.332    421.05  29958.36
         Sn         4.099            3.957    672.84  84448.95

         Molecular C6 ( Ry / a.u.^6 ) =     34514.29


   Crystallographic axes

     site n.     atom                  positions (cryst. coord.)
         1        Se     tau(   1) = (  0.8549563  0.2500000  0.4832481  )
         2        Sn     tau(   2) = (  0.1165395  0.2500000  0.1122870  )
         3        Se     tau(   3) = (  0.6450437  0.7500000  0.9832481  )
         4        Sn     tau(   4) = (  0.3834605  0.7500000  0.6122870  )
         5        Se     tau(   5) = (  0.3549563  0.2500000  0.0167519  )
         6        Sn     tau(   6) = (  0.6165395  0.2500000  0.3877130  )
         7        Se     tau(   7) = (  0.1450437  0.7500000  0.5167519  )
         8        Sn     tau(   8) = (  0.8834605  0.7500000  0.8877130  )

     number of k points=    32
                       cart. coord. in units 2pi/alat
        k(    1) = (   0.1666667   0.1732032   0.1585995), wk =   0.0833333
        k(    2) = (   0.1666667   0.1732032   0.4757985), wk =   0.0833333
        k(    3) = (   0.1666667   0.1732032   0.7929975), wk =   0.0833333
        k(    4) = (   0.1666667   0.1732032   1.1101965), wk =   0.0833333
        k(    5) = (   0.1666667   0.5196097   0.1585995), wk =   0.0833333
        k(    6) = (   0.1666667   0.5196097   0.4757985), wk =   0.0833333
        k(    7) = (   0.1666667   0.5196097   0.7929975), wk =   0.0833333
        k(    8) = (   0.1666667   0.5196097   1.1101965), wk =   0.0833333
        k(    9) = (   0.1666667   0.8660162   0.1585995), wk =   0.0833333
        k(   10) = (   0.1666667   0.8660162   0.4757985), wk =   0.0833333
        k(   11) = (   0.1666667   0.8660162   0.7929975), wk =   0.0833333
        k(   12) = (   0.1666667   0.8660162   1.1101965), wk =   0.0833333
        k(   13) = (   0.1666667   1.2124227   0.1585995), wk =   0.0833333
        k(   14) = (   0.1666667   1.2124227   0.4757985), wk =   0.0833333
        k(   15) = (   0.1666667   1.2124227   0.7929975), wk =   0.0833333
        k(   16) = (   0.1666667   1.2124227   1.1101965), wk =   0.0833333
        k(   17) = (  -0.5000000   0.1732032   0.1585995), wk =   0.0416667
        k(   18) = (  -0.5000000   0.1732032   0.4757985), wk =   0.0416667
        k(   19) = (  -0.5000000   0.1732032   0.7929975), wk =   0.0416667
        k(   20) = (  -0.5000000   0.1732032   1.1101965), wk =   0.0416667
        k(   21) = (  -0.5000000   0.5196097   0.1585995), wk =   0.0416667
        k(   22) = (  -0.5000000   0.5196097   0.4757985), wk =   0.0416667
        k(   23) = (  -0.5000000   0.5196097   0.7929975), wk =   0.0416667
        k(   24) = (  -0.5000000   0.5196097   1.1101965), wk =   0.0416667
        k(   25) = (  -0.5000000   0.8660162   0.1585995), wk =   0.0416667
        k(   26) = (  -0.5000000   0.8660162   0.4757985), wk =   0.0416667
        k(   27) = (  -0.5000000   0.8660162   0.7929975), wk =   0.0416667
        k(   28) = (  -0.5000000   0.8660162   1.1101965), wk =   0.0416667
        k(   29) = (  -0.5000000   1.2124227   0.1585995), wk =   0.0416667
        k(   30) = (  -0.5000000   1.2124227   0.4757985), wk =   0.0416667
        k(   31) = (  -0.5000000   1.2124227   0.7929975), wk =   0.0416667
        k(   32) = (  -0.5000000   1.2124227   1.1101965), wk =   0.0416667

                       cryst. coord.
        k(    1) = (   0.1666667   0.0625000   0.0625000), wk =   0.0833333
        k(    2) = (   0.1666667   0.0625000   0.1875000), wk =   0.0833333
        k(    3) = (   0.1666667   0.0625000   0.3125000), wk =   0.0833333
        k(    4) = (   0.1666667   0.0625000   0.4375000), wk =   0.0833333
        k(    5) = (   0.1666667   0.1875000   0.0625000), wk =   0.0833333
        k(    6) = (   0.1666667   0.1875000   0.1875000), wk =   0.0833333
        k(    7) = (   0.1666667   0.1875000   0.3125000), wk =   0.0833333
        k(    8) = (   0.1666667   0.1875000   0.4375000), wk =   0.0833333
        k(    9) = (   0.1666667   0.3125000   0.0625000), wk =   0.0833333
        k(   10) = (   0.1666667   0.3125000   0.1875000), wk =   0.0833333
        k(   11) = (   0.1666667   0.3125000   0.3125000), wk =   0.0833333
        k(   12) = (   0.1666667   0.3125000   0.4375000), wk =   0.0833333
        k(   13) = (   0.1666667   0.4375000   0.0625000), wk =   0.0833333
        k(   14) = (   0.1666667   0.4375000   0.1875000), wk =   0.0833333
        k(   15) = (   0.1666667   0.4375000   0.3125000), wk =   0.0833333
        k(   16) = (   0.1666667   0.4375000   0.4375000), wk =   0.0833333
        k(   17) = (  -0.5000000   0.0625000   0.0625000), wk =   0.0416667
        k(   18) = (  -0.5000000   0.0625000   0.1875000), wk =   0.0416667
        k(   19) = (  -0.5000000   0.0625000   0.3125000), wk =   0.0416667
        k(   20) = (  -0.5000000   0.0625000   0.4375000), wk =   0.0416667
        k(   21) = (  -0.5000000   0.1875000   0.0625000), wk =   0.0416667
        k(   22) = (  -0.5000000   0.1875000   0.1875000), wk =   0.0416667
        k(   23) = (  -0.5000000   0.1875000   0.3125000), wk =   0.0416667
        k(   24) = (  -0.5000000   0.1875000   0.4375000), wk =   0.0416667
        k(   25) = (  -0.5000000   0.3125000   0.0625000), wk =   0.0416667
        k(   26) = (  -0.5000000   0.3125000   0.1875000), wk =   0.0416667
        k(   27) = (  -0.5000000   0.3125000   0.3125000), wk =   0.0416667
        k(   28) = (  -0.5000000   0.3125000   0.4375000), wk =   0.0416667
        k(   29) = (  -0.5000000   0.4375000   0.0625000), wk =   0.0416667
        k(   30) = (  -0.5000000   0.4375000   0.1875000), wk =   0.0416667
        k(   31) = (  -0.5000000   0.4375000   0.3125000), wk =   0.0416667
        k(   32) = (  -0.5000000   0.4375000   0.4375000), wk =   0.0416667

     Dense  grid:   130057 G-vectors     FFT dimensions: ( 128,  48,  48)

     Smooth grid:    32877 G-vectors     FFT dimensions: (  80,  30,  32)

     Dynamical RAM for                 wfc:       1.25 MB

     Dynamical RAM for     wfc (w. buffer):      15.06 MB

     Dynamical RAM for           str. fact:       1.98 MB

     Dynamical RAM for           local pot:       0.00 MB

     Dynamical RAM for          nlocal pot:       4.52 MB

     Dynamical RAM for                qrad:       2.78 MB

     Dynamical RAM for          rho,v,vnew:       6.35 MB

     Dynamical RAM for               rhoin:       2.12 MB

     Dynamical RAM for            rho*nmix:      15.88 MB

     Dynamical RAM for           G-vectors:       3.85 MB

     Dynamical RAM for          h,s,v(r/c):       0.29 MB

     Dynamical RAM for          <psi|beta>:       0.09 MB

     Dynamical RAM for                 psi:       2.51 MB

     Dynamical RAM for                hpsi:       2.51 MB

     Dynamical RAM for                spsi:       2.51 MB

     Dynamical RAM for      wfcinit/wfcrot:       3.32 MB

     Dynamical RAM for           addusdens:      63.50 MB

     Dynamical RAM for          addusforce:      65.34 MB

     Estimated static dynamical RAM per process >      45.26 MB

     Estimated max dynamical RAM per process >     126.47 MB

     Estimated total dynamical RAM >     695.34 MB

     Initial potential from superposition of free atoms

     starting charge      75.9995, renormalised to      80.0000
     Starting wfcs are   52 randomized atomic wfcs

     total cpu time spent up to now is        1.5 secs

     Self-consistent Calculation

     iteration #  1     ecut=    30.00 Ry     beta= 0.70
     Davidson diagonalization with overlap

---- Real-time Memory Report at c_bands before calling an iterative solver
           213 MiB given to the printing process from OS
             0 MiB allocation reported by mallinfo(arena+hblkhd)
         10322 MiB available memory on the node where the printing process lives
------------------
     ethr =  1.00E-02,  avg # of iterations =  2.0

     total cpu time spent up to now is        3.7 secs

     total energy              =    -826.60990197 Ry
     estimated scf accuracy    <       2.70564176 Ry

     iteration #  2     ecut=    30.00 Ry     beta= 0.70
     Davidson diagonalization with overlap

---- Real-time Memory Report at c_bands before calling an iterative solver
           258 MiB given to the printing process from OS
             0 MiB allocation reported by mallinfo(arena+hblkhd)
          9843 MiB available memory on the node where the printing process lives
------------------
     ethr =  3.38E-03,  avg # of iterations =  3.0

     total cpu time spent up to now is        5.9 secs

     total energy              =    -827.52226213 Ry
     estimated scf accuracy    <       1.02382581 Ry

     iteration #  3     ecut=    30.00 Ry     beta= 0.70
     Davidson diagonalization with overlap

---- Real-time Memory Report at c_bands before calling an iterative solver
           282 MiB given to the printing process from OS
             0 MiB allocation reported by mallinfo(arena+hblkhd)
          9741 MiB available memory on the node where the printing process lives
------------------
     ethr =  1.28E-03,  avg # of iterations =  2.6

     total cpu time spent up to now is        7.9 secs

     total energy              =    -827.73256056 Ry
     estimated scf accuracy    <       0.01012280 Ry

     iteration #  4     ecut=    30.00 Ry     beta= 0.70
     Davidson diagonalization with overlap

---- Real-time Memory Report at c_bands before calling an iterative solver
           283 MiB given to the printing process from OS
             0 MiB allocation reported by mallinfo(arena+hblkhd)
          9739 MiB available memory on the node where the printing process lives
------------------
     ethr =  1.27E-05,  avg # of iterations =  4.9

     total cpu time spent up to now is       10.5 secs

     total energy              =    -827.73899855 Ry
     estimated scf accuracy    <       0.00546917 Ry

     iteration #  5     ecut=    30.00 Ry     beta= 0.70
     Davidson diagonalization with overlap

---- Real-time Memory Report at c_bands before calling an iterative solver
           286 MiB given to the printing process from OS
             0 MiB allocation reported by mallinfo(arena+hblkhd)
          9732 MiB available memory on the node where the printing process lives
------------------
     ethr =  6.84E-06,  avg # of iterations =  3.0

     total cpu time spent up to now is       12.4 secs

     total energy              =    -827.74061827 Ry
     estimated scf accuracy    <       0.00052615 Ry

     iteration #  6     ecut=    30.00 Ry     beta= 0.70
     Davidson diagonalization with overlap

---- Real-time Memory Report at c_bands before calling an iterative solver
           289 MiB given to the printing process from OS
             0 MiB allocation reported by mallinfo(arena+hblkhd)
          9727 MiB available memory on the node where the printing process lives
------------------
     ethr =  6.58E-07,  avg # of iterations =  3.6

     total cpu time spent up to now is       14.6 secs

     total energy              =    -827.74055651 Ry
     estimated scf accuracy    <       0.00043710 Ry

     iteration #  7     ecut=    30.00 Ry     beta= 0.70
     Davidson diagonalization with overlap

---- Real-time Memory Report at c_bands before calling an iterative solver
           291 MiB given to the printing process from OS
             0 MiB allocation reported by mallinfo(arena+hblkhd)
          9782 MiB available memory on the node where the printing process lives
------------------
     ethr =  5.46E-07,  avg # of iterations =  2.2

     total cpu time spent up to now is       16.5 secs

     total energy              =    -827.74060600 Ry
     estimated scf accuracy    <       0.00002027 Ry

     iteration #  8     ecut=    30.00 Ry     beta= 0.70
     Davidson diagonalization with overlap

---- Real-time Memory Report at c_bands before calling an iterative solver
           292 MiB given to the printing process from OS
             0 MiB allocation reported by mallinfo(arena+hblkhd)
          9726 MiB available memory on the node where the printing process lives
------------------
     ethr =  2.53E-08,  avg # of iterations =  4.7

     total cpu time spent up to now is       19.0 secs

     total energy              =    -827.74062243 Ry
     estimated scf accuracy    <       0.00001696 Ry

     iteration #  9     ecut=    30.00 Ry     beta= 0.70
     Davidson diagonalization with overlap

---- Real-time Memory Report at c_bands before calling an iterative solver
           293 MiB given to the printing process from OS
             0 MiB allocation reported by mallinfo(arena+hblkhd)
          9724 MiB available memory on the node where the printing process lives
------------------
     ethr =  2.12E-08,  avg # of iterations =  2.0

     total cpu time spent up to now is       21.0 secs

     total energy              =    -827.74062404 Ry
     estimated scf accuracy    <       0.00000109 Ry

     iteration # 10     ecut=    30.00 Ry     beta= 0.70
     Davidson diagonalization with overlap

---- Real-time Memory Report at c_bands before calling an iterative solver
           294 MiB given to the printing process from OS
             0 MiB allocation reported by mallinfo(arena+hblkhd)
          9723 MiB available memory on the node where the printing process lives
------------------
     ethr =  1.36E-09,  avg # of iterations =  4.2

     total cpu time spent up to now is       23.4 secs

     total energy              =    -827.74062446 Ry
     estimated scf accuracy    <       0.00000002 Ry

     iteration # 11     ecut=    30.00 Ry     beta= 0.70
     Davidson diagonalization with overlap

---- Real-time Memory Report at c_bands before calling an iterative solver
           295 MiB given to the printing process from OS
             0 MiB allocation reported by mallinfo(arena+hblkhd)
          9720 MiB available memory on the node where the printing process lives
------------------
     ethr =  2.56E-11,  avg # of iterations =  5.2

     total cpu time spent up to now is       25.9 secs

     total energy              =    -827.74062446 Ry
     estimated scf accuracy    <       0.00000002 Ry

     iteration # 12     ecut=    30.00 Ry     beta= 0.70
     Davidson diagonalization with overlap

---- Real-time Memory Report at c_bands before calling an iterative solver
           296 MiB given to the printing process from OS
             0 MiB allocation reported by mallinfo(arena+hblkhd)
          9721 MiB available memory on the node where the printing process lives
------------------
     ethr =  2.23E-11,  avg # of iterations =  2.7

     total cpu time spent up to now is       27.8 secs

     End of self-consistent calculation

          k = 0.1667 0.1732 0.1586 (  4119 PWs)   bands (ev):

   -13.7685 -13.7597 -13.7558 -13.7527 -13.7520 -13.7500 -13.7460 -13.7446
   -13.7382 -13.7341 -13.7337 -13.7323 -13.7225 -13.7197 -13.7026 -13.6999
   -13.6957 -13.6940 -13.6859 -13.6805  -5.9886  -5.7110  -5.0284  -4.6531
     0.3652   1.1945   2.0188   2.3996   3.0003   4.2178   4.3606   4.6283
     4.8807   4.9276   5.4919   5.7979   6.0342   6.4080   6.8355   7.1285

     occupation numbers 
     1.0000   1.0000   1.0000   1.0000   1.0000   1.0000   1.0000   1.0000
     1.0000   1.0000   1.0000   1.0000   1.0000   1.0000   1.0000   1.0000
     1.0000   1.0000   1.0000   1.0000   1.0000   1.0000   1.0000   1.0000
     1.0000   1.0000   1.0000   1.0000   1.0000   1.0000   1.0000   1.0000
     1.0000   1.0000   1.0000   1.0000   1.0000   1.0000   1.0000   1.0000

          k = 0.1667 0.1732 0.4758 (  4098 PWs)   bands (ev):

   -13.7672 -13.7592 -13.7558 -13.7535 -13.7521 -13.7511 -13.7465 -13.7449
   -13.7382 -13.7344 -13.7315 -13.7298 -13.7219 -13.7197 -13.7028 -13.6992
   -13.6965 -13.6944 -13.6855 -13.6810  -5.8740  -5.6062  -5.0243  -4.6848
     0.0475   0.9294   1.4979   2.0657   3.0939   4.2657   4.4764   4.9929
     5.2063   5.4542   5.5007   5.9059   6.3028   6.6065   6.8802   7.1337

     occupation numbers 
     1.0000   1.0000   1.0000   1.0000   1.0000   1.0000   1.0000   1.0000
     1.0000   1.0000   1.0000   1.0000   1.0000   1.0000   1.0000   1.0000
     1.0000   1.0000   1.0000   1.0000   1.0000   1.0000   1.0000   1.0000
     1.0000   1.0000   1.0000   1.0000   1.0000   1.0000   1.0000   1.0000
     1.0000   1.0000   1.0000   1.0000   1.0000   1.0000   1.0000   1.0000

          k = 0.1667 0.1732 0.7930 (  4105 PWs)   bands (ev):

   -13.7650 -13.7589 -13.7561 -13.7549 -13.7526 -13.7521 -13.7470 -13.7458
   -13.7377 -13.7349 -13.7281 -13.7260 -13.7215 -13.7198 -13.7026 -13.6990
   -13.6974 -13.6952 -13.6848 -13.6818  -5.6685  -5.4197  -5.0547  -4.7713
    -0.2676   0.4244   1.0605   1.5807   3.3952   4.4969   4.6987   5.2708
     5.4722   5.6234   5.8663   5.9954   6.4702   6.9395   6.9604   7.3842

     occupation numbers 
     1.0000   1.0000   1.0000   1.0000   1.0000   1.0000   1.0000   1.0000
     1.0000   1.0000   1.0000   1.0000   1.0000   1.0000   1.0000   1.0000
     1.0000   1.0000   1.0000   1.0000   1.0000   1.0000   1.0000   1.0000
     1.0000   1.0000   1.0000   1.0000   1.0000   1.0000   1.0000   1.0000
     1.0000   1.0000   1.0000   1.0000   1.0000   1.0000   1.0000   1.0000

          k = 0.1667 0.1732 1.1102 (  4093 PWs)   bands (ev):

   -13.7623 -13.7600 -13.7561 -13.7557 -13.7532 -13.7527 -13.7472 -13.7467
   -13.7368 -13.7358 -13.7247 -13.7230 -13.7221 -13.7205 -13.7016 -13.7002
   -13.6969 -13.6960 -13.6838 -13.6828  -5.4244  -5.2550  -5.1082  -4.9307
    -0.3364  -0.0802   0.9599   1.1595   3.8664   4.3776   5.0675   5.3256
     5.5366   5.6568   5.8990   6.1902   6.7577   7.0764   7.2406   7.3270

     occupation numbers 
     1.0000   1.0000   1.0000   1.0000   1.0000   1.0000   1.0000   1.0000
     1.0000   1.0000   1.0000   1.0000   1.0000   1.0000   1.0000   1.0000
     1.0000   1.0000   1.0000   1.0000   1.0000   1.0000   1.0000   1.0000
     1.0000   1.0000   1.0000   1.0000   1.0000   1.0000   1.0000   1.0000
     1.0000   1.0000   1.0000   1.0000   1.0000   1.0000   1.0000   1.0000

          k = 0.1667 0.5196 0.1586 (  4119 PWs)   bands (ev):

   -13.7629 -13.7578 -13.7547 -13.7516 -13.7510 -13.7498 -13.7491 -13.7470
   -13.7400 -13.7367 -13.7327 -13.7292 -13.7207 -13.7197 -13.7018 -13.7001
   -13.6974 -13.6941 -13.6855 -13.6816  -5.8292  -5.5734  -4.9607  -4.6457
     0.2126   0.9363   1.6993   1.8069   3.1153   4.0933   4.3909   4.7025
     5.0099   5.1898   5.5098   5.8413   6.0836   6.7015   6.9518   7.0533

     occupation numbers 
     1.0000   1.0000   1.0000   1.0000   1.0000   1.0000   1.0000   1.0000
     1.0000   1.0000   1.0000   1.0000   1.0000   1.0000   1.0000   1.0000
     1.0000   1.0000   1.0000   1.0000   1.0000   1.0000   1.0000   1.0000
     1.0000   1.0000   1.0000   1.0000   1.0000   1.0000   1.0000   1.0000
     1.0000   1.0000   1.0000   1.0000   1.0000   1.0000   1.0000   1.0000

          k = 0.1667 0.5196 0.4758 (  4118 PWs)   bands (ev):

   -13.7628 -13.7577 -13.7561 -13.7522 -13.7511 -13.7501 -13.7486 -13.7479
   -13.7399 -13.7369 -13.7304 -13.7271 -13.7211 -13.7187 -13.7016 -13.6998
   -13.6977 -13.6949 -13.6852 -13.6819  -5.7205  -5.4749  -4.9543  -4.6677
     0.0523   0.8647   1.3514   1.7111   3.2476   3.6934   3.9748   4.7654
     4.9656   5.5165   5.7472   5.8950   6.5232   6.6512   6.9493   7.1267

     occupation numbers 
     1.0000   1.0000   1.0000   1.0000   1.0000   1.0000   1.0000   1.0000
     1.0000   1.0000   1.0000   1.0000   1.0000   1.0000   1.0000   1.0000
     1.0000   1.0000   1.0000   1.0000   1.0000   1.0000   1.0000   1.0000
     1.0000   1.0000   1.0000   1.0000   1.0000   1.0000   1.0000   1.0000
     1.0000   1.0000   1.0000   1.0000   1.0000   1.0000   1.0000   1.0000

          k = 0.1667 0.5196 0.7930 (  4105 PWs)   bands (ev):

   -13.7627 -13.7588 -13.7569 -13.7533 -13.7517 -13.7500 -13.7493 -13.7482
   -13.7393 -13.7372 -13.7273 -13.7240 -13.7211 -13.7181 -13.7011 -13.6993
   -13.6981 -13.6961 -13.6846 -13.6823  -5.5275  -5.3017  -4.9770  -4.7344
    -0.1285   0.5306   1.0915   1.4816   3.5057   3.6453   3.9242   4.6865
     4.7938   5.5531   5.6138   6.1749   6.3903   6.6405   6.8432   7.1197

     occupation numbers 
     1.0000   1.0000   1.0000   1.0000   1.0000   1.0000   1.0000   1.0000
     1.0000   1.0000   1.0000   1.0000   1.0000   1.0000   1.0000   1.0000
     1.0000   1.0000   1.0000   1.0000   1.0000   1.0000   1.0000   1.0000
     1.0000   1.0000   1.0000   1.0000   1.0000   1.0000   1.0000   1.0000
     1.0000   1.0000   1.0000   1.0000   1.0000   1.0000   1.0000   1.0000

          k = 0.1667 0.5196 1.1102 (  4099 PWs)   bands (ev):

   -13.7623 -13.7610 -13.7560 -13.7548 -13.7518 -13.7510 -13.7491 -13.7485
   -13.7384 -13.7377 -13.7245 -13.7229 -13.7198 -13.7183 -13.7002 -13.6992
   -13.6981 -13.6973 -13.6838 -13.6830  -5.3028  -5.1509  -5.0213  -4.8667
    -0.1446   0.0969   1.0675   1.2202   3.8237   3.8842   4.1505   4.4234
     4.7122   5.0412   5.6852   5.9702   6.3283   6.5729   6.8325   7.0181

     occupation numbers 
     1.0000   1.0000   1.0000   1.0000   1.0000   1.0000   1.0000   1.0000
     1.0000   1.0000   1.0000   1.0000   1.0000   1.0000   1.0000   1.0000
     1.0000   1.0000   1.0000   1.0000   1.0000   1.0000   1.0000   1.0000
     1.0000   1.0000   1.0000   1.0000   1.0000   1.0000   1.0000   1.0000
     1.0000   1.0000   1.0000   1.0000   1.0000   1.0000   1.0000   1.0000

          k = 0.1667 0.8660 0.1586 (  4122 PWs)   bands (ev):

   -13.7606 -13.7585 -13.7562 -13.7556 -13.7496 -13.7464 -13.7458 -13.7444
   -13.7393 -13.7389 -13.7327 -13.7257 -13.7217 -13.7167 -13.7055 -13.7046
   -13.6950 -13.6910 -13.6849 -13.6832  -5.5398  -5.3349  -4.8861  -4.6932
     0.0043   0.6025   0.9429   1.2468   3.4532   4.2119   4.5767   4.9097
     5.2748   5.3389   5.6583   5.8399   6.2145   6.6856   6.7903   7.1479

     occupation numbers 
     1.0000   1.0000   1.0000   1.0000   1.0000   1.0000   1.0000   1.0000
     1.0000   1.0000   1.0000   1.0000   1.0000   1.0000   1.0000   1.0000
     1.0000   1.0000   1.0000   1.0000   1.0000   1.0000   1.0000   1.0000
     1.0000   1.0000   1.0000   1.0000   1.0000   1.0000   1.0000   1.0000
     1.0000   1.0000   1.0000   1.0000   1.0000   1.0000   1.0000   1.0000

          k = 0.1667 0.8660 0.4758 (  4120 PWs)   bands (ev):

   -13.7631 -13.7602 -13.7577 -13.7562 -13.7502 -13.7458 -13.7452 -13.7443
   -13.7390 -13.7386 -13.7309 -13.7249 -13.7208 -13.7162 -13.7050 -13.7042
   -13.6951 -13.6916 -13.6847 -13.6832  -5.4450  -5.2508  -4.8717  -4.6930
     0.0420   0.6958   0.9699   1.1841   3.4563   3.5717   3.9170   4.4969
     4.9265   5.4845   5.5795   6.0205   6.1182   6.4479   6.6827   6.9145

     occupation numbers 
     1.0000   1.0000   1.0000   1.0000   1.0000   1.0000   1.0000   1.0000
     1.0000   1.0000   1.0000   1.0000   1.0000   1.0000   1.0000   1.0000
     1.0000   1.0000   1.0000   1.0000   1.0000   1.0000   1.0000   1.0000
     1.0000   1.0000   1.0000   1.0000   1.0000   1.0000   1.0000   1.0000
     1.0000   1.0000   1.0000   1.0000   1.0000   1.0000   1.0000   1.0000

          k = 0.1667 0.8660 0.7930 (  4117 PWs)   bands (ev):

   -13.7657 -13.7633 -13.7593 -13.7581 -13.7498 -13.7462 -13.7446 -13.7439
   -13.7383 -13.7381 -13.7284 -13.7243 -13.7188 -13.7156 -13.7041 -13.7035
   -13.6949 -13.6926 -13.6843 -13.6832  -5.2814  -5.1077  -4.8733  -4.7158
     0.0985   0.6539   1.0219   1.1886   3.0687   3.4028   3.8374   4.0886
     4.3847   4.9872   5.2954   5.6443   5.9443   6.1910   6.3984   6.8721

     occupation numbers 
     1.0000   1.0000   1.0000   1.0000   1.0000   1.0000   1.0000   1.0000
     1.0000   1.0000   1.0000   1.0000   1.0000   1.0000   1.0000   1.0000
     1.0000   1.0000   1.0000   1.0000   1.0000   1.0000   1.0000   1.0000
     1.0000   1.0000   1.0000   1.0000   1.0000   1.0000   1.0000   1.0000
     1.0000   1.0000   1.0000   1.0000   1.0000   1.0000   1.0000   1.0000

          k = 0.1667 0.8660 1.1102 (  4112 PWs)   bands (ev):

   -13.7669 -13.7660 -13.7603 -13.7598 -13.7487 -13.7473 -13.7441 -13.7439
   -13.7378 -13.7377 -13.7262 -13.7248 -13.7166 -13.7155 -13.7033 -13.7030
   -13.6944 -13.6936 -13.6838 -13.6835  -5.1004  -4.9875  -4.8950  -4.7895
     0.1987   0.4003   1.1506   1.2071   3.0833   3.4238   3.4960   3.8764
     4.2567   4.6646   4.9942   5.3897   5.5962   5.8509   6.4774   6.6193

     occupation numbers 
     1.0000   1.0000   1.0000   1.0000   1.0000   1.0000   1.0000   1.0000
     1.0000   1.0000   1.0000   1.0000   1.0000   1.0000   1.0000   1.0000
     1.0000   1.0000   1.0000   1.0000   1.0000   1.0000   1.0000   1.0000
     1.0000   1.0000   1.0000   1.0000   1.0000   1.0000   1.0000   1.0000
     1.0000   1.0000   1.0000   1.0000   1.0000   1.0000   1.0000   1.0000

          k = 0.1667 1.2124 0.1586 (  4136 PWs)   bands (ev):

   -13.7623 -13.7608 -13.7596 -13.7582 -13.7461 -13.7444 -13.7427 -13.7415
   -13.7373 -13.7350 -13.7338 -13.7285 -13.7179 -13.7136 -13.7115 -13.7096
   -13.6901 -13.6876 -13.6857 -13.6853  -5.1867  -5.0757  -4.9059  -4.8735
    -0.0332   0.2846   0.5003   0.7509   3.9712   4.4200   4.7927   5.1052
     5.2868   5.3425   5.7412   6.0027   6.3410   6.5337   6.6001   6.7623

     occupation numbers 
     1.0000   1.0000   1.0000   1.0000   1.0000   1.0000   1.0000   1.0000
     1.0000   1.0000   1.0000   1.0000   1.0000   1.0000   1.0000   1.0000
     1.0000   1.0000   1.0000   1.0000   1.0000   1.0000   1.0000   1.0000
     1.0000   1.0000   1.0000   1.0000   1.0000   1.0000   1.0000   1.0000
     1.0000   1.0000   1.0000   1.0000   1.0000   1.0000   1.0000   1.0000

          k = 0.1667 1.2124 0.4758 (  4134 PWs)   bands (ev):

   -13.7648 -13.7634 -13.7612 -13.7601 -13.7464 -13.7445 -13.7416 -13.7409
   -13.7369 -13.7352 -13.7321 -13.7281 -13.7169 -13.7141 -13.7095 -13.7085
   -13.6902 -13.6883 -13.6853 -13.6851  -5.1170  -5.0152  -4.8726  -4.8387
     0.1121   0.4226   0.6277   0.8049   3.7285   3.9230   4.1861   4.4720
     4.6376   5.0914   5.5290   5.7142   5.8340   6.1208   6.5721   6.8403

     occupation numbers 
     1.0000   1.0000   1.0000   1.0000   1.0000   1.0000   1.0000   1.0000
     1.0000   1.0000   1.0000   1.0000   1.0000   1.0000   1.0000   1.0000
     1.0000   1.0000   1.0000   1.0000   1.0000   1.0000   1.0000   1.0000
     1.0000   1.0000   1.0000   1.0000   1.0000   1.0000   1.0000   1.0000
     1.0000   1.0000   1.0000   1.0000   1.0000   1.0000   1.0000   1.0000

          k = 0.1667 1.2124 0.7930 (  4114 PWs)   bands (ev):

   -13.7681 -13.7670 -13.7635 -13.7628 -13.7464 -13.7449 -13.7407 -13.7402
   -13.7360 -13.7349 -13.7303 -13.7277 -13.7153 -13.7138 -13.7074 -13.7070
   -13.6903 -13.6891 -13.6849 -13.6848  -5.0046  -4.9202  -4.8330  -4.7953
     0.3578   0.6355   0.8286   0.8897   3.0829   3.5275   3.6265   3.9728
     4.1895   4.5537   4.8636   5.3273   5.4224   5.6903   6.4284   6.5735

     occupation numbers 
     1.0000   1.0000   1.0000   1.0000   1.0000   1.0000   1.0000   1.0000
     1.0000   1.0000   1.0000   1.0000   1.0000   1.0000   1.0000   1.0000
     1.0000   1.0000   1.0000   1.0000   1.0000   1.0000   1.0000   1.0000
     1.0000   1.0000   1.0000   1.0000   1.0000   1.0000   1.0000   1.0000
     1.0000   1.0000   1.0000   1.0000   1.0000   1.0000   1.0000   1.0000

          k = 0.1667 1.2124 1.1102 (  4101 PWs)   bands (ev):

   -13.7701 -13.7697 -13.7650 -13.7647 -13.7461 -13.7455 -13.7402 -13.7400
   -13.7352 -13.7348 -13.7289 -13.7279 -13.7138 -13.7134 -13.7061 -13.7060
   -13.6902 -13.6897 -13.6847 -13.6847  -4.8968  -4.8479  -4.8136  -4.7814
     0.5974   0.7168   0.9927   1.0237   2.8258   3.0286   3.4057   3.5641
     3.9834   4.0453   4.5334   4.8520   5.3948   5.5859   6.3074   6.3531

     occupation numbers 
     1.0000   1.0000   1.0000   1.0000   1.0000   1.0000   1.0000   1.0000
     1.0000   1.0000   1.0000   1.0000   1.0000   1.0000   1.0000   1.0000
     1.0000   1.0000   1.0000   1.0000   1.0000   1.0000   1.0000   1.0000
     1.0000   1.0000   1.0000   1.0000   1.0000   1.0000   1.0000   1.0000
     1.0000   1.0000   1.0000   1.0000   1.0000   1.0000   1.0000   1.0000

          k =-0.5000 0.1732 0.1586 (  4110 PWs)   bands (ev):

   -13.7646 -13.7646 -13.7540 -13.7540 -13.7513 -13.7513 -13.7449 -13.7449
   -13.7364 -13.7364 -13.7326 -13.7326 -13.7213 -13.7213 -13.7010 -13.7010
   -13.6949 -13.6949 -13.6831 -13.6831  -5.8745  -5.8745  -4.8161  -4.8161
     0.6576   0.6576   2.3102   2.3102   3.6387   3.6387   4.5346   4.5346
     4.9762   4.9762   5.5716   5.5716   5.9161   5.9161   7.0350   7.0350

     occupation numbers 
     1.0000   1.0000   1.0000   1.0000   1.0000   1.0000   1.0000   1.0000
     1.0000   1.0000   1.0000   1.0000   1.0000   1.0000   1.0000   1.0000
     1.0000   1.0000   1.0000   1.0000   1.0000   1.0000   1.0000   1.0000
     1.0000   1.0000   1.0000   1.0000   1.0000   1.0000   1.0000   1.0000
     1.0000   1.0000   1.0000   1.0000   1.0000   1.0000   1.0000   1.0000

          k =-0.5000 0.1732 0.4758 (  4094 PWs)   bands (ev):

   -13.7638 -13.7638 -13.7540 -13.7540 -13.7520 -13.7520 -13.7456 -13.7456
   -13.7363 -13.7363 -13.7303 -13.7303 -13.7210 -13.7210 -13.7010 -13.7010
   -13.6954 -13.6954 -13.6831 -13.6831  -5.7649  -5.7649  -4.8297  -4.8297
     0.3641   0.3641   1.8521   1.8521   3.8513   3.8513   4.5937   4.5937
     5.2784   5.2784   5.7221   5.7221   6.3750   6.3750   6.9326   6.9326

     occupation numbers 
     1.0000   1.0000   1.0000   1.0000   1.0000   1.0000   1.0000   1.0000
     1.0000   1.0000   1.0000   1.0000   1.0000   1.0000   1.0000   1.0000
     1.0000   1.0000   1.0000   1.0000   1.0000   1.0000   1.0000   1.0000
     1.0000   1.0000   1.0000   1.0000   1.0000   1.0000   1.0000   1.0000
     1.0000   1.0000   1.0000   1.0000   1.0000   1.0000   1.0000   1.0000

          k =-0.5000 0.1732 0.7930 (  4108 PWs)   bands (ev):

   -13.7624 -13.7624 -13.7549 -13.7549 -13.7525 -13.7525 -13.7467 -13.7467
   -13.7361 -13.7361 -13.7270 -13.7270 -13.7209 -13.7209 -13.7009 -13.7009
   -13.6962 -13.6962 -13.6832 -13.6832  -5.5708  -5.5708  -4.8864  -4.8864
     0.0220   0.0220   1.3123   1.3123   4.1680   4.1680   4.8731   4.8731
     5.4182   5.4182   5.9505   5.9505   6.5876   6.5876   7.1217   7.1217

     occupation numbers 
     1.0000   1.0000   1.0000   1.0000   1.0000   1.0000   1.0000   1.0000
     1.0000   1.0000   1.0000   1.0000   1.0000   1.0000   1.0000   1.0000
     1.0000   1.0000   1.0000   1.0000   1.0000   1.0000   1.0000   1.0000
     1.0000   1.0000   1.0000   1.0000   1.0000   1.0000   1.0000   1.0000
     1.0000   1.0000   1.0000   1.0000   1.0000   1.0000   1.0000   1.0000

          k =-0.5000 0.1732 1.1102 (  4104 PWs)   bands (ev):

   -13.7610 -13.7610 -13.7561 -13.7561 -13.7527 -13.7527 -13.7475 -13.7475
   -13.7360 -13.7360 -13.7240 -13.7240 -13.7212 -13.7212 -13.7007 -13.7007
   -13.6967 -13.6967 -13.6832 -13.6832  -5.3606  -5.3606  -4.9993  -4.9993
    -0.1740  -0.1740   0.9596   0.9596   4.5779   4.5779   5.1734   5.1734
     5.2535   5.2535   5.7996   5.7996   6.9754   6.9754   7.2516   7.2516

     occupation numbers 
     1.0000   1.0000   1.0000   1.0000   1.0000   1.0000   1.0000   1.0000
     1.0000   1.0000   1.0000   1.0000   1.0000   1.0000   1.0000   1.0000
     1.0000   1.0000   1.0000   1.0000   1.0000   1.0000   1.0000   1.0000
     1.0000   1.0000   1.0000   1.0000   1.0000   1.0000   1.0000   1.0000
     1.0000   1.0000   1.0000   1.0000   1.0000   1.0000   1.0000   1.0000

          k =-0.5000 0.5196 0.1586 (  4110 PWs)   bands (ev):

   -13.7603 -13.7603 -13.7535 -13.7535 -13.7506 -13.7506 -13.7477 -13.7477
   -13.7383 -13.7383 -13.7307 -13.7307 -13.7204 -13.7204 -13.7009 -13.7009
   -13.6957 -13.6957 -13.6835 -13.6835  -5.7234  -5.7234  -4.7806  -4.7806
     0.4851   0.4851   1.8032   1.8032   3.7666   3.7666   4.4134   4.4134
     5.2882   5.2882   5.4686   5.4686   6.1395   6.1395   7.1010   7.1010

     occupation numbers 
     1.0000   1.0000   1.0000   1.0000   1.0000   1.0000   1.0000   1.0000
     1.0000   1.0000   1.0000   1.0000   1.0000   1.0000   1.0000   1.0000
     1.0000   1.0000   1.0000   1.0000   1.0000   1.0000   1.0000   1.0000
     1.0000   1.0000   1.0000   1.0000   1.0000   1.0000   1.0000   1.0000
     1.0000   1.0000   1.0000   1.0000   1.0000   1.0000   1.0000   1.0000

          k =-0.5000 0.5196 0.4758 (  4118 PWs)   bands (ev):

   -13.7604 -13.7604 -13.7547 -13.7547 -13.7504 -13.7504 -13.7480 -13.7480
   -13.7382 -13.7382 -13.7288 -13.7288 -13.7200 -13.7200 -13.7007 -13.7007
   -13.6963 -13.6963 -13.6834 -13.6834  -5.6198  -5.6198  -4.7886  -4.7886
     0.3538   0.3538   1.5883   1.5883   3.7158   3.7158   4.2763   4.2763
     4.9508   4.9508   5.9322   5.9322   6.5242   6.5242   7.0341   7.0341

     occupation numbers 
     1.0000   1.0000   1.0000   1.0000   1.0000   1.0000   1.0000   1.0000
     1.0000   1.0000   1.0000   1.0000   1.0000   1.0000   1.0000   1.0000
     1.0000   1.0000   1.0000   1.0000   1.0000   1.0000   1.0000   1.0000
     1.0000   1.0000   1.0000   1.0000   1.0000   1.0000   1.0000   1.0000
     1.0000   1.0000   1.0000   1.0000   1.0000   1.0000   1.0000   1.0000

          k =-0.5000 0.5196 0.7930 (  4104 PWs)   bands (ev):

   -13.7606 -13.7606 -13.7563 -13.7563 -13.7503 -13.7503 -13.7482 -13.7482
   -13.7380 -13.7380 -13.7261 -13.7261 -13.7193 -13.7193 -13.7003 -13.7003
   -13.6972 -13.6972 -13.6833 -13.6833  -5.4384  -5.4384  -4.8321  -4.8321
     0.1496   0.1496   1.2871   1.2871   3.7095   3.7095   4.4478   4.4478
     4.8044   4.8044   5.9932   5.9932   6.3834   6.3834   6.9936   6.9936

     occupation numbers 
     1.0000   1.0000   1.0000   1.0000   1.0000   1.0000   1.0000   1.0000
     1.0000   1.0000   1.0000   1.0000   1.0000   1.0000   1.0000   1.0000
     1.0000   1.0000   1.0000   1.0000   1.0000   1.0000   1.0000   1.0000
     1.0000   1.0000   1.0000   1.0000   1.0000   1.0000   1.0000   1.0000
     1.0000   1.0000   1.0000   1.0000   1.0000   1.0000   1.0000   1.0000

          k =-0.5000 0.5196 1.1102 (  4106 PWs)   bands (ev):

   -13.7609 -13.7609 -13.7575 -13.7575 -13.7503 -13.7503 -13.7484 -13.7484
   -13.7379 -13.7379 -13.7243 -13.7243 -13.7187 -13.7187 -13.6999 -13.6999
   -13.6979 -13.6979 -13.6832 -13.6832  -5.2453  -5.2453  -4.9260  -4.9260
     0.0056   0.0056   1.0633   1.0633   3.9479   3.9479   4.3467   4.3467
     5.0489   5.0489   5.5918   5.5918   6.2669   6.2669   6.8196   6.8196

     occupation numbers 
     1.0000   1.0000   1.0000   1.0000   1.0000   1.0000   1.0000   1.0000
     1.0000   1.0000   1.0000   1.0000   1.0000   1.0000   1.0000   1.0000
     1.0000   1.0000   1.0000   1.0000   1.0000   1.0000   1.0000   1.0000
     1.0000   1.0000   1.0000   1.0000   1.0000   1.0000   1.0000   1.0000
     1.0000   1.0000   1.0000   1.0000   1.0000   1.0000   1.0000   1.0000

          k =-0.5000 0.8660 0.1586 (  4126 PWs)   bands (ev):

   -13.7600 -13.7600 -13.7553 -13.7553 -13.7478 -13.7478 -13.7459 -13.7459
   -13.7389 -13.7389 -13.7296 -13.7296 -13.7186 -13.7186 -13.7052 -13.7052
   -13.6929 -13.6929 -13.6840 -13.6840  -5.4538  -5.4538  -4.7727  -4.7727
     0.2512   0.2512   1.1010   1.1010   4.0538   4.0538   4.5909   4.5909
     5.4557   5.4557   5.6219   5.6219   6.1633   6.1633   6.9790   6.9790

     occupation numbers 
     1.0000   1.0000   1.0000   1.0000   1.0000   1.0000   1.0000   1.0000
     1.0000   1.0000   1.0000   1.0000   1.0000   1.0000   1.0000   1.0000
     1.0000   1.0000   1.0000   1.0000   1.0000   1.0000   1.0000   1.0000
     1.0000   1.0000   1.0000   1.0000   1.0000   1.0000   1.0000   1.0000
     1.0000   1.0000   1.0000   1.0000   1.0000   1.0000   1.0000   1.0000

          k =-0.5000 0.8660 0.4758 (  4130 PWs)   bands (ev):

   -13.7618 -13.7618 -13.7570 -13.7570 -13.7479 -13.7479 -13.7451 -13.7451
   -13.7383 -13.7383 -13.7286 -13.7286 -13.7178 -13.7178 -13.7049 -13.7049
   -13.6931 -13.6931 -13.6839 -13.6839  -5.3641  -5.3641  -4.7658  -4.7658
     0.3070   0.3070   1.0981   1.0981   3.6075   3.6075   4.3914   4.3914
     4.8682   4.8682   5.8753   5.8753   6.0875   6.0875   6.8736   6.8736

     occupation numbers 
     1.0000   1.0000   1.0000   1.0000   1.0000   1.0000   1.0000   1.0000
     1.0000   1.0000   1.0000   1.0000   1.0000   1.0000   1.0000   1.0000
     1.0000   1.0000   1.0000   1.0000   1.0000   1.0000   1.0000   1.0000
     1.0000   1.0000   1.0000   1.0000   1.0000   1.0000   1.0000   1.0000
     1.0000   1.0000   1.0000   1.0000   1.0000   1.0000   1.0000   1.0000

          k =-0.5000 0.8660 0.7930 (  4124 PWs)   bands (ev):

   -13.7641 -13.7641 -13.7594 -13.7594 -13.7478 -13.7478 -13.7444 -13.7444
   -13.7377 -13.7377 -13.7273 -13.7273 -13.7163 -13.7163 -13.7044 -13.7044
   -13.6935 -13.6935 -13.6837 -13.6837  -5.2116  -5.2116  -4.7775  -4.7775
     0.3415   0.3415   1.1064   1.1064   3.2591   3.2591   4.0604   4.0604
     4.6796   4.6796   5.3508   5.3508   5.9247   5.9247   6.7117   6.7117

     occupation numbers 
     1.0000   1.0000   1.0000   1.0000   1.0000   1.0000   1.0000   1.0000
     1.0000   1.0000   1.0000   1.0000   1.0000   1.0000   1.0000   1.0000
     1.0000   1.0000   1.0000   1.0000   1.0000   1.0000   1.0000   1.0000
     1.0000   1.0000   1.0000   1.0000   1.0000   1.0000   1.0000   1.0000
     1.0000   1.0000   1.0000   1.0000   1.0000   1.0000   1.0000   1.0000

          k =-0.5000 0.8660 1.1102 (  4096 PWs)   bands (ev):

   -13.7657 -13.7657 -13.7611 -13.7611 -13.7476 -13.7476 -13.7441 -13.7441
   -13.7372 -13.7372 -13.7265 -13.7265 -13.7151 -13.7151 -13.7040 -13.7040
   -13.6937 -13.6937 -13.6836 -13.6836  -5.0571  -5.0571  -4.8293  -4.8293
     0.3186   0.3186   1.1348   1.1348   3.2716   3.2716   3.6263   3.6263
     4.6773   4.6773   4.9874   4.9874   5.8711   5.8711   6.3730   6.3730

     occupation numbers 
     1.0000   1.0000   1.0000   1.0000   1.0000   1.0000   1.0000   1.0000
     1.0000   1.0000   1.0000   1.0000   1.0000   1.0000   1.0000   1.0000
     1.0000   1.0000   1.0000   1.0000   1.0000   1.0000   1.0000   1.0000
     1.0000   1.0000   1.0000   1.0000   1.0000   1.0000   1.0000   1.0000
     1.0000   1.0000   1.0000   1.0000   1.0000   1.0000   1.0000   1.0000

          k =-0.5000 1.2124 0.1586 (  4128 PWs)   bands (ev):

   -13.7612 -13.7612 -13.7595 -13.7595 -13.7442 -13.7442 -13.7435 -13.7435
   -13.7356 -13.7356 -13.7314 -13.7314 -13.7153 -13.7153 -13.7107 -13.7107
   -13.6888 -13.6888 -13.6855 -13.6855  -5.1378  -5.1378  -4.8835  -4.8835
     0.2032   0.2032   0.5033   0.5033   4.5190   4.5190   4.8657   4.8657
     5.3575   5.3575   5.5936   5.5936   6.2830   6.2830   6.6329   6.6329

     occupation numbers 
     1.0000   1.0000   1.0000   1.0000   1.0000   1.0000   1.0000   1.0000
     1.0000   1.0000   1.0000   1.0000   1.0000   1.0000   1.0000   1.0000
     1.0000   1.0000   1.0000   1.0000   1.0000   1.0000   1.0000   1.0000
     1.0000   1.0000   1.0000   1.0000   1.0000   1.0000   1.0000   1.0000
     1.0000   1.0000   1.0000   1.0000   1.0000   1.0000   1.0000   1.0000

          k =-0.5000 1.2124 0.4758 (  4134 PWs)   bands (ev):

   -13.7633 -13.7633 -13.7616 -13.7616 -13.7442 -13.7442 -13.7431 -13.7431
   -13.7349 -13.7349 -13.7309 -13.7309 -13.7143 -13.7143 -13.7099 -13.7099
   -13.6889 -13.6889 -13.6855 -13.6855  -5.0725  -5.0725  -4.8496  -4.8496
     0.3367   0.3367   0.6104   0.6104   3.8937   3.8937   4.4140   4.4140
     4.9431   4.9431   5.3848   5.3848   6.0383   6.0383   6.4715   6.4715

     occupation numbers 
     1.0000   1.0000   1.0000   1.0000   1.0000   1.0000   1.0000   1.0000
     1.0000   1.0000   1.0000   1.0000   1.0000   1.0000   1.0000   1.0000
     1.0000   1.0000   1.0000   1.0000   1.0000   1.0000   1.0000   1.0000
     1.0000   1.0000   1.0000   1.0000   1.0000   1.0000   1.0000   1.0000
     1.0000   1.0000   1.0000   1.0000   1.0000   1.0000   1.0000   1.0000

          k =-0.5000 1.2124 0.7930 (  4118 PWs)   bands (ev):

   -13.7662 -13.7662 -13.7645 -13.7645 -13.7443 -13.7443 -13.7428 -13.7428
   -13.7339 -13.7339 -13.7301 -13.7301 -13.7127 -13.7127 -13.7087 -13.7087
   -13.6890 -13.6890 -13.6854 -13.6854  -4.9689  -4.9689  -4.8078  -4.8078
     0.5372   0.5372   0.7949   0.7949   3.3231   3.3231   3.8341   3.8341
     4.3858   4.3858   4.8414   4.8414   5.9256   5.9256   6.2951   6.2951

     occupation numbers 
     1.0000   1.0000   1.0000   1.0000   1.0000   1.0000   1.0000   1.0000
     1.0000   1.0000   1.0000   1.0000   1.0000   1.0000   1.0000   1.0000
     1.0000   1.0000   1.0000   1.0000   1.0000   1.0000   1.0000   1.0000
     1.0000   1.0000   1.0000   1.0000   1.0000   1.0000   1.0000   1.0000
     1.0000   1.0000   1.0000   1.0000   1.0000   1.0000   1.0000   1.0000

          k =-0.5000 1.2124 1.1102 (  4108 PWs)   bands (ev):

   -13.7683 -13.7683 -13.7665 -13.7665 -13.7445 -13.7445 -13.7427 -13.7427
   -13.7332 -13.7332 -13.7296 -13.7296 -13.7114 -13.7114 -13.7078 -13.7078
   -13.6890 -13.6890 -13.6854 -13.6854  -4.8771  -4.8771  -4.7928  -4.7928
     0.6702   0.6702   0.9788   0.9788   3.1202   3.1202   3.3680   3.3680
     4.0207   4.0207   4.3224   4.3224   6.0201   6.0201   6.2052   6.2052

     occupation numbers 
     1.0000   1.0000   1.0000   1.0000   1.0000   1.0000   1.0000   1.0000
     1.0000   1.0000   1.0000   1.0000   1.0000   1.0000   1.0000   1.0000
     1.0000   1.0000   1.0000   1.0000   1.0000   1.0000   1.0000   1.0000
     1.0000   1.0000   1.0000   1.0000   1.0000   1.0000   1.0000   1.0000
     1.0000   1.0000   1.0000   1.0000   1.0000   1.0000   1.0000   1.0000

     highest occupied level (ev):     7.3842

!    total energy              =    -827.74062447 Ry
     estimated scf accuracy    <          5.0E-10 Ry

     The total energy is the sum of the following terms:
     one-electron contribution =    -266.66904541 Ry
     hartree contribution      =     182.49381114 Ry
     xc contribution           =    -308.98874533 Ry
     ewald contribution        =    -434.45694686 Ry
     DFT-D3 Dispersion         =      -0.11969800 Ry

     convergence has been achieved in  12 iterations

     Forces acting on atoms (cartesian axes, Ry/au):

     atom    1 type  2   force =    -0.00026648    0.00000000   -0.00051421
     atom    2 type  1   force =     0.00013608    0.00000000   -0.00008348
     atom    3 type  2   force =     0.00026648   -0.00000000   -0.00051421
     atom    4 type  1   force =    -0.00013608    0.00000000   -0.00008348
     atom    5 type  2   force =    -0.00026648    0.00000000    0.00051421
     atom    6 type  1   force =     0.00013608    0.00000000    0.00008348
     atom    7 type  2   force =     0.00026648    0.00000000    0.00051421
     atom    8 type  1   force =    -0.00013608    0.00000000    0.00008348
     The non-local contrib.  to forces
     atom    1 type  2   force =    -0.10373482    0.00000000    0.11464639
     atom    2 type  1   force =     0.34565760    0.00000000    0.30342378
     atom    3 type  2   force =     0.10373482    0.00000000    0.11464639
     atom    4 type  1   force =    -0.34565760    0.00000000    0.30342378
     atom    5 type  2   force =    -0.10373482    0.00000000   -0.11464639
     atom    6 type  1   force =     0.34565760    0.00000000   -0.30342378
     atom    7 type  2   force =     0.10373482    0.00000000   -0.11464639
     atom    8 type  1   force =    -0.34565760    0.00000000   -0.30342378
     The ionic contribution  to forces
     atom    1 type  2   force =     1.14002588   -0.00000000   -1.31481132
     atom    2 type  1   force =    -0.60762185   -0.00000000   -0.75037853
     atom    3 type  2   force =    -1.14002588    0.00000000   -1.31481132
     atom    4 type  1   force =     0.60762185   -0.00000000   -0.75037853
     atom    5 type  2   force =     1.14002588    0.00000000    1.31481132
     atom    6 type  1   force =    -0.60762185   -0.00000000    0.75037853
     atom    7 type  2   force =    -1.14002588   -0.00000000    1.31481132
     atom    8 type  1   force =     0.60762185   -0.00000000    0.75037853
     The local contribution  to forces
     atom    1 type  2   force =    -1.04766654    0.00000000    1.21087427
     atom    2 type  1   force =     0.26904487    0.00000000    0.45090501
     atom    3 type  2   force =     1.04766654    0.00000000    1.21087427
     atom    4 type  1   force =    -0.26904487    0.00000000    0.45090501
     atom    5 type  2   force =    -1.04766654    0.00000000   -1.21087427
     atom    6 type  1   force =     0.26904487    0.00000000   -0.45090501
     atom    7 type  2   force =     1.04766654    0.00000000   -1.21087427
     atom    8 type  1   force =    -0.26904487    0.00000000   -0.45090501
     The core correction contribution to forces
     atom    1 type  2   force =     0.01178342    0.00000000   -0.01288801
     atom    2 type  1   force =    -0.00633695    0.00000000   -0.00501173
     atom    3 type  2   force =    -0.01178342   -0.00000000   -0.01288801
     atom    4 type  1   force =     0.00633695    0.00000000   -0.00501173
     atom    5 type  2   force =     0.01178342   -0.00000000    0.01288801
     atom    6 type  1   force =    -0.00633695    0.00000000    0.00501173
     atom    7 type  2   force =    -0.01178342   -0.00000000    0.01288801
     atom    8 type  1   force =     0.00633695   -0.00000000    0.00501173
     The Hubbard contrib.    to forces
     atom    1 type  2   force =     0.00000000    0.00000000    0.00000000
     atom    2 type  1   force =     0.00000000    0.00000000    0.00000000
     atom    3 type  2   force =     0.00000000    0.00000000    0.00000000
     atom    4 type  1   force =     0.00000000    0.00000000    0.00000000
     atom    5 type  2   force =     0.00000000    0.00000000    0.00000000
     atom    6 type  1   force =     0.00000000    0.00000000    0.00000000
     atom    7 type  2   force =     0.00000000    0.00000000    0.00000000
     atom    8 type  1   force =     0.00000000    0.00000000    0.00000000
     The SCF correction term to forces
     atom    1 type  2   force =    -0.00000116   -0.00000000   -0.00000190
     atom    2 type  1   force =     0.00001423    0.00000000    0.00000612
     atom    3 type  2   force =     0.00000116   -0.00000000   -0.00000190
     atom    4 type  1   force =    -0.00001423    0.00000000    0.00000612
     atom    5 type  2   force =    -0.00000116    0.00000000    0.00000190
     atom    6 type  1   force =     0.00001423   -0.00000000   -0.00000612
     atom    7 type  2   force =     0.00000116    0.00000000    0.00000190
     atom    8 type  1   force =    -0.00001423   -0.00000000   -0.00000612

     DFT-D3 dispersion contribution to forces:
     atom    1 type  2   force =    -0.00067327   -0.00000000    0.00166637
     atom    2 type  1   force =    -0.00062182    0.00000000    0.00097188
     atom    3 type  2   force =     0.00067327    0.00000000    0.00166637
     atom    4 type  1   force =     0.00062182   -0.00000000    0.00097188
     atom    5 type  2   force =    -0.00067327    0.00000000   -0.00166637
     atom    6 type  1   force =    -0.00062182    0.00000000   -0.00097188
     atom    7 type  2   force =     0.00067327   -0.00000000   -0.00166637
     atom    8 type  1   force =     0.00062182   -0.00000000   -0.00097188

     Total force =     0.001202     Total SCF correction =     0.000031

     DFT-D3 dispersion Force =     0.004271

     Writing all to output data dir ./tmp/SnSe_pnma.save/ :
     XML data file, charge density, pseudopotentials, collected wavefunctions
 
     init_run     :      1.17s CPU      1.29s WALL (       1 calls)
     electrons    :     24.51s CPU     26.35s WALL (       1 calls)
     forces       :      0.47s CPU      0.55s WALL (       1 calls)
     force_dftd3  :      0.05s CPU      0.05s WALL (       1 calls)

     Called by init_run:
     wfcinit      :      0.67s CPU      0.70s WALL (       1 calls)
     wfcinit:atom :      0.01s CPU      0.01s WALL (      11 calls)
     wfcinit:wfcr :      0.60s CPU      0.62s WALL (      11 calls)
     potinit      :      0.09s CPU      0.11s WALL (       1 calls)
     hinit0       :      0.19s CPU      0.20s WALL (       1 calls)

     Called by electrons:
     c_bands      :     18.04s CPU     18.29s WALL (      12 calls)
     sum_band     :      4.21s CPU      5.00s WALL (      12 calls)
     v_of_rho     :      0.77s CPU      0.80s WALL (      13 calls)
     v_h          :      0.05s CPU      0.05s WALL (      13 calls)
     v_xc         :      0.77s CPU      0.81s WALL (      14 calls)
     newd         :      1.52s CPU      2.32s WALL (      13 calls)
     mix_rho      :      0.08s CPU      0.09s WALL (      12 calls)
     energy_dftd3 :      0.04s CPU      0.04s WALL (       1 calls)

     Called by c_bands:
     init_us_2    :      0.56s CPU      0.58s WALL (     286 calls)
     cegterg      :     15.50s CPU     15.66s WALL (     132 calls)

     Called by sum_band:
     sum_band:wei :      0.00s CPU      0.00s WALL (      12 calls)
     sum_band:loo :      2.48s CPU      2.51s WALL (      12 calls)
     sum_band:buf :      0.04s CPU      0.04s WALL (     132 calls)
     sum_band:ini :      0.26s CPU      0.26s WALL (     132 calls)
     sum_band:cal :      0.36s CPU      0.37s WALL (     132 calls)
     sum_band:bec :      0.01s CPU      0.01s WALL (     132 calls)
     addusdens    :      1.55s CPU      2.21s WALL (      12 calls)
                                        0.00s GPU  (      12 calls)
     addusd:skk   :      0.01s CPU      0.01s WALL (      24 calls)
                                        0.00s GPU  (      24 calls)

     Called by *egterg:
     cdiaghg      :      0.90s CPU      0.91s WALL (     587 calls)
     cegterg:over :      0.86s CPU      0.87s WALL (     455 calls)
     cegterg:upda :      0.48s CPU      0.48s WALL (     455 calls)
     cegterg:last :      1.07s CPU      1.07s WALL (     312 calls)
     h_psi        :     11.04s CPU     11.19s WALL (     598 calls)
     s_psi        :      1.17s CPU      1.18s WALL (     598 calls)
     g_psi        :      0.05s CPU      0.05s WALL (     455 calls)

     Called by h_psi:
     h_psi:calbec :      1.16s CPU      1.18s WALL (     598 calls)
     vloc_psi     :      8.55s CPU      8.68s WALL (     598 calls)
     add_vuspsi   :      1.22s CPU      1.23s WALL (     598 calls)

     General routines
     calbec       :      1.65s CPU      1.67s WALL (     774 calls)
     fft          :      0.34s CPU      0.35s WALL (     178 calls)
     ffts         :      0.01s CPU      0.02s WALL (      25 calls)
     fftw         :      6.87s CPU      6.98s WALL (   36962 calls)
     interpolate  :      0.03s CPU      0.04s WALL (      13 calls)
 
     Parallel routines
 
     PWSCF        :     26.35s CPU     28.80s WALL

 
   This run was terminated on:  14:43:54  20May2026            

=------------------------------------------------------------------------------=
   JOB DONE.
=------------------------------------------------------------------------------=
