
     Program PWSCF v.7.3.1 starts on 20May2026 at 14:50:53 

     This program is part of the open-source Quantum ESPRESSO suite
     for quantum simulation of materials; please cite
         "P. Giannozzi et al., J. Phys.:Condens. Matter 21 395502 (2009);
         "P. Giannozzi et al., J. Phys.:Condens. Matter 29 465901 (2017);
         "P. Giannozzi et al., J. Chem. Phys. 152 154105 (2020);
          URL http://www.quantum-espresso.org", 
     in publications or presentations arising from this work. More details at
     http://www.quantum-espresso.org/quote

     Parallel version (MPI & OpenMP), running on       6 processor cores
     Number of MPI processes:                 6
     Threads/MPI process:                     1

     MPI processes distributed on     1 nodes
     10768 MiB available memory on the printing compute node when the environment starts
 
     Waiting for input...
     Reading input from standard input

     Current dimensions of program PWSCF are:
     Max number of different atomic species (ntypx) = 10
     Max number of k-points (npk) =  40000
     Max angular momentum in pseudopotentials (lmaxx) =  4
 
     K-points division:     npool     =       3
     R & G space division:  proc/nbgrp/npool/nimage =       2
     Subspace diagonalization in iterative solution of the eigenvalue problem:
     a serial algorithm will be used

 
     Parallelization info
     --------------------
     sticks:   dense  smooth     PW     G-vecs:    dense   smooth      PW
     Min        2022     808    243                63919    16155    2617
     Max        2023     809    244                63920    16156    2618
     Sum        4045    1617    487               127839    32311    5235
 
     Using Slab Decomposition
 


     bravais-lattice index     =            8
     lattice parameter (alat)  =      21.4673  a.u.
     unit-cell volume          =    1456.7761 (a.u.)^3
     number of atoms/cell      =            8
     number of atomic types    =            2
     number of electrons       =        80.00
     number of Kohn-Sham states=           40
     kinetic-energy cutoff     =      30.0000  Ry
     charge density cutoff     =     300.0000  Ry
     scf convergence threshold =      1.0E-08
     mixing beta               =       0.7000
     number of iterations used =            8  plain     mixing
     Exchange-correlation= SLA  PW   PBE  PBE
                           (   1   4   3   4   0   0   0)

     celldm(1)=  21.467289  celldm(2)=   0.367201  celldm(3)=   0.401012
     celldm(4)=   0.000000  celldm(5)=   0.000000  celldm(6)=   0.000000

     crystal axes: (cart. coord. in units of alat)
               a(1) = (   1.000000   0.000000   0.000000 )  
               a(2) = (   0.000000   0.367201   0.000000 )  
               a(3) = (   0.000000   0.000000   0.401012 )  

     reciprocal axes: (cart. coord. in units 2 pi/alat)
               b(1) = (  1.000000  0.000000  0.000000 )  
               b(2) = (  0.000000  2.723306  0.000000 )  
               b(3) = (  0.000000  0.000000  2.493689 )  


     PseudoPot. # 1 for Sn read from file:
     ../pseudo/Sn_pbe_v1.uspp.F.UPF
     MD5 check sum: 4cf58ce39ec5d5d420df3dd08604eb00
     Pseudo is Ultrasoft + core correction, Zval = 14.0
     Generated by new atomic code, or converted to UPF format
     Using radial grid of  891 points,  6 beta functions with: 
                l(1) =   0
                l(2) =   0
                l(3) =   1
                l(4) =   1
                l(5) =   2
                l(6) =   2
     Q(r) pseudized with  6 coefficients,  rinner =    1.200   1.200   1.200
                                                       1.200   1.200

     PseudoPot. # 2 for Se read from file:
     ../pseudo/Se_pbe_v1.uspp.F.UPF
     MD5 check sum: 1b3568f3a8ae88f9a2a0ad0698632c85
     Pseudo is Ultrasoft + core correction, Zval =  6.0
     Generated by new atomic code, or converted to UPF format
     Using radial grid of  877 points,  6 beta functions with: 
                l(1) =   0
                l(2) =   0
                l(3) =   1
                l(4) =   1
                l(5) =   2
                l(6) =   2
     Q(r) pseudized with  8 coefficients,  rinner =    1.300   1.300   1.300
                                                       1.300   1.300

     atomic species   valence    mass     pseudopotential
     Sn               14.00   118.71000     Sn( 1.00)
     Se                6.00    78.97100     Se( 1.00)

      8 Sym. Ops., with inversion, found ( 6 have fractional translation)


                                    s                        frac. trans.

      isym =  1     identity                                     

 cryst.   s( 1) = (     1          0          0      )
                  (     0          1          0      )
                  (     0          0          1      )

 cart.    s( 1) = (  1.0000000  0.0000000  0.0000000 )
                  (  0.0000000  1.0000000  0.0000000 )
                  (  0.0000000  0.0000000  1.0000000 )


      isym =  2     180 deg rotation - cart. axis [0,0,1]        

 cryst.   s( 2) = (    -1          0          0      )    f =(  0.5000000 )
                  (     0         -1          0      )       (  0.0000000 )
                  (     0          0          1      )       ( -0.5000000 )

 cart.    s( 2) = ( -1.0000000  0.0000000  0.0000000 )    f =(  0.5000000 )
                  (  0.0000000 -1.0000000  0.0000000 )       (  0.0000000 )
                  (  0.0000000  0.0000000  1.0000000 )       ( -0.2005062 )


      isym =  3     180 deg rotation - cart. axis [0,1,0]        

 cryst.   s( 3) = (    -1          0          0      )    f =( -0.0000000 )
                  (     0          1          0      )       ( -0.5000000 )
                  (     0          0         -1      )       ( -0.0000000 )

 cart.    s( 3) = ( -1.0000000  0.0000000  0.0000000 )    f =( -0.0000000 )
                  (  0.0000000  1.0000000  0.0000000 )       ( -0.1836004 )
                  (  0.0000000  0.0000000 -1.0000000 )       ( -0.0000000 )


      isym =  4     180 deg rotation - cart. axis [1,0,0]        

 cryst.   s( 4) = (     1          0          0      )    f =(  0.5000000 )
                  (     0         -1          0      )       (  0.5000000 )
                  (     0          0         -1      )       (  0.5000000 )

 cart.    s( 4) = (  1.0000000  0.0000000  0.0000000 )    f =(  0.5000000 )
                  (  0.0000000 -1.0000000  0.0000000 )       (  0.1836004 )
                  (  0.0000000  0.0000000 -1.0000000 )       (  0.2005062 )


      isym =  5     inversion                                    

 cryst.   s( 5) = (    -1          0          0      )
                  (     0         -1          0      )
                  (     0          0         -1      )

 cart.    s( 5) = ( -1.0000000  0.0000000  0.0000000 )
                  (  0.0000000 -1.0000000  0.0000000 )
                  (  0.0000000  0.0000000 -1.0000000 )


      isym =  6     inv. 180 deg rotation - cart. axis [0,0,1]   

 cryst.   s( 6) = (     1          0          0      )    f =(  0.5000000 )
                  (     0          1          0      )       (  0.0000000 )
                  (     0          0         -1      )       (  0.5000000 )

 cart.    s( 6) = (  1.0000000  0.0000000  0.0000000 )    f =(  0.5000000 )
                  (  0.0000000  1.0000000  0.0000000 )       (  0.0000000 )
                  (  0.0000000  0.0000000 -1.0000000 )       (  0.2005062 )


      isym =  7     inv. 180 deg rotation - cart. axis [0,1,0]   

 cryst.   s( 7) = (     1          0          0      )    f =(  0.0000000 )
                  (     0         -1          0      )       (  0.5000000 )
                  (     0          0          1      )       (  0.0000000 )

 cart.    s( 7) = (  1.0000000  0.0000000  0.0000000 )    f =(  0.0000000 )
                  (  0.0000000 -1.0000000  0.0000000 )       (  0.1836004 )
                  (  0.0000000  0.0000000  1.0000000 )       (  0.0000000 )


      isym =  8     inv. 180 deg rotation - cart. axis [1,0,0]   

 cryst.   s( 8) = (    -1          0          0      )    f =(  0.5000000 )
                  (     0          1          0      )       ( -0.5000000 )
                  (     0          0          1      )       ( -0.5000000 )

 cart.    s( 8) = ( -1.0000000  0.0000000  0.0000000 )    f =(  0.5000000 )
                  (  0.0000000  1.0000000  0.0000000 )       ( -0.1836004 )
                  (  0.0000000  0.0000000  1.0000000 )       ( -0.2005062 )


     point group D_2h (mmm) 
     there are  8 classes
     the character table:

       E     C2    C2'   C2''  i     s_v   s_v'  s_v''
A_g    1.00  1.00  1.00  1.00  1.00  1.00  1.00  1.00
B_1g   1.00  1.00 -1.00 -1.00  1.00  1.00 -1.00 -1.00
B_2g   1.00 -1.00  1.00 -1.00  1.00 -1.00  1.00 -1.00
B_3g   1.00 -1.00 -1.00  1.00  1.00 -1.00 -1.00  1.00
A_u    1.00  1.00  1.00  1.00 -1.00 -1.00 -1.00 -1.00
B_1u   1.00  1.00 -1.00 -1.00 -1.00 -1.00  1.00  1.00
B_2u   1.00 -1.00  1.00 -1.00 -1.00  1.00 -1.00  1.00
B_3u   1.00 -1.00 -1.00  1.00 -1.00  1.00  1.00 -1.00

     the symmetry operations in each class and the name of the first element:

     E        1
          identity                                               
     C2       2
          180 deg rotation - cart. axis [0,0,1]                  
     C2'      4
          180 deg rotation - cart. axis [1,0,0]                  
     C2''     3
          180 deg rotation - cart. axis [0,1,0]                  
     i        5
          inversion                                              
     s_v      6
          inv. 180 deg rotation - cart. axis [0,0,1]             
     s_v'     8
          inv. 180 deg rotation - cart. axis [1,0,0]             
     s_v''    7
          inv. 180 deg rotation - cart. axis [0,1,0]             

   Cartesian axes

     site n.     atom                  positions (alat units)
         1        Se     tau(   1) = (   0.8549563   0.0918002   0.1937884  )
         2        Sn     tau(   2) = (   0.1165395   0.0918002   0.0450285  )
         3        Se     tau(   3) = (   0.6450437   0.2754005   0.3942946  )
         4        Sn     tau(   4) = (   0.3834605   0.2754005   0.2455346  )
         5        Se     tau(   5) = (   0.3549563   0.0918002   0.0067177  )
         6        Sn     tau(   6) = (   0.6165395   0.0918002   0.1554777  )
         7        Se     tau(   7) = (   0.1450437   0.2754005   0.2072239  )
         8        Sn     tau(   8) = (   0.8834605   0.2754005   0.3559838  )

     --------------------------------------------
     DFT-D3 Dispersion Correction (3-body terms):
     --------------------------------------------
       Reference C6 values for interpolation: 

         atom   Coordination number   C6
         Se         0.000           427.35
         Se         0.990           427.57
         Se         1.981           421.05
         Sn         0.000          1255.14
         Sn         0.951          1084.09
         Sn         1.950          1010.83
         Sn         2.926           818.29
         Sn         3.912           672.20

       Values used:

         atom   Coordination number  R0_AB[au]  C6      C8
         Se         3.483            3.332    421.05  29958.36
         Sn         4.239            3.957    672.41  84395.49
         Se         3.483            3.332    421.05  29958.36
         Sn         4.239            3.957    672.41  84395.49
         Se         3.483            3.332    421.05  29958.36
         Sn         4.239            3.957    672.41  84395.49
         Se         3.483            3.332    421.05  29958.36
         Sn         4.239            3.957    672.41  84395.49

         Molecular C6 ( Ry / a.u.^6 ) =     34502.20


   Crystallographic axes

     site n.     atom                  positions (cryst. coord.)
         1        Se     tau(   1) = (  0.8549563  0.2500000  0.4832481  )
         2        Sn     tau(   2) = (  0.1165395  0.2500000  0.1122870  )
         3        Se     tau(   3) = (  0.6450437  0.7500000  0.9832481  )
         4        Sn     tau(   4) = (  0.3834605  0.7500000  0.6122870  )
         5        Se     tau(   5) = (  0.3549563  0.2500000  0.0167519  )
         6        Sn     tau(   6) = (  0.6165395  0.2500000  0.3877130  )
         7        Se     tau(   7) = (  0.1450437  0.7500000  0.5167519  )
         8        Sn     tau(   8) = (  0.8834605  0.7500000  0.8877130  )

     number of k points=    32
                       cart. coord. in units 2pi/alat
        k(    1) = (   0.1666667   0.1702066   0.1558556), wk =   0.0833333
        k(    2) = (   0.1666667   0.1702066   0.4675667), wk =   0.0833333
        k(    3) = (   0.1666667   0.1702066   0.7792778), wk =   0.0833333
        k(    4) = (   0.1666667   0.1702066   1.0909889), wk =   0.0833333
        k(    5) = (   0.1666667   0.5106199   0.1558556), wk =   0.0833333
        k(    6) = (   0.1666667   0.5106199   0.4675667), wk =   0.0833333
        k(    7) = (   0.1666667   0.5106199   0.7792778), wk =   0.0833333
        k(    8) = (   0.1666667   0.5106199   1.0909889), wk =   0.0833333
        k(    9) = (   0.1666667   0.8510332   0.1558556), wk =   0.0833333
        k(   10) = (   0.1666667   0.8510332   0.4675667), wk =   0.0833333
        k(   11) = (   0.1666667   0.8510332   0.7792778), wk =   0.0833333
        k(   12) = (   0.1666667   0.8510332   1.0909889), wk =   0.0833333
        k(   13) = (   0.1666667   1.1914465   0.1558556), wk =   0.0833333
        k(   14) = (   0.1666667   1.1914465   0.4675667), wk =   0.0833333
        k(   15) = (   0.1666667   1.1914465   0.7792778), wk =   0.0833333
        k(   16) = (   0.1666667   1.1914465   1.0909889), wk =   0.0833333
        k(   17) = (  -0.5000000   0.1702066   0.1558556), wk =   0.0416667
        k(   18) = (  -0.5000000   0.1702066   0.4675667), wk =   0.0416667
        k(   19) = (  -0.5000000   0.1702066   0.7792778), wk =   0.0416667
        k(   20) = (  -0.5000000   0.1702066   1.0909889), wk =   0.0416667
        k(   21) = (  -0.5000000   0.5106199   0.1558556), wk =   0.0416667
        k(   22) = (  -0.5000000   0.5106199   0.4675667), wk =   0.0416667
        k(   23) = (  -0.5000000   0.5106199   0.7792778), wk =   0.0416667
        k(   24) = (  -0.5000000   0.5106199   1.0909889), wk =   0.0416667
        k(   25) = (  -0.5000000   0.8510332   0.1558556), wk =   0.0416667
        k(   26) = (  -0.5000000   0.8510332   0.4675667), wk =   0.0416667
        k(   27) = (  -0.5000000   0.8510332   0.7792778), wk =   0.0416667
        k(   28) = (  -0.5000000   0.8510332   1.0909889), wk =   0.0416667
        k(   29) = (  -0.5000000   1.1914465   0.1558556), wk =   0.0416667
        k(   30) = (  -0.5000000   1.1914465   0.4675667), wk =   0.0416667
        k(   31) = (  -0.5000000   1.1914465   0.7792778), wk =   0.0416667
        k(   32) = (  -0.5000000   1.1914465   1.0909889), wk =   0.0416667

                       cryst. coord.
        k(    1) = (   0.1666667   0.0625000   0.0625000), wk =   0.0833333
        k(    2) = (   0.1666667   0.0625000   0.1875000), wk =   0.0833333
        k(    3) = (   0.1666667   0.0625000   0.3125000), wk =   0.0833333
        k(    4) = (   0.1666667   0.0625000   0.4375000), wk =   0.0833333
        k(    5) = (   0.1666667   0.1875000   0.0625000), wk =   0.0833333
        k(    6) = (   0.1666667   0.1875000   0.1875000), wk =   0.0833333
        k(    7) = (   0.1666667   0.1875000   0.3125000), wk =   0.0833333
        k(    8) = (   0.1666667   0.1875000   0.4375000), wk =   0.0833333
        k(    9) = (   0.1666667   0.3125000   0.0625000), wk =   0.0833333
        k(   10) = (   0.1666667   0.3125000   0.1875000), wk =   0.0833333
        k(   11) = (   0.1666667   0.3125000   0.3125000), wk =   0.0833333
        k(   12) = (   0.1666667   0.3125000   0.4375000), wk =   0.0833333
        k(   13) = (   0.1666667   0.4375000   0.0625000), wk =   0.0833333
        k(   14) = (   0.1666667   0.4375000   0.1875000), wk =   0.0833333
        k(   15) = (   0.1666667   0.4375000   0.3125000), wk =   0.0833333
        k(   16) = (   0.1666667   0.4375000   0.4375000), wk =   0.0833333
        k(   17) = (  -0.5000000   0.0625000   0.0625000), wk =   0.0416667
        k(   18) = (  -0.5000000   0.0625000   0.1875000), wk =   0.0416667
        k(   19) = (  -0.5000000   0.0625000   0.3125000), wk =   0.0416667
        k(   20) = (  -0.5000000   0.0625000   0.4375000), wk =   0.0416667
        k(   21) = (  -0.5000000   0.1875000   0.0625000), wk =   0.0416667
        k(   22) = (  -0.5000000   0.1875000   0.1875000), wk =   0.0416667
        k(   23) = (  -0.5000000   0.1875000   0.3125000), wk =   0.0416667
        k(   24) = (  -0.5000000   0.1875000   0.4375000), wk =   0.0416667
        k(   25) = (  -0.5000000   0.3125000   0.0625000), wk =   0.0416667
        k(   26) = (  -0.5000000   0.3125000   0.1875000), wk =   0.0416667
        k(   27) = (  -0.5000000   0.3125000   0.3125000), wk =   0.0416667
        k(   28) = (  -0.5000000   0.3125000   0.4375000), wk =   0.0416667
        k(   29) = (  -0.5000000   0.4375000   0.0625000), wk =   0.0416667
        k(   30) = (  -0.5000000   0.4375000   0.1875000), wk =   0.0416667
        k(   31) = (  -0.5000000   0.4375000   0.3125000), wk =   0.0416667
        k(   32) = (  -0.5000000   0.4375000   0.4375000), wk =   0.0416667

     Dense  grid:   127839 G-vectors     FFT dimensions: ( 120,  48,  48)

     Smooth grid:    32311 G-vectors     FFT dimensions: (  80,  30,  32)

     Dynamical RAM for                 wfc:       1.23 MB

     Dynamical RAM for     wfc (w. buffer):      14.80 MB

     Dynamical RAM for           str. fact:       1.95 MB

     Dynamical RAM for           local pot:       0.00 MB

     Dynamical RAM for          nlocal pot:       4.44 MB

     Dynamical RAM for                qrad:       2.78 MB

     Dynamical RAM for          rho,v,vnew:       6.09 MB

     Dynamical RAM for               rhoin:       2.03 MB

     Dynamical RAM for            rho*nmix:      15.61 MB

     Dynamical RAM for           G-vectors:       3.78 MB

     Dynamical RAM for          h,s,v(r/c):       0.29 MB

     Dynamical RAM for          <psi|beta>:       0.09 MB

     Dynamical RAM for                 psi:       2.47 MB

     Dynamical RAM for                hpsi:       2.47 MB

     Dynamical RAM for                spsi:       2.47 MB

     Dynamical RAM for      wfcinit/wfcrot:       3.27 MB

     Dynamical RAM for           addusdens:      62.42 MB

     Dynamical RAM for          addusforce:      64.22 MB

     Estimated static dynamical RAM per process >      44.08 MB

     Estimated max dynamical RAM per process >     123.90 MB

     Estimated total dynamical RAM >     681.01 MB

     Initial potential from superposition of free atoms

     starting charge      75.9995, renormalised to      80.0000
     Starting wfcs are   52 randomized atomic wfcs

     total cpu time spent up to now is        1.5 secs

     Self-consistent Calculation

     iteration #  1     ecut=    30.00 Ry     beta= 0.70
     Davidson diagonalization with overlap

---- Real-time Memory Report at c_bands before calling an iterative solver
           204 MiB given to the printing process from OS
             0 MiB allocation reported by mallinfo(arena+hblkhd)
         10322 MiB available memory on the node where the printing process lives
------------------
     ethr =  1.00E-02,  avg # of iterations =  2.0

     total cpu time spent up to now is        3.4 secs

     total energy              =    -826.61617228 Ry
     estimated scf accuracy    <       2.68948195 Ry

     iteration #  2     ecut=    30.00 Ry     beta= 0.70
     Davidson diagonalization with overlap

---- Real-time Memory Report at c_bands before calling an iterative solver
           253 MiB given to the printing process from OS
             0 MiB allocation reported by mallinfo(arena+hblkhd)
          9851 MiB available memory on the node where the printing process lives
------------------
     ethr =  3.36E-03,  avg # of iterations =  3.0

     total cpu time spent up to now is        5.7 secs

     total energy              =    -827.53072890 Ry
     estimated scf accuracy    <       0.98433910 Ry

     iteration #  3     ecut=    30.00 Ry     beta= 0.70
     Davidson diagonalization with overlap

---- Real-time Memory Report at c_bands before calling an iterative solver
           273 MiB given to the printing process from OS
             0 MiB allocation reported by mallinfo(arena+hblkhd)
          9751 MiB available memory on the node where the printing process lives
------------------
     ethr =  1.23E-03,  avg # of iterations =  2.5

     total cpu time spent up to now is        7.5 secs

     total energy              =    -827.73095980 Ry
     estimated scf accuracy    <       0.00929468 Ry

     iteration #  4     ecut=    30.00 Ry     beta= 0.70
     Davidson diagonalization with overlap

---- Real-time Memory Report at c_bands before calling an iterative solver
           275 MiB given to the printing process from OS
             0 MiB allocation reported by mallinfo(arena+hblkhd)
          9744 MiB available memory on the node where the printing process lives
------------------
     ethr =  1.16E-05,  avg # of iterations =  5.0

     total cpu time spent up to now is       10.0 secs

     total energy              =    -827.73698847 Ry
     estimated scf accuracy    <       0.00513508 Ry

     iteration #  5     ecut=    30.00 Ry     beta= 0.70
     Davidson diagonalization with overlap

---- Real-time Memory Report at c_bands before calling an iterative solver
           277 MiB given to the printing process from OS
             0 MiB allocation reported by mallinfo(arena+hblkhd)
          9743 MiB available memory on the node where the printing process lives
------------------
     ethr =  6.42E-06,  avg # of iterations =  3.1

     total cpu time spent up to now is       12.0 secs

     total energy              =    -827.73863402 Ry
     estimated scf accuracy    <       0.00078471 Ry

     iteration #  6     ecut=    30.00 Ry     beta= 0.70
     Davidson diagonalization with overlap

---- Real-time Memory Report at c_bands before calling an iterative solver
           280 MiB given to the printing process from OS
             0 MiB allocation reported by mallinfo(arena+hblkhd)
          9740 MiB available memory on the node where the printing process lives
------------------
     ethr =  9.81E-07,  avg # of iterations =  2.0

     total cpu time spent up to now is       13.7 secs

     total energy              =    -827.73865081 Ry
     estimated scf accuracy    <       0.00017409 Ry

     iteration #  7     ecut=    30.00 Ry     beta= 0.70
     Davidson diagonalization with overlap

---- Real-time Memory Report at c_bands before calling an iterative solver
           282 MiB given to the printing process from OS
             0 MiB allocation reported by mallinfo(arena+hblkhd)
          9740 MiB available memory on the node where the printing process lives
------------------
     ethr =  2.18E-07,  avg # of iterations =  2.8

     total cpu time spent up to now is       15.6 secs

     total energy              =    -827.73868297 Ry
     estimated scf accuracy    <       0.00000568 Ry

     iteration #  8     ecut=    30.00 Ry     beta= 0.70
     Davidson diagonalization with overlap

---- Real-time Memory Report at c_bands before calling an iterative solver
           283 MiB given to the printing process from OS
             0 MiB allocation reported by mallinfo(arena+hblkhd)
          9736 MiB available memory on the node where the printing process lives
------------------
     ethr =  7.10E-09,  avg # of iterations =  5.9

     total cpu time spent up to now is       18.5 secs

     total energy              =    -827.73869074 Ry
     estimated scf accuracy    <       0.00000455 Ry

     iteration #  9     ecut=    30.00 Ry     beta= 0.70
     Davidson diagonalization with overlap

---- Real-time Memory Report at c_bands before calling an iterative solver
           285 MiB given to the printing process from OS
             0 MiB allocation reported by mallinfo(arena+hblkhd)
          9735 MiB available memory on the node where the printing process lives
------------------
     ethr =  5.69E-09,  avg # of iterations =  2.2

     total cpu time spent up to now is       20.2 secs

     total energy              =    -827.73869140 Ry
     estimated scf accuracy    <       0.00000013 Ry

     iteration # 10     ecut=    30.00 Ry     beta= 0.70
     Davidson diagonalization with overlap

---- Real-time Memory Report at c_bands before calling an iterative solver
           287 MiB given to the printing process from OS
             0 MiB allocation reported by mallinfo(arena+hblkhd)
          9734 MiB available memory on the node where the printing process lives
------------------
     ethr =  1.58E-10,  avg # of iterations =  4.7

     total cpu time spent up to now is       22.5 secs

     total energy              =    -827.73869148 Ry
     estimated scf accuracy    <       0.00000001 Ry

     iteration # 11     ecut=    30.00 Ry     beta= 0.70
     Davidson diagonalization with overlap

---- Real-time Memory Report at c_bands before calling an iterative solver
           290 MiB given to the printing process from OS
             0 MiB allocation reported by mallinfo(arena+hblkhd)
          9730 MiB available memory on the node where the printing process lives
------------------
     ethr =  1.82E-11,  avg # of iterations =  3.9

     total cpu time spent up to now is       24.5 secs

     End of self-consistent calculation

          k = 0.1667 0.1702 0.1559 (  4040 PWs)   bands (ev):

   -13.5402 -13.5304 -13.5264 -13.5239 -13.5231 -13.5213 -13.5172 -13.5138
   -13.5103 -13.5043 -13.5040 -13.5030 -13.4920 -13.4865 -13.4692 -13.4675
   -13.4614 -13.4609 -13.4508 -13.4446  -5.8738  -5.5762  -4.8470  -4.4400
     0.4714   1.3461   2.2464   2.5998   3.1264   4.3613   4.4949   4.7715
     5.0338   5.1238   5.6954   6.0237   6.2737   6.7035   7.0400   7.3385

     occupation numbers 
     1.0000   1.0000   1.0000   1.0000   1.0000   1.0000   1.0000   1.0000
     1.0000   1.0000   1.0000   1.0000   1.0000   1.0000   1.0000   1.0000
     1.0000   1.0000   1.0000   1.0000   1.0000   1.0000   1.0000   1.0000
     1.0000   1.0000   1.0000   1.0000   1.0000   1.0000   1.0000   1.0000
     1.0000   1.0000   1.0000   1.0000   1.0000   1.0000   1.0000   1.0000

          k = 0.1667 0.1702 0.4676 (  4033 PWs)   bands (ev):

   -13.5388 -13.5298 -13.5264 -13.5251 -13.5228 -13.5225 -13.5178 -13.5148
   -13.5095 -13.5042 -13.5018 -13.5005 -13.4915 -13.4870 -13.4695 -13.4667
   -13.4624 -13.4615 -13.4503 -13.4451  -5.7564  -5.4686  -4.8478  -4.4800
     0.1588   1.0994   1.6947   2.2827   3.2275   4.4014   4.6142   5.1659
     5.3620   5.6521   5.7020   6.1305   6.5030   6.8072   7.1382   7.3733

     occupation numbers 
     1.0000   1.0000   1.0000   1.0000   1.0000   1.0000   1.0000   1.0000
     1.0000   1.0000   1.0000   1.0000   1.0000   1.0000   1.0000   1.0000
     1.0000   1.0000   1.0000   1.0000   1.0000   1.0000   1.0000   1.0000
     1.0000   1.0000   1.0000   1.0000   1.0000   1.0000   1.0000   1.0000
     1.0000   1.0000   1.0000   1.0000   1.0000   1.0000   1.0000   1.0000

          k = 0.1667 0.1702 0.7793 (  4039 PWs)   bands (ev):

   -13.5362 -13.5295 -13.5270 -13.5261 -13.5240 -13.5228 -13.5184 -13.5164
   -13.5082 -13.5047 -13.4978 -13.4969 -13.4912 -13.4881 -13.4691 -13.4657
   -13.4640 -13.4624 -13.4494 -13.4459  -5.5446  -5.2761  -4.8883  -4.5814
    -0.1442   0.6000   1.2522   1.8054   3.5314   4.6319   4.8308   5.4277
     5.6871   5.8072   6.0723   6.1762   6.6746   7.1393   7.1849   7.6209

     occupation numbers 
     1.0000   1.0000   1.0000   1.0000   1.0000   1.0000   1.0000   1.0000
     1.0000   1.0000   1.0000   1.0000   1.0000   1.0000   1.0000   1.0000
     1.0000   1.0000   1.0000   1.0000   1.0000   1.0000   1.0000   1.0000
     1.0000   1.0000   1.0000   1.0000   1.0000   1.0000   1.0000   1.0000
     1.0000   1.0000   1.0000   1.0000   1.0000   1.0000   1.0000   1.0000

          k = 0.1667 0.1702 1.0910 (  4023 PWs)   bands (ev):

   -13.5333 -13.5307 -13.5274 -13.5270 -13.5242 -13.5234 -13.5185 -13.5178
   -13.5068 -13.5056 -13.4938 -13.4934 -13.4917 -13.4901 -13.4680 -13.4663
   -13.4643 -13.4633 -13.4483 -13.4471  -5.2903  -5.1086  -4.9487  -4.7581
    -0.1951   0.0802   1.1680   1.3805   4.0005   4.5063   5.2088   5.4895
     5.7103   5.8440   6.1236   6.3906   6.9647   7.2672   7.4481   7.5315

     occupation numbers 
     1.0000   1.0000   1.0000   1.0000   1.0000   1.0000   1.0000   1.0000
     1.0000   1.0000   1.0000   1.0000   1.0000   1.0000   1.0000   1.0000
     1.0000   1.0000   1.0000   1.0000   1.0000   1.0000   1.0000   1.0000
     1.0000   1.0000   1.0000   1.0000   1.0000   1.0000   1.0000   1.0000
     1.0000   1.0000   1.0000   1.0000   1.0000   1.0000   1.0000   1.0000

          k = 0.1667 0.5106 0.1559 (  4034 PWs)   bands (ev):

   -13.5345 -13.5288 -13.5264 -13.5231 -13.5216 -13.5209 -13.5199 -13.5171
   -13.5108 -13.5061 -13.5014 -13.5008 -13.4897 -13.4875 -13.4699 -13.4669
   -13.4643 -13.4597 -13.4506 -13.4460  -5.7117  -5.4369  -4.7828  -4.4430
     0.3270   1.0995   1.9101   2.0254   3.2411   4.2249   4.5368   4.8726
     5.1740   5.3371   5.7246   6.0742   6.2813   6.9249   7.1958   7.3044

     occupation numbers 
     1.0000   1.0000   1.0000   1.0000   1.0000   1.0000   1.0000   1.0000
     1.0000   1.0000   1.0000   1.0000   1.0000   1.0000   1.0000   1.0000
     1.0000   1.0000   1.0000   1.0000   1.0000   1.0000   1.0000   1.0000
     1.0000   1.0000   1.0000   1.0000   1.0000   1.0000   1.0000   1.0000
     1.0000   1.0000   1.0000   1.0000   1.0000   1.0000   1.0000   1.0000

          k = 0.1667 0.5106 0.4676 (  4046 PWs)   bands (ev):

   -13.5344 -13.5288 -13.5278 -13.5237 -13.5218 -13.5211 -13.5192 -13.5185
   -13.5102 -13.5063 -13.4991 -13.4985 -13.4899 -13.4872 -13.4696 -13.4668
   -13.4646 -13.4606 -13.4502 -13.4462  -5.6002  -5.3358  -4.7807  -4.4716
     0.1698   1.0396   1.5523   1.9197   3.3748   3.8240   4.1243   4.9770
     5.1709   5.7241   5.8906   6.0894   6.7013   6.8432   7.1819   7.3615

     occupation numbers 
     1.0000   1.0000   1.0000   1.0000   1.0000   1.0000   1.0000   1.0000
     1.0000   1.0000   1.0000   1.0000   1.0000   1.0000   1.0000   1.0000
     1.0000   1.0000   1.0000   1.0000   1.0000   1.0000   1.0000   1.0000
     1.0000   1.0000   1.0000   1.0000   1.0000   1.0000   1.0000   1.0000
     1.0000   1.0000   1.0000   1.0000   1.0000   1.0000   1.0000   1.0000

          k = 0.1667 0.5106 0.7793 (  4036 PWs)   bands (ev):

   -13.5344 -13.5305 -13.5281 -13.5249 -13.5226 -13.5205 -13.5202 -13.5186
   -13.5092 -13.5067 -13.4958 -13.4949 -13.4900 -13.4874 -13.4689 -13.4666
   -13.4649 -13.4620 -13.4494 -13.4467  -5.4012  -5.1573  -4.8122  -4.5503
    -0.0014   0.7086   1.2845   1.6940   3.6318   3.7771   4.0746   4.8774
     4.9983   5.7290   5.8083   6.3532   6.5791   6.8499   7.0594   7.3659

     occupation numbers 
     1.0000   1.0000   1.0000   1.0000   1.0000   1.0000   1.0000   1.0000
     1.0000   1.0000   1.0000   1.0000   1.0000   1.0000   1.0000   1.0000
     1.0000   1.0000   1.0000   1.0000   1.0000   1.0000   1.0000   1.0000
     1.0000   1.0000   1.0000   1.0000   1.0000   1.0000   1.0000   1.0000
     1.0000   1.0000   1.0000   1.0000   1.0000   1.0000   1.0000   1.0000

          k = 0.1667 0.5106 1.0910 (  4031 PWs)   bands (ev):

   -13.5341 -13.5328 -13.5273 -13.5263 -13.5227 -13.5217 -13.5195 -13.5188
   -13.5081 -13.5073 -13.4928 -13.4917 -13.4904 -13.4887 -13.4679 -13.4670
   -13.4644 -13.4634 -13.4484 -13.4475  -5.1668  -5.0038  -4.8626  -4.6969
    -0.0017   0.2582   1.2723   1.4330   3.9493   4.0152   4.2964   4.5826
     4.8955   5.2133   5.8752   6.1588   6.5475   6.8033   7.0787   7.2727

     occupation numbers 
     1.0000   1.0000   1.0000   1.0000   1.0000   1.0000   1.0000   1.0000
     1.0000   1.0000   1.0000   1.0000   1.0000   1.0000   1.0000   1.0000
     1.0000   1.0000   1.0000   1.0000   1.0000   1.0000   1.0000   1.0000
     1.0000   1.0000   1.0000   1.0000   1.0000   1.0000   1.0000   1.0000
     1.0000   1.0000   1.0000   1.0000   1.0000   1.0000   1.0000   1.0000

          k = 0.1667 0.8510 0.1559 (  4053 PWs)   bands (ev):

   -13.5325 -13.5303 -13.5285 -13.5278 -13.5193 -13.5171 -13.5161 -13.5143
   -13.5092 -13.5079 -13.5008 -13.4959 -13.4901 -13.4863 -13.4742 -13.4728
   -13.4611 -13.4567 -13.4502 -13.4481  -5.4157  -5.1944  -4.7158  -4.5109
     0.1341   0.7892   1.1229   1.4878   3.5814   4.3410   4.7154   5.0810
     5.4150   5.5028   5.8602   6.0456   6.3976   6.8963   7.0106   7.3936

     occupation numbers 
     1.0000   1.0000   1.0000   1.0000   1.0000   1.0000   1.0000   1.0000
     1.0000   1.0000   1.0000   1.0000   1.0000   1.0000   1.0000   1.0000
     1.0000   1.0000   1.0000   1.0000   1.0000   1.0000   1.0000   1.0000
     1.0000   1.0000   1.0000   1.0000   1.0000   1.0000   1.0000   1.0000
     1.0000   1.0000   1.0000   1.0000   1.0000   1.0000   1.0000   1.0000

          k = 0.1667 0.8510 0.4676 (  4050 PWs)   bands (ev):

   -13.5352 -13.5322 -13.5300 -13.5284 -13.5199 -13.5162 -13.5156 -13.5142
   -13.5085 -13.5077 -13.4990 -13.4944 -13.4901 -13.4859 -13.4736 -13.4724
   -13.4612 -13.4574 -13.4499 -13.4480  -5.3183  -5.1083  -4.7044  -4.5140
     0.1734   0.8830   1.1555   1.4037   3.5814   3.6969   4.0665   4.6883
     5.1225   5.6625   5.7334   6.2061   6.2900   6.6921   6.8929   7.1519

     occupation numbers 
     1.0000   1.0000   1.0000   1.0000   1.0000   1.0000   1.0000   1.0000
     1.0000   1.0000   1.0000   1.0000   1.0000   1.0000   1.0000   1.0000
     1.0000   1.0000   1.0000   1.0000   1.0000   1.0000   1.0000   1.0000
     1.0000   1.0000   1.0000   1.0000   1.0000   1.0000   1.0000   1.0000
     1.0000   1.0000   1.0000   1.0000   1.0000   1.0000   1.0000   1.0000

          k = 0.1667 0.8510 0.7793 (  4051 PWs)   bands (ev):

   -13.5380 -13.5356 -13.5316 -13.5302 -13.5195 -13.5160 -13.5150 -13.5139
   -13.5076 -13.5074 -13.4964 -13.4927 -13.4892 -13.4857 -13.4728 -13.4719
   -13.4610 -13.4584 -13.4494 -13.4480  -5.1494  -4.9610  -4.7121  -4.5434
     0.2348   0.8354   1.2152   1.3852   3.1977   3.5453   3.9741   4.2571
     4.5908   5.1433   5.4598   5.8307   6.1391   6.4306   6.6678   7.1226

     occupation numbers 
     1.0000   1.0000   1.0000   1.0000   1.0000   1.0000   1.0000   1.0000
     1.0000   1.0000   1.0000   1.0000   1.0000   1.0000   1.0000   1.0000
     1.0000   1.0000   1.0000   1.0000   1.0000   1.0000   1.0000   1.0000
     1.0000   1.0000   1.0000   1.0000   1.0000   1.0000   1.0000   1.0000
     1.0000   1.0000   1.0000   1.0000   1.0000   1.0000   1.0000   1.0000

          k = 0.1667 0.8510 1.0910 (  4043 PWs)   bands (ev):

   -13.5393 -13.5384 -13.5325 -13.5320 -13.5184 -13.5170 -13.5143 -13.5139
   -13.5071 -13.5070 -13.4940 -13.4926 -13.4874 -13.4861 -13.4719 -13.4716
   -13.4604 -13.4594 -13.4488 -13.4483  -4.9603  -4.8389  -4.7382  -4.6255
     0.3459   0.5639   1.3460   1.4021   3.2153   3.5596   3.6572   4.0324
     4.4202   4.8108   5.1924   5.5808   5.8133   6.0822   6.7559   6.8884

     occupation numbers 
     1.0000   1.0000   1.0000   1.0000   1.0000   1.0000   1.0000   1.0000
     1.0000   1.0000   1.0000   1.0000   1.0000   1.0000   1.0000   1.0000
     1.0000   1.0000   1.0000   1.0000   1.0000   1.0000   1.0000   1.0000
     1.0000   1.0000   1.0000   1.0000   1.0000   1.0000   1.0000   1.0000
     1.0000   1.0000   1.0000   1.0000   1.0000   1.0000   1.0000   1.0000

          k = 0.1667 1.1914 0.1559 (  4063 PWs)   bands (ev):

   -13.5346 -13.5332 -13.5316 -13.5303 -13.5158 -13.5143 -13.5130 -13.5114
   -13.5057 -13.5038 -13.5021 -13.4968 -13.4881 -13.4831 -13.4806 -13.4787
   -13.4560 -13.4534 -13.4512 -13.4509  -5.0500  -4.9277  -4.7469  -4.7161
     0.1157   0.4510   0.7139   0.9842   4.0953   4.5367   4.9287   5.2655
     5.4550   5.4963   5.9139   6.2034   6.5201   6.7443   6.7992   6.9714

     occupation numbers 
     1.0000   1.0000   1.0000   1.0000   1.0000   1.0000   1.0000   1.0000
     1.0000   1.0000   1.0000   1.0000   1.0000   1.0000   1.0000   1.0000
     1.0000   1.0000   1.0000   1.0000   1.0000   1.0000   1.0000   1.0000
     1.0000   1.0000   1.0000   1.0000   1.0000   1.0000   1.0000   1.0000
     1.0000   1.0000   1.0000   1.0000   1.0000   1.0000   1.0000   1.0000

          k = 0.1667 1.1914 0.4676 (  4065 PWs)   bands (ev):

   -13.5373 -13.5360 -13.5331 -13.5321 -13.5162 -13.5145 -13.5117 -13.5108
   -13.5052 -13.5036 -13.5004 -13.4963 -13.4872 -13.4838 -13.4786 -13.4776
   -13.4562 -13.4542 -13.4507 -13.4505  -4.9785  -4.8663  -4.7146  -4.6815
     0.2615   0.5888   0.8359   1.0271   3.8524   4.0417   4.3192   4.6019
     4.8131   5.2511   5.7288   5.9179   6.0403   6.3246   6.8398   7.0917

     occupation numbers 
     1.0000   1.0000   1.0000   1.0000   1.0000   1.0000   1.0000   1.0000
     1.0000   1.0000   1.0000   1.0000   1.0000   1.0000   1.0000   1.0000
     1.0000   1.0000   1.0000   1.0000   1.0000   1.0000   1.0000   1.0000
     1.0000   1.0000   1.0000   1.0000   1.0000   1.0000   1.0000   1.0000
     1.0000   1.0000   1.0000   1.0000   1.0000   1.0000   1.0000   1.0000

          k = 0.1667 1.1914 0.7793 (  4055 PWs)   bands (ev):

   -13.5409 -13.5399 -13.5354 -13.5347 -13.5163 -13.5148 -13.5106 -13.5101
   -13.5044 -13.5032 -13.4985 -13.4958 -13.4857 -13.4839 -13.4766 -13.4762
   -13.4563 -13.4550 -13.4502 -13.4501  -4.8626  -4.7695  -4.6771  -4.6384
     0.5087   0.8024   1.0250   1.0896   3.2091   3.6610   3.7673   4.0818
     4.3824   4.7153   5.0754   5.5354   5.6410   5.8991   6.7060   6.8432

     occupation numbers 
     1.0000   1.0000   1.0000   1.0000   1.0000   1.0000   1.0000   1.0000
     1.0000   1.0000   1.0000   1.0000   1.0000   1.0000   1.0000   1.0000
     1.0000   1.0000   1.0000   1.0000   1.0000   1.0000   1.0000   1.0000
     1.0000   1.0000   1.0000   1.0000   1.0000   1.0000   1.0000   1.0000
     1.0000   1.0000   1.0000   1.0000   1.0000   1.0000   1.0000   1.0000

          k = 0.1667 1.1914 1.0910 (  4042 PWs)   bands (ev):

   -13.5430 -13.5427 -13.5369 -13.5367 -13.5160 -13.5154 -13.5100 -13.5098
   -13.5036 -13.5031 -13.4970 -13.4960 -13.4843 -13.4838 -13.4753 -13.4752
   -13.4561 -13.4556 -13.4499 -13.4498  -4.7500  -4.6968  -4.6595  -4.6258
     0.7529   0.8821   1.1716   1.2066   2.9553   3.1601   3.5520   3.6876
     4.1993   4.2257   4.7380   5.0635   5.6077   5.7957   6.5656   6.6161

     occupation numbers 
     1.0000   1.0000   1.0000   1.0000   1.0000   1.0000   1.0000   1.0000
     1.0000   1.0000   1.0000   1.0000   1.0000   1.0000   1.0000   1.0000
     1.0000   1.0000   1.0000   1.0000   1.0000   1.0000   1.0000   1.0000
     1.0000   1.0000   1.0000   1.0000   1.0000   1.0000   1.0000   1.0000
     1.0000   1.0000   1.0000   1.0000   1.0000   1.0000   1.0000   1.0000

          k =-0.5000 0.1702 0.1559 (  4052 PWs)   bands (ev):

   -13.5358 -13.5358 -13.5247 -13.5247 -13.5229 -13.5229 -13.5152 -13.5152
   -13.5072 -13.5072 -13.5036 -13.5036 -13.4891 -13.4891 -13.4680 -13.4680
   -13.4615 -13.4615 -13.4476 -13.4476  -5.7518  -5.7518  -4.6168  -4.6168
     0.7800   0.7800   2.5179   2.5179   3.7990   3.7990   4.6813   4.6813
     5.1664   5.1664   5.7775   5.7775   6.1293   6.1293   7.2510   7.2510

     occupation numbers 
     1.0000   1.0000   1.0000   1.0000   1.0000   1.0000   1.0000   1.0000
     1.0000   1.0000   1.0000   1.0000   1.0000   1.0000   1.0000   1.0000
     1.0000   1.0000   1.0000   1.0000   1.0000   1.0000   1.0000   1.0000
     1.0000   1.0000   1.0000   1.0000   1.0000   1.0000   1.0000   1.0000
     1.0000   1.0000   1.0000   1.0000   1.0000   1.0000   1.0000   1.0000

          k =-0.5000 0.1702 0.4676 (  4024 PWs)   bands (ev):

   -13.5349 -13.5349 -13.5247 -13.5247 -13.5235 -13.5235 -13.5162 -13.5162
   -13.5068 -13.5068 -13.5011 -13.5011 -13.4892 -13.4892 -13.4678 -13.4678
   -13.4621 -13.4621 -13.4476 -13.4476  -5.6394  -5.6394  -4.6369  -4.6369
     0.4962   0.4962   2.0524   2.0524   4.0308   4.0308   4.7494   4.7494
     5.4374   5.4374   5.9291   5.9291   6.5747   6.5747   7.1586   7.1586

     occupation numbers 
     1.0000   1.0000   1.0000   1.0000   1.0000   1.0000   1.0000   1.0000
     1.0000   1.0000   1.0000   1.0000   1.0000   1.0000   1.0000   1.0000
     1.0000   1.0000   1.0000   1.0000   1.0000   1.0000   1.0000   1.0000
     1.0000   1.0000   1.0000   1.0000   1.0000   1.0000   1.0000   1.0000
     1.0000   1.0000   1.0000   1.0000   1.0000   1.0000   1.0000   1.0000

          k =-0.5000 0.1702 0.7793 (  4042 PWs)   bands (ev):

   -13.5333 -13.5333 -13.5261 -13.5261 -13.5234 -13.5234 -13.5177 -13.5177
   -13.5062 -13.5062 -13.4973 -13.4973 -13.4897 -13.4897 -13.4674 -13.4674
   -13.4632 -13.4632 -13.4476 -13.4476  -5.4395  -5.4395  -4.7060  -4.7060
     0.1687   0.1687   1.5078   1.5078   4.3520   4.3520   5.0322   5.0322
     5.5765   5.5765   6.1446   6.1446   6.7882   6.7882   7.3280   7.3280

     occupation numbers 
     1.0000   1.0000   1.0000   1.0000   1.0000   1.0000   1.0000   1.0000
     1.0000   1.0000   1.0000   1.0000   1.0000   1.0000   1.0000   1.0000
     1.0000   1.0000   1.0000   1.0000   1.0000   1.0000   1.0000   1.0000
     1.0000   1.0000   1.0000   1.0000   1.0000   1.0000   1.0000   1.0000
     1.0000   1.0000   1.0000   1.0000   1.0000   1.0000   1.0000   1.0000

          k =-0.5000 0.1702 1.0910 (  4036 PWs)   bands (ev):

   -13.5318 -13.5318 -13.5274 -13.5274 -13.5235 -13.5235 -13.5188 -13.5188
   -13.5058 -13.5058 -13.4937 -13.4937 -13.4909 -13.4909 -13.4669 -13.4669
   -13.4641 -13.4641 -13.4476 -13.4476  -5.2215  -5.2215  -4.8323  -4.8323
    -0.0147  -0.0147   1.1505   1.1505   4.7615   4.7615   5.3330   5.3330
     5.4158   5.4158   5.9979   5.9979   7.1593   7.1593   7.4413   7.4413

     occupation numbers 
     1.0000   1.0000   1.0000   1.0000   1.0000   1.0000   1.0000   1.0000
     1.0000   1.0000   1.0000   1.0000   1.0000   1.0000   1.0000   1.0000
     1.0000   1.0000   1.0000   1.0000   1.0000   1.0000   1.0000   1.0000
     1.0000   1.0000   1.0000   1.0000   1.0000   1.0000   1.0000   1.0000
     1.0000   1.0000   1.0000   1.0000   1.0000   1.0000   1.0000   1.0000

          k =-0.5000 0.5106 0.1559 (  4048 PWs)   bands (ev):

   -13.5316 -13.5316 -13.5252 -13.5252 -13.5213 -13.5213 -13.5183 -13.5183
   -13.5084 -13.5084 -13.5009 -13.5009 -13.4887 -13.4887 -13.4686 -13.4686
   -13.4618 -13.4618 -13.4482 -13.4482  -5.5983  -5.5983  -4.5882  -4.5882
     0.6171   0.6171   2.0118   2.0118   3.9255   3.9255   4.5724   4.5724
     5.4692   5.4692   5.6609   5.6609   6.3257   6.3257   7.3437   7.3437

     occupation numbers 
     1.0000   1.0000   1.0000   1.0000   1.0000   1.0000   1.0000   1.0000
     1.0000   1.0000   1.0000   1.0000   1.0000   1.0000   1.0000   1.0000
     1.0000   1.0000   1.0000   1.0000   1.0000   1.0000   1.0000   1.0000
     1.0000   1.0000   1.0000   1.0000   1.0000   1.0000   1.0000   1.0000
     1.0000   1.0000   1.0000   1.0000   1.0000   1.0000   1.0000   1.0000

          k =-0.5000 0.5106 0.4676 (  4042 PWs)   bands (ev):

   -13.5318 -13.5318 -13.5263 -13.5263 -13.5212 -13.5212 -13.5186 -13.5186
   -13.5082 -13.5082 -13.4987 -13.4987 -13.4887 -13.4887 -13.4685 -13.4685
   -13.4624 -13.4624 -13.4481 -13.4481  -5.4921  -5.4921  -4.6016  -4.6016
     0.4927   0.4927   1.7875   1.7875   3.8638   3.8638   4.4668   4.4668
     5.1451   5.1451   6.0998   6.0998   6.6998   6.6998   7.2635   7.2635

     occupation numbers 
     1.0000   1.0000   1.0000   1.0000   1.0000   1.0000   1.0000   1.0000
     1.0000   1.0000   1.0000   1.0000   1.0000   1.0000   1.0000   1.0000
     1.0000   1.0000   1.0000   1.0000   1.0000   1.0000   1.0000   1.0000
     1.0000   1.0000   1.0000   1.0000   1.0000   1.0000   1.0000   1.0000
     1.0000   1.0000   1.0000   1.0000   1.0000   1.0000   1.0000   1.0000

          k =-0.5000 0.5106 0.7793 (  4036 PWs)   bands (ev):

   -13.5322 -13.5322 -13.5279 -13.5279 -13.5210 -13.5210 -13.5187 -13.5187
   -13.5078 -13.5078 -13.4953 -13.4953 -13.4889 -13.4889 -13.4681 -13.4681
   -13.4633 -13.4633 -13.4478 -13.4478  -5.3051  -5.3051  -4.6555  -4.6555
     0.2996   0.2996   1.4800   1.4800   3.8543   3.8543   4.6360   4.6360
     4.9905   4.9905   6.1821   6.1821   6.5580   6.5580   7.2188   7.2188

     occupation numbers 
     1.0000   1.0000   1.0000   1.0000   1.0000   1.0000   1.0000   1.0000
     1.0000   1.0000   1.0000   1.0000   1.0000   1.0000   1.0000   1.0000
     1.0000   1.0000   1.0000   1.0000   1.0000   1.0000   1.0000   1.0000
     1.0000   1.0000   1.0000   1.0000   1.0000   1.0000   1.0000   1.0000
     1.0000   1.0000   1.0000   1.0000   1.0000   1.0000   1.0000   1.0000

          k =-0.5000 0.5106 1.0910 (  4036 PWs)   bands (ev):

   -13.5326 -13.5326 -13.5291 -13.5291 -13.5207 -13.5207 -13.5189 -13.5189
   -13.5077 -13.5077 -13.4926 -13.4926 -13.4894 -13.4894 -13.4679 -13.4679
   -13.4639 -13.4639 -13.4477 -13.4477  -5.1049  -5.1049  -4.7609  -4.7609
     0.1650   0.1650   1.2530   1.2530   4.0931   4.0931   4.5051   4.5051
     5.2250   5.2250   5.8012   5.8012   6.4683   6.4683   7.0510   7.0510

     occupation numbers 
     1.0000   1.0000   1.0000   1.0000   1.0000   1.0000   1.0000   1.0000
     1.0000   1.0000   1.0000   1.0000   1.0000   1.0000   1.0000   1.0000
     1.0000   1.0000   1.0000   1.0000   1.0000   1.0000   1.0000   1.0000
     1.0000   1.0000   1.0000   1.0000   1.0000   1.0000   1.0000   1.0000
     1.0000   1.0000   1.0000   1.0000   1.0000   1.0000   1.0000   1.0000

          k =-0.5000 0.8510 0.1559 (  4050 PWs)   bands (ev):

   -13.5319 -13.5319 -13.5275 -13.5275 -13.5178 -13.5178 -13.5162 -13.5162
   -13.5083 -13.5083 -13.4985 -13.4985 -13.4879 -13.4879 -13.4737 -13.4737
   -13.4588 -13.4588 -13.4492 -13.4492  -5.3229  -5.3229  -4.5947  -4.5947
     0.4025   0.4025   1.3064   1.3064   4.2097   4.2097   4.7523   4.7523
     5.6326   5.6326   5.7937   5.7937   6.3346   6.3346   7.2058   7.2058

     occupation numbers 
     1.0000   1.0000   1.0000   1.0000   1.0000   1.0000   1.0000   1.0000
     1.0000   1.0000   1.0000   1.0000   1.0000   1.0000   1.0000   1.0000
     1.0000   1.0000   1.0000   1.0000   1.0000   1.0000   1.0000   1.0000
     1.0000   1.0000   1.0000   1.0000   1.0000   1.0000   1.0000   1.0000
     1.0000   1.0000   1.0000   1.0000   1.0000   1.0000   1.0000   1.0000

          k =-0.5000 0.8510 0.4676 (  4058 PWs)   bands (ev):

   -13.5338 -13.5338 -13.5293 -13.5293 -13.5177 -13.5177 -13.5152 -13.5152
   -13.5078 -13.5078 -13.4971 -13.4971 -13.4875 -13.4875 -13.4734 -13.4734
   -13.4590 -13.4590 -13.4490 -13.4490  -5.2310  -5.2310  -4.5911  -4.5911
     0.4610   0.4610   1.2954   1.2954   3.7484   3.7484   4.5728   4.5728
     5.0511   5.0511   6.0434   6.0434   6.2687   6.2687   7.1042   7.1042

     occupation numbers 
     1.0000   1.0000   1.0000   1.0000   1.0000   1.0000   1.0000   1.0000
     1.0000   1.0000   1.0000   1.0000   1.0000   1.0000   1.0000   1.0000
     1.0000   1.0000   1.0000   1.0000   1.0000   1.0000   1.0000   1.0000
     1.0000   1.0000   1.0000   1.0000   1.0000   1.0000   1.0000   1.0000
     1.0000   1.0000   1.0000   1.0000   1.0000   1.0000   1.0000   1.0000

          k =-0.5000 0.8510 0.7793 (  4040 PWs)   bands (ev):

   -13.5362 -13.5362 -13.5319 -13.5319 -13.5173 -13.5173 -13.5145 -13.5145
   -13.5072 -13.5072 -13.4954 -13.4954 -13.4866 -13.4866 -13.4730 -13.4730
   -13.4593 -13.4593 -13.4487 -13.4487  -5.0739  -5.0739  -4.6091  -4.6091
     0.4995   0.4995   1.2937   1.2937   3.4059   3.4059   4.2353   4.2353
     4.8349   4.8349   5.5247   5.5247   6.1491   6.1491   6.9686   6.9686

     occupation numbers 
     1.0000   1.0000   1.0000   1.0000   1.0000   1.0000   1.0000   1.0000
     1.0000   1.0000   1.0000   1.0000   1.0000   1.0000   1.0000   1.0000
     1.0000   1.0000   1.0000   1.0000   1.0000   1.0000   1.0000   1.0000
     1.0000   1.0000   1.0000   1.0000   1.0000   1.0000   1.0000   1.0000
     1.0000   1.0000   1.0000   1.0000   1.0000   1.0000   1.0000   1.0000

          k =-0.5000 0.8510 1.0910 (  4028 PWs)   bands (ev):

   -13.5379 -13.5379 -13.5337 -13.5337 -13.5169 -13.5169 -13.5143 -13.5143
   -13.5068 -13.5068 -13.4943 -13.4943 -13.4856 -13.4856 -13.4727 -13.4727
   -13.4595 -13.4595 -13.4485 -13.4485  -4.9136  -4.9136  -4.6682  -4.6682
     0.4786   0.4786   1.3191   1.3191   3.4193   3.4193   3.7829   3.7829
     4.8381   4.8381   5.1477   5.1477   6.1268   6.1268   6.6420   6.6420

     occupation numbers 
     1.0000   1.0000   1.0000   1.0000   1.0000   1.0000   1.0000   1.0000
     1.0000   1.0000   1.0000   1.0000   1.0000   1.0000   1.0000   1.0000
     1.0000   1.0000   1.0000   1.0000   1.0000   1.0000   1.0000   1.0000
     1.0000   1.0000   1.0000   1.0000   1.0000   1.0000   1.0000   1.0000
     1.0000   1.0000   1.0000   1.0000   1.0000   1.0000   1.0000   1.0000

          k =-0.5000 1.1914 0.1559 (  4062 PWs)   bands (ev):

   -13.5334 -13.5334 -13.5317 -13.5317 -13.5141 -13.5141 -13.5135 -13.5135
   -13.5042 -13.5042 -13.4996 -13.4996 -13.4851 -13.4851 -13.4799 -13.4799
   -13.4546 -13.4546 -13.4511 -13.4511  -4.9961  -4.9961  -4.7247  -4.7247
     0.3783   0.3783   0.6979   0.6979   4.6717   4.6717   5.0218   5.0218
     5.5210   5.5210   5.7672   5.7672   6.4554   6.4554   6.8259   6.8259

     occupation numbers 
     1.0000   1.0000   1.0000   1.0000   1.0000   1.0000   1.0000   1.0000
     1.0000   1.0000   1.0000   1.0000   1.0000   1.0000   1.0000   1.0000
     1.0000   1.0000   1.0000   1.0000   1.0000   1.0000   1.0000   1.0000
     1.0000   1.0000   1.0000   1.0000   1.0000   1.0000   1.0000   1.0000
     1.0000   1.0000   1.0000   1.0000   1.0000   1.0000   1.0000   1.0000

          k =-0.5000 1.1914 0.4676 (  4066 PWs)   bands (ev):

   -13.5356 -13.5356 -13.5339 -13.5339 -13.5140 -13.5140 -13.5130 -13.5130
   -13.5036 -13.5036 -13.4991 -13.4991 -13.4841 -13.4841 -13.4792 -13.4792
   -13.4546 -13.4546 -13.4510 -13.4510  -4.9294  -4.9294  -4.6914  -4.6914
     0.5105   0.5105   0.8002   0.8002   4.0305   4.0305   4.5623   4.5623
     5.1071   5.1071   5.5493   5.5493   6.2735   6.2735   6.7106   6.7106

     occupation numbers 
     1.0000   1.0000   1.0000   1.0000   1.0000   1.0000   1.0000   1.0000
     1.0000   1.0000   1.0000   1.0000   1.0000   1.0000   1.0000   1.0000
     1.0000   1.0000   1.0000   1.0000   1.0000   1.0000   1.0000   1.0000
     1.0000   1.0000   1.0000   1.0000   1.0000   1.0000   1.0000   1.0000
     1.0000   1.0000   1.0000   1.0000   1.0000   1.0000   1.0000   1.0000

          k =-0.5000 1.1914 0.7793 (  4038 PWs)   bands (ev):

   -13.5386 -13.5386 -13.5370 -13.5370 -13.5139 -13.5139 -13.5126 -13.5126
   -13.5027 -13.5027 -13.4983 -13.4983 -13.4826 -13.4826 -13.4780 -13.4780
   -13.4546 -13.4546 -13.4508 -13.4508  -4.8231  -4.8231  -4.6509  -4.6509
     0.7073   0.7073   0.9755   0.9755   3.4674   3.4674   3.9827   3.9827
     4.5437   4.5437   5.0031   5.0031   6.1882   6.1882   6.5605   6.5605

     occupation numbers 
     1.0000   1.0000   1.0000   1.0000   1.0000   1.0000   1.0000   1.0000
     1.0000   1.0000   1.0000   1.0000   1.0000   1.0000   1.0000   1.0000
     1.0000   1.0000   1.0000   1.0000   1.0000   1.0000   1.0000   1.0000
     1.0000   1.0000   1.0000   1.0000   1.0000   1.0000   1.0000   1.0000
     1.0000   1.0000   1.0000   1.0000   1.0000   1.0000   1.0000   1.0000

          k =-0.5000 1.1914 1.0910 (  4024 PWs)   bands (ev):

   -13.5407 -13.5407 -13.5391 -13.5391 -13.5139 -13.5139 -13.5125 -13.5125
   -13.5020 -13.5020 -13.4977 -13.4977 -13.4815 -13.4815 -13.4772 -13.4772
   -13.4546 -13.4546 -13.4507 -13.4507  -4.7284  -4.7284  -4.6377  -4.6377
     0.8337   0.8337   1.1517   1.1517   3.2757   3.2757   3.5220   3.5220
     4.1881   4.1881   4.4785   4.4785   6.2860   6.2860   6.4737   6.4737

     occupation numbers 
     1.0000   1.0000   1.0000   1.0000   1.0000   1.0000   1.0000   1.0000
     1.0000   1.0000   1.0000   1.0000   1.0000   1.0000   1.0000   1.0000
     1.0000   1.0000   1.0000   1.0000   1.0000   1.0000   1.0000   1.0000
     1.0000   1.0000   1.0000   1.0000   1.0000   1.0000   1.0000   1.0000
     1.0000   1.0000   1.0000   1.0000   1.0000   1.0000   1.0000   1.0000

     highest occupied level (ev):     7.6209

!    total energy              =    -827.73869148 Ry
     estimated scf accuracy    <          1.0E-09 Ry

     The total energy is the sum of the following terms:
     one-electron contribution =    -262.96236004 Ry
     hartree contribution      =     181.28934574 Ry
     xc contribution           =    -309.06338722 Ry
     ewald contribution        =    -436.88115447 Ry
     DFT-D3 Dispersion         =      -0.12113549 Ry

     convergence has been achieved in  11 iterations

     Forces acting on atoms (cartesian axes, Ry/au):

     atom    1 type  2   force =     0.00546586    0.00000000    0.00009286
     atom    2 type  1   force =    -0.00569041   -0.00000000   -0.00037589
     atom    3 type  2   force =    -0.00546586   -0.00000000    0.00009286
     atom    4 type  1   force =     0.00569041    0.00000000   -0.00037589
     atom    5 type  2   force =     0.00546586    0.00000000   -0.00009286
     atom    6 type  1   force =    -0.00569041    0.00000000    0.00037589
     atom    7 type  2   force =    -0.00546586    0.00000000   -0.00009286
     atom    8 type  1   force =     0.00569041   -0.00000000    0.00037589
     The non-local contrib.  to forces
     atom    1 type  2   force =    -0.10643052    0.00000000    0.11381614
     atom    2 type  1   force =     0.34987755    0.00000000    0.30396188
     atom    3 type  2   force =     0.10643052    0.00000000    0.11381614
     atom    4 type  1   force =    -0.34987755    0.00000000    0.30396188
     atom    5 type  2   force =    -0.10643052    0.00000000   -0.11381614
     atom    6 type  1   force =     0.34987755    0.00000000   -0.30396188
     atom    7 type  2   force =     0.10643052    0.00000000   -0.11381614
     atom    8 type  1   force =    -0.34987755    0.00000000   -0.30396188
     The ionic contribution  to forces
     atom    1 type  2   force =     1.26594997    0.00000000   -1.25049237
     atom    2 type  1   force =    -0.63486164    0.00000000   -0.67212924
     atom    3 type  2   force =    -1.26594997    0.00000000   -1.25049237
     atom    4 type  1   force =     0.63486164    0.00000000   -0.67212924
     atom    5 type  2   force =     1.26594997    0.00000000    1.25049237
     atom    6 type  1   force =    -0.63486164   -0.00000000    0.67212924
     atom    7 type  2   force =    -1.26594997   -0.00000000    1.25049237
     atom    8 type  1   force =     0.63486164    0.00000000    0.67212924
     The local contribution  to forces
     atom    1 type  2   force =    -1.16518127   -0.00000000    1.14804210
     atom    2 type  1   force =     0.28553156   -0.00000000    0.37199787
     atom    3 type  2   force =     1.16518127   -0.00000000    1.14804210
     atom    4 type  1   force =    -0.28553156    0.00000000    0.37199787
     atom    5 type  2   force =    -1.16518127   -0.00000000   -1.14804210
     atom    6 type  1   force =     0.28553156    0.00000000   -0.37199787
     atom    7 type  2   force =     1.16518127   -0.00000000   -1.14804210
     atom    8 type  1   force =    -0.28553156   -0.00000000   -0.37199787
     The core correction contribution to forces
     atom    1 type  2   force =     0.01190602    0.00000000   -0.01282849
     atom    2 type  1   force =    -0.00562012   -0.00000000   -0.00522624
     atom    3 type  2   force =    -0.01190602   -0.00000000   -0.01282849
     atom    4 type  1   force =     0.00562012   -0.00000000   -0.00522624
     atom    5 type  2   force =     0.01190602   -0.00000000    0.01282849
     atom    6 type  1   force =    -0.00562012    0.00000000    0.00522624
     atom    7 type  2   force =    -0.01190602    0.00000000    0.01282849
     atom    8 type  1   force =     0.00562012   -0.00000000    0.00522624
     The Hubbard contrib.    to forces
     atom    1 type  2   force =     0.00000000    0.00000000    0.00000000
     atom    2 type  1   force =     0.00000000    0.00000000    0.00000000
     atom    3 type  2   force =     0.00000000    0.00000000    0.00000000
     atom    4 type  1   force =     0.00000000    0.00000000    0.00000000
     atom    5 type  2   force =     0.00000000    0.00000000    0.00000000
     atom    6 type  1   force =     0.00000000    0.00000000    0.00000000
     atom    7 type  2   force =     0.00000000    0.00000000    0.00000000
     atom    8 type  1   force =     0.00000000    0.00000000    0.00000000
     The SCF correction term to forces
     atom    1 type  2   force =    -0.00000578   -0.00000000    0.00000170
     atom    2 type  1   force =     0.00006968    0.00000000    0.00003849
     atom    3 type  2   force =     0.00000578   -0.00000000    0.00000170
     atom    4 type  1   force =    -0.00006968    0.00000000    0.00003849
     atom    5 type  2   force =    -0.00000578   -0.00000000   -0.00000170
     atom    6 type  1   force =     0.00006968    0.00000000   -0.00003849
     atom    7 type  2   force =     0.00000578    0.00000000   -0.00000170
     atom    8 type  1   force =    -0.00006968    0.00000000   -0.00003849

     DFT-D3 dispersion contribution to forces:
     atom    1 type  2   force =    -0.00077256    0.00000000    0.00155379
     atom    2 type  1   force =    -0.00068742    0.00000000    0.00098136
     atom    3 type  2   force =     0.00077256   -0.00000000    0.00155379
     atom    4 type  1   force =     0.00068742    0.00000000    0.00098136
     atom    5 type  2   force =    -0.00077256   -0.00000000   -0.00155379
     atom    6 type  1   force =    -0.00068742   -0.00000000   -0.00098136
     atom    7 type  2   force =     0.00077256   -0.00000000   -0.00155379
     atom    8 type  1   force =     0.00068742    0.00000000   -0.00098136

     Total force =     0.015800     Total SCF correction =     0.000160

     DFT-D3 dispersion Force =     0.004217

     Writing all to output data dir ./tmp/SnSe_pnma.save/ :
     XML data file, charge density, pseudopotentials, collected wavefunctions
 
     init_run     :      1.09s CPU      1.26s WALL (       1 calls)
     electrons    :     21.58s CPU     23.07s WALL (       1 calls)
     forces       :      0.47s CPU      0.54s WALL (       1 calls)
     force_dftd3  :      0.05s CPU      0.05s WALL (       1 calls)

     Called by init_run:
     wfcinit      :      0.62s CPU      0.69s WALL (       1 calls)
     wfcinit:atom :      0.01s CPU      0.01s WALL (      11 calls)
     wfcinit:wfcr :      0.54s CPU      0.60s WALL (      11 calls)
     potinit      :      0.08s CPU      0.10s WALL (       1 calls)
     hinit0       :      0.19s CPU      0.20s WALL (       1 calls)

     Called by electrons:
     c_bands      :     16.07s CPU     16.23s WALL (      11 calls)
     sum_band     :      3.53s CPU      4.18s WALL (      11 calls)
     v_of_rho     :      0.67s CPU      0.70s WALL (      12 calls)
     v_h          :      0.05s CPU      0.05s WALL (      12 calls)
     v_xc         :      0.68s CPU      0.71s WALL (      13 calls)
     newd         :      1.32s CPU      2.02s WALL (      12 calls)
     mix_rho      :      0.08s CPU      0.09s WALL (      11 calls)
     energy_dftd3 :      0.04s CPU      0.04s WALL (       1 calls)

     Called by c_bands:
     init_us_2    :      0.49s CPU      0.52s WALL (     264 calls)
     cegterg      :     14.36s CPU     14.45s WALL (     121 calls)

     Called by sum_band:
     sum_band:wei :      0.00s CPU      0.00s WALL (      11 calls)
     sum_band:loo :      2.09s CPU      2.10s WALL (      11 calls)
     sum_band:buf :      0.03s CPU      0.03s WALL (     121 calls)
     sum_band:ini :      0.22s CPU      0.22s WALL (     121 calls)
     sum_band:cal :      0.32s CPU      0.32s WALL (     121 calls)
     sum_band:bec :      0.01s CPU      0.01s WALL (     121 calls)
     addusdens    :      1.31s CPU      1.90s WALL (      11 calls)
                                        0.00s GPU  (      11 calls)
     addusd:skk   :      0.01s CPU      0.01s WALL (      22 calls)
                                        0.00s GPU  (      22 calls)

     Called by *egterg:
     cdiaghg      :      0.87s CPU      0.88s WALL (     541 calls)
     cegterg:over :      0.78s CPU      0.79s WALL (     420 calls)
     cegterg:upda :      0.44s CPU      0.45s WALL (     420 calls)
     cegterg:last :      1.01s CPU      1.01s WALL (     297 calls)
     h_psi        :     10.17s CPU     10.28s WALL (     552 calls)
     s_psi        :      1.09s CPU      1.09s WALL (     552 calls)
     g_psi        :      0.04s CPU      0.04s WALL (     420 calls)

     Called by h_psi:
     h_psi:calbec :      1.07s CPU      1.08s WALL (     552 calls)
     vloc_psi     :      7.86s CPU      7.95s WALL (     552 calls)
     add_vuspsi   :      1.15s CPU      1.15s WALL (     552 calls)

     General routines
     calbec       :      1.51s CPU      1.52s WALL (     717 calls)
     fft          :      0.30s CPU      0.32s WALL (     165 calls)
     ffts         :      0.01s CPU      0.01s WALL (      23 calls)
     fftw         :      6.44s CPU      6.51s WALL (   34646 calls)
     interpolate  :      0.03s CPU      0.04s WALL (      12 calls)
 
     Parallel routines
 
     PWSCF        :     23.33s CPU     25.44s WALL

 
   This run was terminated on:  14:51:18  20May2026            

=------------------------------------------------------------------------------=
   JOB DONE.
=------------------------------------------------------------------------------=
