
     Program PWSCF v.7.3.1 starts on 20May2026 at 14:37:57 

     This program is part of the open-source Quantum ESPRESSO suite
     for quantum simulation of materials; please cite
         "P. Giannozzi et al., J. Phys.:Condens. Matter 21 395502 (2009);
         "P. Giannozzi et al., J. Phys.:Condens. Matter 29 465901 (2017);
         "P. Giannozzi et al., J. Chem. Phys. 152 154105 (2020);
          URL http://www.quantum-espresso.org", 
     in publications or presentations arising from this work. More details at
     http://www.quantum-espresso.org/quote

     Parallel version (MPI & OpenMP), running on       6 processor cores
     Number of MPI processes:                 6
     Threads/MPI process:                     1

     MPI processes distributed on     1 nodes
     10736 MiB available memory on the printing compute node when the environment starts
 
     Waiting for input...
     Reading input from standard input

     Current dimensions of program PWSCF are:
     Max number of different atomic species (ntypx) = 10
     Max number of k-points (npk) =  40000
     Max angular momentum in pseudopotentials (lmaxx) =  4
 
     K-points division:     npool     =       3
     R & G space division:  proc/nbgrp/npool/nimage =       2
     Subspace diagonalization in iterative solution of the eigenvalue problem:
     a serial algorithm will be used

 
     Parallelization info
     --------------------
     sticks:   dense  smooth     PW     G-vecs:    dense   smooth      PW
     Min        2075     831    247                65798    16644    2685
     Max        2076     832    248                65799    16645    2686
     Sum        4151    1663    495               131597    33289    5371
 
     Using Slab Decomposition
 


     bravais-lattice index     =            8
     lattice parameter (alat)  =      22.0909  a.u.
     unit-cell volume          =    1499.0945 (a.u.)^3
     number of atoms/cell      =            8
     number of atomic types    =            2
     number of electrons       =        80.00
     number of Kohn-Sham states=           40
     kinetic-energy cutoff     =      30.0000  Ry
     charge density cutoff     =     300.0000  Ry
     scf convergence threshold =      1.0E-08
     mixing beta               =       0.7000
     number of iterations used =            8  plain     mixing
     Exchange-correlation= SLA  PW   PBE  PBE
                           (   1   4   3   4   0   0   0)

     celldm(1)=  22.090898  celldm(2)=   0.356835  celldm(3)=   0.389692
     celldm(4)=   0.000000  celldm(5)=   0.000000  celldm(6)=   0.000000

     crystal axes: (cart. coord. in units of alat)
               a(1) = (   1.000000   0.000000   0.000000 )  
               a(2) = (   0.000000   0.356835   0.000000 )  
               a(3) = (   0.000000   0.000000   0.389692 )  

     reciprocal axes: (cart. coord. in units 2 pi/alat)
               b(1) = (  1.000000  0.000000  0.000000 )  
               b(2) = (  0.000000  2.802416  0.000000 )  
               b(3) = (  0.000000  0.000000  2.566129 )  


     PseudoPot. # 1 for Sn read from file:
     ../pseudo/Sn_pbe_v1.uspp.F.UPF
     MD5 check sum: 4cf58ce39ec5d5d420df3dd08604eb00
     Pseudo is Ultrasoft + core correction, Zval = 14.0
     Generated by new atomic code, or converted to UPF format
     Using radial grid of  891 points,  6 beta functions with: 
                l(1) =   0
                l(2) =   0
                l(3) =   1
                l(4) =   1
                l(5) =   2
                l(6) =   2
     Q(r) pseudized with  6 coefficients,  rinner =    1.200   1.200   1.200
                                                       1.200   1.200

     PseudoPot. # 2 for Se read from file:
     ../pseudo/Se_pbe_v1.uspp.F.UPF
     MD5 check sum: 1b3568f3a8ae88f9a2a0ad0698632c85
     Pseudo is Ultrasoft + core correction, Zval =  6.0
     Generated by new atomic code, or converted to UPF format
     Using radial grid of  877 points,  6 beta functions with: 
                l(1) =   0
                l(2) =   0
                l(3) =   1
                l(4) =   1
                l(5) =   2
                l(6) =   2
     Q(r) pseudized with  8 coefficients,  rinner =    1.300   1.300   1.300
                                                       1.300   1.300

     atomic species   valence    mass     pseudopotential
     Sn               14.00   118.71000     Sn( 1.00)
     Se                6.00    78.97100     Se( 1.00)

      8 Sym. Ops., with inversion, found ( 6 have fractional translation)


                                    s                        frac. trans.

      isym =  1     identity                                     

 cryst.   s( 1) = (     1          0          0      )
                  (     0          1          0      )
                  (     0          0          1      )

 cart.    s( 1) = (  1.0000000  0.0000000  0.0000000 )
                  (  0.0000000  1.0000000  0.0000000 )
                  (  0.0000000  0.0000000  1.0000000 )


      isym =  2     180 deg rotation - cart. axis [0,0,1]        

 cryst.   s( 2) = (    -1          0          0      )    f =(  0.5000000 )
                  (     0         -1          0      )       (  0.0000000 )
                  (     0          0          1      )       ( -0.5000000 )

 cart.    s( 2) = ( -1.0000000  0.0000000  0.0000000 )    f =(  0.5000000 )
                  (  0.0000000 -1.0000000  0.0000000 )       (  0.0000000 )
                  (  0.0000000  0.0000000  1.0000000 )       ( -0.1948460 )


      isym =  3     180 deg rotation - cart. axis [0,1,0]        

 cryst.   s( 3) = (    -1          0          0      )    f =(  0.0000000 )
                  (     0          1          0      )       ( -0.5000000 )
                  (     0          0         -1      )       (  0.0000000 )

 cart.    s( 3) = ( -1.0000000  0.0000000  0.0000000 )    f =(  0.0000000 )
                  (  0.0000000  1.0000000  0.0000000 )       ( -0.1784175 )
                  (  0.0000000  0.0000000 -1.0000000 )       (  0.0000000 )


      isym =  4     180 deg rotation - cart. axis [1,0,0]        

 cryst.   s( 4) = (     1          0          0      )    f =(  0.5000000 )
                  (     0         -1          0      )       ( -0.5000000 )
                  (     0          0         -1      )       (  0.5000000 )

 cart.    s( 4) = (  1.0000000  0.0000000  0.0000000 )    f =(  0.5000000 )
                  (  0.0000000 -1.0000000  0.0000000 )       ( -0.1784175 )
                  (  0.0000000  0.0000000 -1.0000000 )       (  0.1948460 )


      isym =  5     inversion                                    

 cryst.   s( 5) = (    -1          0          0      )
                  (     0         -1          0      )
                  (     0          0         -1      )

 cart.    s( 5) = ( -1.0000000  0.0000000  0.0000000 )
                  (  0.0000000 -1.0000000  0.0000000 )
                  (  0.0000000  0.0000000 -1.0000000 )


      isym =  6     inv. 180 deg rotation - cart. axis [0,0,1]   

 cryst.   s( 6) = (     1          0          0      )    f =(  0.5000000 )
                  (     0          1          0      )       (  0.0000000 )
                  (     0          0         -1      )       (  0.5000000 )

 cart.    s( 6) = (  1.0000000  0.0000000  0.0000000 )    f =(  0.5000000 )
                  (  0.0000000  1.0000000  0.0000000 )       (  0.0000000 )
                  (  0.0000000  0.0000000 -1.0000000 )       (  0.1948460 )


      isym =  7     inv. 180 deg rotation - cart. axis [0,1,0]   

 cryst.   s( 7) = (     1          0          0      )    f =(  0.0000000 )
                  (     0         -1          0      )       ( -0.5000000 )
                  (     0          0          1      )       (  0.0000000 )

 cart.    s( 7) = (  1.0000000  0.0000000  0.0000000 )    f =(  0.0000000 )
                  (  0.0000000 -1.0000000  0.0000000 )       ( -0.1784175 )
                  (  0.0000000  0.0000000  1.0000000 )       (  0.0000000 )


      isym =  8     inv. 180 deg rotation - cart. axis [1,0,0]   

 cryst.   s( 8) = (    -1          0          0      )    f =(  0.5000000 )
                  (     0          1          0      )       ( -0.5000000 )
                  (     0          0          1      )       ( -0.5000000 )

 cart.    s( 8) = ( -1.0000000  0.0000000  0.0000000 )    f =(  0.5000000 )
                  (  0.0000000  1.0000000  0.0000000 )       ( -0.1784175 )
                  (  0.0000000  0.0000000  1.0000000 )       ( -0.1948460 )


     point group D_2h (mmm) 
     there are  8 classes
     the character table:

       E     C2    C2'   C2''  i     s_v   s_v'  s_v''
A_g    1.00  1.00  1.00  1.00  1.00  1.00  1.00  1.00
B_1g   1.00  1.00 -1.00 -1.00  1.00  1.00 -1.00 -1.00
B_2g   1.00 -1.00  1.00 -1.00  1.00 -1.00  1.00 -1.00
B_3g   1.00 -1.00 -1.00  1.00  1.00 -1.00 -1.00  1.00
A_u    1.00  1.00  1.00  1.00 -1.00 -1.00 -1.00 -1.00
B_1u   1.00  1.00 -1.00 -1.00 -1.00 -1.00  1.00  1.00
B_2u   1.00 -1.00  1.00 -1.00 -1.00  1.00 -1.00  1.00
B_3u   1.00 -1.00 -1.00  1.00 -1.00  1.00  1.00 -1.00

     the symmetry operations in each class and the name of the first element:

     E        1
          identity                                               
     C2       2
          180 deg rotation - cart. axis [0,0,1]                  
     C2'      4
          180 deg rotation - cart. axis [1,0,0]                  
     C2''     3
          180 deg rotation - cart. axis [0,1,0]                  
     i        5
          inversion                                              
     s_v      6
          inv. 180 deg rotation - cart. axis [0,0,1]             
     s_v'     8
          inv. 180 deg rotation - cart. axis [1,0,0]             
     s_v''    7
          inv. 180 deg rotation - cart. axis [0,1,0]             

   Cartesian axes

     site n.     atom                  positions (alat units)
         1        Se     tau(   1) = (   0.8549563   0.0892087   0.1883179  )
         2        Sn     tau(   2) = (   0.1165395   0.0892087   0.0437574  )
         3        Se     tau(   3) = (   0.6450437   0.2676262   0.3831640  )
         4        Sn     tau(   4) = (   0.3834605   0.2676262   0.2386034  )
         5        Se     tau(   5) = (   0.3549563   0.0892087   0.0065281  )
         6        Sn     tau(   6) = (   0.6165395   0.0892087   0.1510887  )
         7        Se     tau(   7) = (   0.1450437   0.2676262   0.2013741  )
         8        Sn     tau(   8) = (   0.8834605   0.2676262   0.3459347  )

     --------------------------------------------
     DFT-D3 Dispersion Correction (3-body terms):
     --------------------------------------------
       Reference C6 values for interpolation: 

         atom   Coordination number   C6
         Se         0.000           427.35
         Se         0.990           427.57
         Se         1.981           421.05
         Sn         0.000          1255.14
         Sn         0.951          1084.09
         Sn         1.950          1010.83
         Sn         2.926           818.29
         Sn         3.912           672.20

       Values used:

         atom   Coordination number  R0_AB[au]  C6      C8
         Se         3.359            3.332    421.05  29958.36
         Sn         4.009            3.957    673.48  84529.73
         Se         3.359            3.332    421.05  29958.36
         Sn         4.009            3.957    673.48  84529.73
         Se         3.359            3.332    421.05  29958.36
         Sn         4.009            3.957    673.48  84529.73
         Se         3.359            3.332    421.05  29958.36
         Sn         4.009            3.957    673.48  84529.73

         Molecular C6 ( Ry / a.u.^6 ) =     34532.56


   Crystallographic axes

     site n.     atom                  positions (cryst. coord.)
         1        Se     tau(   1) = (  0.8549563  0.2500000  0.4832481  )
         2        Sn     tau(   2) = (  0.1165395  0.2500000  0.1122870  )
         3        Se     tau(   3) = (  0.6450437  0.7500000  0.9832481  )
         4        Sn     tau(   4) = (  0.3834605  0.7500000  0.6122870  )
         5        Se     tau(   5) = (  0.3549563  0.2500000  0.0167519  )
         6        Sn     tau(   6) = (  0.6165395  0.2500000  0.3877130  )
         7        Se     tau(   7) = (  0.1450437  0.7500000  0.5167519  )
         8        Sn     tau(   8) = (  0.8834605  0.7500000  0.8877130  )

     number of k points=    32
                       cart. coord. in units 2pi/alat
        k(    1) = (   0.1666667   0.1751510   0.1603831), wk =   0.0833333
        k(    2) = (   0.1666667   0.1751510   0.4811492), wk =   0.0833333
        k(    3) = (   0.1666667   0.1751510   0.8019153), wk =   0.0833333
        k(    4) = (   0.1666667   0.1751510   1.1226814), wk =   0.0833333
        k(    5) = (   0.1666667   0.5254531   0.1603831), wk =   0.0833333
        k(    6) = (   0.1666667   0.5254531   0.4811492), wk =   0.0833333
        k(    7) = (   0.1666667   0.5254531   0.8019153), wk =   0.0833333
        k(    8) = (   0.1666667   0.5254531   1.1226814), wk =   0.0833333
        k(    9) = (   0.1666667   0.8757551   0.1603831), wk =   0.0833333
        k(   10) = (   0.1666667   0.8757551   0.4811492), wk =   0.0833333
        k(   11) = (   0.1666667   0.8757551   0.8019153), wk =   0.0833333
        k(   12) = (   0.1666667   0.8757551   1.1226814), wk =   0.0833333
        k(   13) = (   0.1666667   1.2260572   0.1603831), wk =   0.0833333
        k(   14) = (   0.1666667   1.2260572   0.4811492), wk =   0.0833333
        k(   15) = (   0.1666667   1.2260572   0.8019153), wk =   0.0833333
        k(   16) = (   0.1666667   1.2260572   1.1226814), wk =   0.0833333
        k(   17) = (  -0.5000000   0.1751510   0.1603831), wk =   0.0416667
        k(   18) = (  -0.5000000   0.1751510   0.4811492), wk =   0.0416667
        k(   19) = (  -0.5000000   0.1751510   0.8019153), wk =   0.0416667
        k(   20) = (  -0.5000000   0.1751510   1.1226814), wk =   0.0416667
        k(   21) = (  -0.5000000   0.5254531   0.1603831), wk =   0.0416667
        k(   22) = (  -0.5000000   0.5254531   0.4811492), wk =   0.0416667
        k(   23) = (  -0.5000000   0.5254531   0.8019153), wk =   0.0416667
        k(   24) = (  -0.5000000   0.5254531   1.1226814), wk =   0.0416667
        k(   25) = (  -0.5000000   0.8757551   0.1603831), wk =   0.0416667
        k(   26) = (  -0.5000000   0.8757551   0.4811492), wk =   0.0416667
        k(   27) = (  -0.5000000   0.8757551   0.8019153), wk =   0.0416667
        k(   28) = (  -0.5000000   0.8757551   1.1226814), wk =   0.0416667
        k(   29) = (  -0.5000000   1.2260572   0.1603831), wk =   0.0416667
        k(   30) = (  -0.5000000   1.2260572   0.4811492), wk =   0.0416667
        k(   31) = (  -0.5000000   1.2260572   0.8019153), wk =   0.0416667
        k(   32) = (  -0.5000000   1.2260572   1.1226814), wk =   0.0416667

                       cryst. coord.
        k(    1) = (   0.1666667   0.0625000   0.0625000), wk =   0.0833333
        k(    2) = (   0.1666667   0.0625000   0.1875000), wk =   0.0833333
        k(    3) = (   0.1666667   0.0625000   0.3125000), wk =   0.0833333
        k(    4) = (   0.1666667   0.0625000   0.4375000), wk =   0.0833333
        k(    5) = (   0.1666667   0.1875000   0.0625000), wk =   0.0833333
        k(    6) = (   0.1666667   0.1875000   0.1875000), wk =   0.0833333
        k(    7) = (   0.1666667   0.1875000   0.3125000), wk =   0.0833333
        k(    8) = (   0.1666667   0.1875000   0.4375000), wk =   0.0833333
        k(    9) = (   0.1666667   0.3125000   0.0625000), wk =   0.0833333
        k(   10) = (   0.1666667   0.3125000   0.1875000), wk =   0.0833333
        k(   11) = (   0.1666667   0.3125000   0.3125000), wk =   0.0833333
        k(   12) = (   0.1666667   0.3125000   0.4375000), wk =   0.0833333
        k(   13) = (   0.1666667   0.4375000   0.0625000), wk =   0.0833333
        k(   14) = (   0.1666667   0.4375000   0.1875000), wk =   0.0833333
        k(   15) = (   0.1666667   0.4375000   0.3125000), wk =   0.0833333
        k(   16) = (   0.1666667   0.4375000   0.4375000), wk =   0.0833333
        k(   17) = (  -0.5000000   0.0625000   0.0625000), wk =   0.0416667
        k(   18) = (  -0.5000000   0.0625000   0.1875000), wk =   0.0416667
        k(   19) = (  -0.5000000   0.0625000   0.3125000), wk =   0.0416667
        k(   20) = (  -0.5000000   0.0625000   0.4375000), wk =   0.0416667
        k(   21) = (  -0.5000000   0.1875000   0.0625000), wk =   0.0416667
        k(   22) = (  -0.5000000   0.1875000   0.1875000), wk =   0.0416667
        k(   23) = (  -0.5000000   0.1875000   0.3125000), wk =   0.0416667
        k(   24) = (  -0.5000000   0.1875000   0.4375000), wk =   0.0416667
        k(   25) = (  -0.5000000   0.3125000   0.0625000), wk =   0.0416667
        k(   26) = (  -0.5000000   0.3125000   0.1875000), wk =   0.0416667
        k(   27) = (  -0.5000000   0.3125000   0.3125000), wk =   0.0416667
        k(   28) = (  -0.5000000   0.3125000   0.4375000), wk =   0.0416667
        k(   29) = (  -0.5000000   0.4375000   0.0625000), wk =   0.0416667
        k(   30) = (  -0.5000000   0.4375000   0.1875000), wk =   0.0416667
        k(   31) = (  -0.5000000   0.4375000   0.3125000), wk =   0.0416667
        k(   32) = (  -0.5000000   0.4375000   0.4375000), wk =   0.0416667

     Dense  grid:   131597 G-vectors     FFT dimensions: ( 128,  48,  48)

     Smooth grid:    33289 G-vectors     FFT dimensions: (  80,  30,  32)

     Dynamical RAM for                 wfc:       1.27 MB

     Dynamical RAM for     wfc (w. buffer):      15.23 MB

     Dynamical RAM for           str. fact:       2.01 MB

     Dynamical RAM for           local pot:       0.00 MB

     Dynamical RAM for          nlocal pot:       4.57 MB

     Dynamical RAM for                qrad:       2.78 MB

     Dynamical RAM for          rho,v,vnew:       6.39 MB

     Dynamical RAM for               rhoin:       2.13 MB

     Dynamical RAM for            rho*nmix:      16.06 MB

     Dynamical RAM for           G-vectors:       3.89 MB

     Dynamical RAM for          h,s,v(r/c):       0.29 MB

     Dynamical RAM for          <psi|beta>:       0.09 MB

     Dynamical RAM for                 psi:       2.54 MB

     Dynamical RAM for                hpsi:       2.54 MB

     Dynamical RAM for                spsi:       2.54 MB

     Dynamical RAM for      wfcinit/wfcrot:       3.36 MB

     Dynamical RAM for           addusdens:      64.26 MB

     Dynamical RAM for          addusforce:      66.11 MB

     Estimated static dynamical RAM per process >      45.64 MB

     Estimated max dynamical RAM per process >     127.82 MB

     Estimated total dynamical RAM >     702.64 MB

     Initial potential from superposition of free atoms

     starting charge      75.9995, renormalised to      80.0000
     Starting wfcs are   52 randomized atomic wfcs

     total cpu time spent up to now is        1.6 secs

     Self-consistent Calculation

     iteration #  1     ecut=    30.00 Ry     beta= 0.70
     Davidson diagonalization with overlap

---- Real-time Memory Report at c_bands before calling an iterative solver
           212 MiB given to the printing process from OS
             0 MiB allocation reported by mallinfo(arena+hblkhd)
         10280 MiB available memory on the node where the printing process lives
------------------
     ethr =  1.00E-02,  avg # of iterations =  2.0

     total cpu time spent up to now is        3.8 secs

     total energy              =    -826.60391961 Ry
     estimated scf accuracy    <       2.71621792 Ry

     iteration #  2     ecut=    30.00 Ry     beta= 0.70
     Davidson diagonalization with overlap

---- Real-time Memory Report at c_bands before calling an iterative solver
           265 MiB given to the printing process from OS
             0 MiB allocation reported by mallinfo(arena+hblkhd)
          9791 MiB available memory on the node where the printing process lives
------------------
     ethr =  3.40E-03,  avg # of iterations =  3.0

     total cpu time spent up to now is        6.0 secs

     total energy              =    -827.51556380 Ry
     estimated scf accuracy    <       1.04782035 Ry

     iteration #  3     ecut=    30.00 Ry     beta= 0.70
     Davidson diagonalization with overlap

---- Real-time Memory Report at c_bands before calling an iterative solver
           283 MiB given to the printing process from OS
             0 MiB allocation reported by mallinfo(arena+hblkhd)
          9693 MiB available memory on the node where the printing process lives
------------------
     ethr =  1.31E-03,  avg # of iterations =  2.6

     total cpu time spent up to now is        8.0 secs

     total energy              =    -827.73173082 Ry
     estimated scf accuracy    <       0.01071146 Ry

     iteration #  4     ecut=    30.00 Ry     beta= 0.70
     Davidson diagonalization with overlap

---- Real-time Memory Report at c_bands before calling an iterative solver
           285 MiB given to the printing process from OS
             0 MiB allocation reported by mallinfo(arena+hblkhd)
          9691 MiB available memory on the node where the printing process lives
------------------
     ethr =  1.34E-05,  avg # of iterations =  4.9

     total cpu time spent up to now is       10.5 secs

     total energy              =    -827.73849284 Ry
     estimated scf accuracy    <       0.00579982 Ry

     iteration #  5     ecut=    30.00 Ry     beta= 0.70
     Davidson diagonalization with overlap

---- Real-time Memory Report at c_bands before calling an iterative solver
           288 MiB given to the printing process from OS
             0 MiB allocation reported by mallinfo(arena+hblkhd)
          9685 MiB available memory on the node where the printing process lives
------------------
     ethr =  7.25E-06,  avg # of iterations =  3.0

     total cpu time spent up to now is       12.4 secs

     total energy              =    -827.74004344 Ry
     estimated scf accuracy    <       0.00045856 Ry

     iteration #  6     ecut=    30.00 Ry     beta= 0.70
     Davidson diagonalization with overlap

---- Real-time Memory Report at c_bands before calling an iterative solver
           289 MiB given to the printing process from OS
             0 MiB allocation reported by mallinfo(arena+hblkhd)
          9684 MiB available memory on the node where the printing process lives
------------------
     ethr =  5.73E-07,  avg # of iterations =  4.3

     total cpu time spent up to now is       14.7 secs

     total energy              =    -827.73995181 Ry
     estimated scf accuracy    <       0.00078736 Ry

     iteration #  7     ecut=    30.00 Ry     beta= 0.70
     Davidson diagonalization with overlap

---- Real-time Memory Report at c_bands before calling an iterative solver
           293 MiB given to the printing process from OS
             0 MiB allocation reported by mallinfo(arena+hblkhd)
          9732 MiB available memory on the node where the printing process lives
------------------
     ethr =  5.73E-07,  avg # of iterations =  3.0

     total cpu time spent up to now is       16.9 secs

     total energy              =    -827.74006634 Ry
     estimated scf accuracy    <       0.00001690 Ry

     iteration #  8     ecut=    30.00 Ry     beta= 0.70
     Davidson diagonalization with overlap

---- Real-time Memory Report at c_bands before calling an iterative solver
           294 MiB given to the printing process from OS
             0 MiB allocation reported by mallinfo(arena+hblkhd)
          9682 MiB available memory on the node where the printing process lives
------------------
     ethr =  2.11E-08,  avg # of iterations =  4.9

     total cpu time spent up to now is       19.5 secs

     total energy              =    -827.74008016 Ry
     estimated scf accuracy    <       0.00001252 Ry

     iteration #  9     ecut=    30.00 Ry     beta= 0.70
     Davidson diagonalization with overlap

---- Real-time Memory Report at c_bands before calling an iterative solver
           294 MiB given to the printing process from OS
             0 MiB allocation reported by mallinfo(arena+hblkhd)
          9680 MiB available memory on the node where the printing process lives
------------------
     ethr =  1.57E-08,  avg # of iterations =  2.0

     total cpu time spent up to now is       21.3 secs

     total energy              =    -827.74008159 Ry
     estimated scf accuracy    <       0.00000059 Ry

     iteration # 10     ecut=    30.00 Ry     beta= 0.70
     Davidson diagonalization with overlap

---- Real-time Memory Report at c_bands before calling an iterative solver
           295 MiB given to the printing process from OS
             0 MiB allocation reported by mallinfo(arena+hblkhd)
          9681 MiB available memory on the node where the printing process lives
------------------
     ethr =  7.32E-10,  avg # of iterations =  4.4

     total cpu time spent up to now is       23.5 secs

     total energy              =    -827.74008189 Ry
     estimated scf accuracy    <       0.00000004 Ry

     iteration # 11     ecut=    30.00 Ry     beta= 0.70
     Davidson diagonalization with overlap

---- Real-time Memory Report at c_bands before calling an iterative solver
           296 MiB given to the printing process from OS
             0 MiB allocation reported by mallinfo(arena+hblkhd)
          9680 MiB available memory on the node where the printing process lives
------------------
     ethr =  4.82E-11,  avg # of iterations =  5.0

     total cpu time spent up to now is       25.9 secs

     total energy              =    -827.74008190 Ry
     estimated scf accuracy    <       0.00000001 Ry

     iteration # 12     ecut=    30.00 Ry     beta= 0.70
     Davidson diagonalization with overlap

---- Real-time Memory Report at c_bands before calling an iterative solver
           297 MiB given to the printing process from OS
             0 MiB allocation reported by mallinfo(arena+hblkhd)
          9679 MiB available memory on the node where the printing process lives
------------------
     ethr =  1.86E-11,  avg # of iterations =  2.7

     total cpu time spent up to now is       27.9 secs

     End of self-consistent calculation

          k = 0.1667 0.1752 0.1604 (  4165 PWs)   bands (ev):

   -13.9143 -13.9059 -13.9021 -13.8988 -13.8973 -13.8955 -13.8923 -13.8920
   -13.8827 -13.8809 -13.8799 -13.8776 -13.8692 -13.8684 -13.8512 -13.8477
   -13.8447 -13.8421 -13.8353 -13.8305  -6.0626  -5.7976  -5.1439  -4.7882
     0.2961   1.0972   1.8747   2.2710   2.9223   4.1254   4.2751   4.5344
     4.7794   4.8101   5.3625   5.6555   5.8832   6.2243   6.7076   6.9966

     occupation numbers 
     1.0000   1.0000   1.0000   1.0000   1.0000   1.0000   1.0000   1.0000
     1.0000   1.0000   1.0000   1.0000   1.0000   1.0000   1.0000   1.0000
     1.0000   1.0000   1.0000   1.0000   1.0000   1.0000   1.0000   1.0000
     1.0000   1.0000   1.0000   1.0000   1.0000   1.0000   1.0000   1.0000
     1.0000   1.0000   1.0000   1.0000   1.0000   1.0000   1.0000   1.0000

          k = 0.1667 0.1752 0.4811 (  4146 PWs)   bands (ev):

   -13.9131 -13.9055 -13.9021 -13.8992 -13.8979 -13.8966 -13.8926 -13.8920
   -13.8830 -13.8802 -13.8788 -13.8752 -13.8691 -13.8676 -13.8514 -13.8473
   -13.8453 -13.8425 -13.8350 -13.8309  -5.9499  -5.6945  -5.1368  -4.8149
    -0.0244   0.8211   1.3721   1.9273   3.0113   4.1786   4.3883   4.8784
     5.1017   5.3389   5.3742   5.7629   6.1770   6.4807   6.7180   6.9861

     occupation numbers 
     1.0000   1.0000   1.0000   1.0000   1.0000   1.0000   1.0000   1.0000
     1.0000   1.0000   1.0000   1.0000   1.0000   1.0000   1.0000   1.0000
     1.0000   1.0000   1.0000   1.0000   1.0000   1.0000   1.0000   1.0000
     1.0000   1.0000   1.0000   1.0000   1.0000   1.0000   1.0000   1.0000
     1.0000   1.0000   1.0000   1.0000   1.0000   1.0000   1.0000   1.0000

          k = 0.1667 0.1752 0.8019 (  4157 PWs)   bands (ev):

   -13.9110 -13.9052 -13.9022 -13.9004 -13.8982 -13.8980 -13.8931 -13.8925
   -13.8830 -13.8809 -13.8756 -13.8718 -13.8691 -13.8665 -13.8512 -13.8478
   -13.8454 -13.8431 -13.8344 -13.8316  -5.7483  -5.5117  -5.1611  -4.8922
    -0.3467   0.3130   0.9380   1.4378   3.3107   4.4101   4.6141   5.1710
     5.3327   5.5065   5.7354   5.8858   6.3410   6.8059   6.8279   7.2359

     occupation numbers 
     1.0000   1.0000   1.0000   1.0000   1.0000   1.0000   1.0000   1.0000
     1.0000   1.0000   1.0000   1.0000   1.0000   1.0000   1.0000   1.0000
     1.0000   1.0000   1.0000   1.0000   1.0000   1.0000   1.0000   1.0000
     1.0000   1.0000   1.0000   1.0000   1.0000   1.0000   1.0000   1.0000
     1.0000   1.0000   1.0000   1.0000   1.0000   1.0000   1.0000   1.0000

          k = 0.1667 0.1752 1.1227 (  4149 PWs)   bands (ev):

   -13.9085 -13.9063 -13.9020 -13.9014 -13.8989 -13.8987 -13.8933 -13.8930
   -13.8825 -13.8817 -13.8725 -13.8706 -13.8679 -13.8664 -13.8504 -13.8491
   -13.8447 -13.8439 -13.8335 -13.8326  -5.5108  -5.3489  -5.2102  -5.0410
    -0.4265  -0.1823   0.8275   1.0191   3.7827   4.2965   4.9771   5.2211
     5.4259   5.5372   5.7567   6.0615   6.6274   6.9567   7.1113   7.1988

     occupation numbers 
     1.0000   1.0000   1.0000   1.0000   1.0000   1.0000   1.0000   1.0000
     1.0000   1.0000   1.0000   1.0000   1.0000   1.0000   1.0000   1.0000
     1.0000   1.0000   1.0000   1.0000   1.0000   1.0000   1.0000   1.0000
     1.0000   1.0000   1.0000   1.0000   1.0000   1.0000   1.0000   1.0000
     1.0000   1.0000   1.0000   1.0000   1.0000   1.0000   1.0000   1.0000

          k = 0.1667 0.5255 0.1604 (  4159 PWs)   bands (ev):

   -13.9088 -13.9038 -13.9000 -13.8979 -13.8966 -13.8957 -13.8951 -13.8939
   -13.8853 -13.8831 -13.8803 -13.8748 -13.8691 -13.8665 -13.8493 -13.8485
   -13.8455 -13.8432 -13.8349 -13.8314  -5.9050  -5.6610  -5.0741  -4.7746
     0.1384   0.8324   1.5603   1.6730   3.0370   4.0092   4.2978   4.5914
     4.9039   5.1003   5.3745   5.6934   5.9587   6.5568   6.7979   6.9037

     occupation numbers 
     1.0000   1.0000   1.0000   1.0000   1.0000   1.0000   1.0000   1.0000
     1.0000   1.0000   1.0000   1.0000   1.0000   1.0000   1.0000   1.0000
     1.0000   1.0000   1.0000   1.0000   1.0000   1.0000   1.0000   1.0000
     1.0000   1.0000   1.0000   1.0000   1.0000   1.0000   1.0000   1.0000
     1.0000   1.0000   1.0000   1.0000   1.0000   1.0000   1.0000   1.0000

          k = 0.1667 0.5255 0.4811 (  4164 PWs)   bands (ev):

   -13.9086 -13.9037 -13.9015 -13.8984 -13.8968 -13.8960 -13.8948 -13.8944
   -13.8857 -13.8833 -13.8780 -13.8729 -13.8690 -13.8655 -13.8493 -13.8480
   -13.8457 -13.8440 -13.8346 -13.8316  -5.7980  -5.5641  -5.0651  -4.7926
    -0.0237   0.7535   1.2228   1.5784   3.1685   3.6101   3.8800   4.6315
     4.8350   5.3809   5.6560   5.7745   6.4100   6.5308   6.8052   6.9806

     occupation numbers 
     1.0000   1.0000   1.0000   1.0000   1.0000   1.0000   1.0000   1.0000
     1.0000   1.0000   1.0000   1.0000   1.0000   1.0000   1.0000   1.0000
     1.0000   1.0000   1.0000   1.0000   1.0000   1.0000   1.0000   1.0000
     1.0000   1.0000   1.0000   1.0000   1.0000   1.0000   1.0000   1.0000
     1.0000   1.0000   1.0000   1.0000   1.0000   1.0000   1.0000   1.0000

          k = 0.1667 0.5255 0.8019 (  4151 PWs)   bands (ev):

   -13.9083 -13.9042 -13.9029 -13.8995 -13.8974 -13.8963 -13.8952 -13.8945
   -13.8853 -13.8836 -13.8751 -13.8709 -13.8678 -13.8644 -13.8490 -13.8473
   -13.8461 -13.8451 -13.8341 -13.8321  -5.6089  -5.3943  -5.0823  -4.8518
    -0.2100   0.4175   0.9683   1.3460   3.4267   3.5614   3.8290   4.5648
     4.6639   5.4347   5.4965   6.0622   6.2719   6.5105   6.7082   6.9660

     occupation numbers 
     1.0000   1.0000   1.0000   1.0000   1.0000   1.0000   1.0000   1.0000
     1.0000   1.0000   1.0000   1.0000   1.0000   1.0000   1.0000   1.0000
     1.0000   1.0000   1.0000   1.0000   1.0000   1.0000   1.0000   1.0000
     1.0000   1.0000   1.0000   1.0000   1.0000   1.0000   1.0000   1.0000
     1.0000   1.0000   1.0000   1.0000   1.0000   1.0000   1.0000   1.0000

          k = 0.1667 0.5255 1.1227 (  4153 PWs)   bands (ev):

   -13.9077 -13.9063 -13.9021 -13.9009 -13.8976 -13.8971 -13.8952 -13.8948
   -13.8847 -13.8841 -13.8725 -13.8709 -13.8655 -13.8643 -13.8482 -13.8471
   -13.8465 -13.8459 -13.8334 -13.8327  -5.3902  -5.2453  -5.1228  -4.9752
    -0.2358  -0.0058   0.9370   1.0846   3.7436   3.8009   4.0576   4.3221
     4.5963   4.9332   5.5658   5.8514   6.1910   6.4295   6.6778   6.8587

     occupation numbers 
     1.0000   1.0000   1.0000   1.0000   1.0000   1.0000   1.0000   1.0000
     1.0000   1.0000   1.0000   1.0000   1.0000   1.0000   1.0000   1.0000
     1.0000   1.0000   1.0000   1.0000   1.0000   1.0000   1.0000   1.0000
     1.0000   1.0000   1.0000   1.0000   1.0000   1.0000   1.0000   1.0000
     1.0000   1.0000   1.0000   1.0000   1.0000   1.0000   1.0000   1.0000

          k = 0.1667 0.8758 0.1604 (  4168 PWs)   bands (ev):

   -13.9059 -13.9037 -13.9014 -13.9009 -13.8965 -13.8923 -13.8920 -13.8912
   -13.8859 -13.8856 -13.8807 -13.8731 -13.8684 -13.8633 -13.8527 -13.8520
   -13.8438 -13.8400 -13.8341 -13.8326  -5.6198  -5.4250  -4.9948  -4.8098
    -0.0796   0.4846   0.8274   1.0950   3.3731   4.1292   4.4878   4.7985
     5.1842   5.2384   5.5298   5.7100   6.0989   6.5538   6.6517   6.9919

     occupation numbers 
     1.0000   1.0000   1.0000   1.0000   1.0000   1.0000   1.0000   1.0000
     1.0000   1.0000   1.0000   1.0000   1.0000   1.0000   1.0000   1.0000
     1.0000   1.0000   1.0000   1.0000   1.0000   1.0000   1.0000   1.0000
     1.0000   1.0000   1.0000   1.0000   1.0000   1.0000   1.0000   1.0000
     1.0000   1.0000   1.0000   1.0000   1.0000   1.0000   1.0000   1.0000

          k = 0.1667 0.8758 0.4811 (  4171 PWs)   bands (ev):

   -13.9083 -13.9054 -13.9028 -13.9014 -13.8971 -13.8922 -13.8914 -13.8909
   -13.8858 -13.8853 -13.8788 -13.8727 -13.8670 -13.8627 -13.8521 -13.8515
   -13.8438 -13.8407 -13.8339 -13.8326  -5.5266  -5.3422  -4.9786  -4.8073
    -0.0427   0.5772   0.8506   1.0457   3.3766   3.4929   3.8225   4.3754
     4.8004   5.3704   5.4844   5.9022   6.0097   6.2954   6.5503   6.7681

     occupation numbers 
     1.0000   1.0000   1.0000   1.0000   1.0000   1.0000   1.0000   1.0000
     1.0000   1.0000   1.0000   1.0000   1.0000   1.0000   1.0000   1.0000
     1.0000   1.0000   1.0000   1.0000   1.0000   1.0000   1.0000   1.0000
     1.0000   1.0000   1.0000   1.0000   1.0000   1.0000   1.0000   1.0000
     1.0000   1.0000   1.0000   1.0000   1.0000   1.0000   1.0000   1.0000

          k = 0.1667 0.8758 0.8019 (  4165 PWs)   bands (ev):

   -13.9107 -13.9084 -13.9044 -13.9033 -13.8966 -13.8929 -13.8909 -13.8905
   -13.8851 -13.8849 -13.8764 -13.8725 -13.8647 -13.8618 -13.8512 -13.8507
   -13.8438 -13.8416 -13.8336 -13.8327  -5.3663  -5.2017  -4.9764  -4.8260
     0.0109   0.5383   0.8987   1.0631   2.9863   3.3112   3.7505   3.9818
     4.2542   4.8898   5.1937   5.5273   5.8227   6.0383   6.2331   6.7140

     occupation numbers 
     1.0000   1.0000   1.0000   1.0000   1.0000   1.0000   1.0000   1.0000
     1.0000   1.0000   1.0000   1.0000   1.0000   1.0000   1.0000   1.0000
     1.0000   1.0000   1.0000   1.0000   1.0000   1.0000   1.0000   1.0000
     1.0000   1.0000   1.0000   1.0000   1.0000   1.0000   1.0000   1.0000
     1.0000   1.0000   1.0000   1.0000   1.0000   1.0000   1.0000   1.0000

          k = 0.1667 0.8758 1.1227 (  4154 PWs)   bands (ev):

   -13.9118 -13.9109 -13.9054 -13.9049 -13.8955 -13.8941 -13.8906 -13.8905
   -13.8845 -13.8845 -13.8743 -13.8729 -13.8624 -13.8615 -13.8504 -13.8502
   -13.8433 -13.8426 -13.8333 -13.8330  -5.1903  -5.0828  -4.9954  -4.8944
     0.1046   0.2960   1.0256   1.0822   2.9990   3.3356   3.3938   3.7726
     4.1590   4.5730   4.8714   5.2707   5.4604   5.7062   6.3036   6.4511

     occupation numbers 
     1.0000   1.0000   1.0000   1.0000   1.0000   1.0000   1.0000   1.0000
     1.0000   1.0000   1.0000   1.0000   1.0000   1.0000   1.0000   1.0000
     1.0000   1.0000   1.0000   1.0000   1.0000   1.0000   1.0000   1.0000
     1.0000   1.0000   1.0000   1.0000   1.0000   1.0000   1.0000   1.0000
     1.0000   1.0000   1.0000   1.0000   1.0000   1.0000   1.0000   1.0000

          k = 0.1667 1.2261 0.1604 (  4179 PWs)   bands (ev):

   -13.9073 -13.9057 -13.9048 -13.9034 -13.8928 -13.8909 -13.8890 -13.8880
   -13.8850 -13.8827 -13.8815 -13.8765 -13.8641 -13.8603 -13.8583 -13.8565
   -13.8389 -13.8366 -13.8348 -13.8343  -5.2747  -5.1704  -5.0076  -4.9744
    -0.1289   0.1779   0.3660   0.6042   3.8932   4.3457   4.7057   5.0026
     5.1801   5.2442   5.6299   5.8763   6.2277   6.4015   6.4751   6.6307

     occupation numbers 
     1.0000   1.0000   1.0000   1.0000   1.0000   1.0000   1.0000   1.0000
     1.0000   1.0000   1.0000   1.0000   1.0000   1.0000   1.0000   1.0000
     1.0000   1.0000   1.0000   1.0000   1.0000   1.0000   1.0000   1.0000
     1.0000   1.0000   1.0000   1.0000   1.0000   1.0000   1.0000   1.0000
     1.0000   1.0000   1.0000   1.0000   1.0000   1.0000   1.0000   1.0000

          k = 0.1667 1.2261 0.4811 (  4179 PWs)   bands (ev):

   -13.9097 -13.9082 -13.9064 -13.9052 -13.8930 -13.8910 -13.8880 -13.8874
   -13.8845 -13.8829 -13.8798 -13.8761 -13.8631 -13.8605 -13.8564 -13.8555
   -13.8391 -13.8373 -13.8345 -13.8342  -5.2061  -5.1106  -4.9737  -4.9396
     0.0161   0.3160   0.4965   0.6647   3.6492   3.8472   4.1009   4.3891
     4.5265   4.9920   5.4039   5.5861   5.7049   5.9926   6.4023   6.6819

     occupation numbers 
     1.0000   1.0000   1.0000   1.0000   1.0000   1.0000   1.0000   1.0000
     1.0000   1.0000   1.0000   1.0000   1.0000   1.0000   1.0000   1.0000
     1.0000   1.0000   1.0000   1.0000   1.0000   1.0000   1.0000   1.0000
     1.0000   1.0000   1.0000   1.0000   1.0000   1.0000   1.0000   1.0000
     1.0000   1.0000   1.0000   1.0000   1.0000   1.0000   1.0000   1.0000

          k = 0.1667 1.2261 0.8019 (  4166 PWs)   bands (ev):

   -13.9128 -13.9117 -13.9087 -13.9079 -13.8929 -13.8914 -13.8873 -13.8870
   -13.8836 -13.8826 -13.8781 -13.8757 -13.8614 -13.8600 -13.8543 -13.8539
   -13.8392 -13.8380 -13.8342 -13.8341  -5.0959  -5.0166  -4.9328  -4.8958
     0.2608   0.5281   0.7043   0.7627   3.0024   3.4408   3.5364   3.9038
     4.0673   4.4535   4.7309   5.1963   5.2859   5.5605   6.2556   6.4052

     occupation numbers 
     1.0000   1.0000   1.0000   1.0000   1.0000   1.0000   1.0000   1.0000
     1.0000   1.0000   1.0000   1.0000   1.0000   1.0000   1.0000   1.0000
     1.0000   1.0000   1.0000   1.0000   1.0000   1.0000   1.0000   1.0000
     1.0000   1.0000   1.0000   1.0000   1.0000   1.0000   1.0000   1.0000
     1.0000   1.0000   1.0000   1.0000   1.0000   1.0000   1.0000   1.0000

          k = 0.1667 1.2261 1.1227 (  4145 PWs)   bands (ev):

   -13.9146 -13.9142 -13.9101 -13.9099 -13.8926 -13.8920 -13.8870 -13.8868
   -13.8827 -13.8824 -13.8767 -13.8759 -13.8599 -13.8595 -13.8529 -13.8528
   -13.8390 -13.8387 -13.8340 -13.8340  -4.9909  -4.9446  -4.9123  -4.8812
     0.4976   0.6107   0.8784   0.9068   2.7431   2.9444   3.3102   3.4848
     3.8477   3.9334   4.4052   4.7185   5.2633   5.4567   6.1472   6.1901

     occupation numbers 
     1.0000   1.0000   1.0000   1.0000   1.0000   1.0000   1.0000   1.0000
     1.0000   1.0000   1.0000   1.0000   1.0000   1.0000   1.0000   1.0000
     1.0000   1.0000   1.0000   1.0000   1.0000   1.0000   1.0000   1.0000
     1.0000   1.0000   1.0000   1.0000   1.0000   1.0000   1.0000   1.0000
     1.0000   1.0000   1.0000   1.0000   1.0000   1.0000   1.0000   1.0000

          k =-0.5000 0.1752 0.1604 (  4162 PWs)   bands (ev):

   -13.9107 -13.9107 -13.9001 -13.9001 -13.8966 -13.8966 -13.8918 -13.8918
   -13.8815 -13.8815 -13.8789 -13.8789 -13.8691 -13.8691 -13.8494 -13.8494
   -13.8432 -13.8432 -13.8328 -13.8328  -5.9535  -5.9535  -4.9427  -4.9427
     0.5784   0.5784   2.1766   2.1766   3.5379   3.5379   4.4406   4.4406
     4.8595   4.8595   5.4406   5.4406   5.7814   5.7814   6.8999   6.8999

     occupation numbers 
     1.0000   1.0000   1.0000   1.0000   1.0000   1.0000   1.0000   1.0000
     1.0000   1.0000   1.0000   1.0000   1.0000   1.0000   1.0000   1.0000
     1.0000   1.0000   1.0000   1.0000   1.0000   1.0000   1.0000   1.0000
     1.0000   1.0000   1.0000   1.0000   1.0000   1.0000   1.0000   1.0000
     1.0000   1.0000   1.0000   1.0000   1.0000   1.0000   1.0000   1.0000

          k =-0.5000 0.1752 0.4811 (  4144 PWs)   bands (ev):

   -13.9099 -13.9099 -13.9001 -13.9001 -13.8974 -13.8974 -13.8922 -13.8922
   -13.8816 -13.8816 -13.8768 -13.8768 -13.8685 -13.8685 -13.8495 -13.8495
   -13.8437 -13.8437 -13.8328 -13.8328  -5.8456  -5.8456  -4.9524  -4.9524
     0.2793   0.2793   1.7231   1.7231   3.7388   3.7388   4.4954   4.4954
     5.1775   5.1775   5.5922   5.5922   6.2492   6.2492   6.7908   6.7908

     occupation numbers 
     1.0000   1.0000   1.0000   1.0000   1.0000   1.0000   1.0000   1.0000
     1.0000   1.0000   1.0000   1.0000   1.0000   1.0000   1.0000   1.0000
     1.0000   1.0000   1.0000   1.0000   1.0000   1.0000   1.0000   1.0000
     1.0000   1.0000   1.0000   1.0000   1.0000   1.0000   1.0000   1.0000
     1.0000   1.0000   1.0000   1.0000   1.0000   1.0000   1.0000   1.0000

          k =-0.5000 0.1752 0.8019 (  4146 PWs)   bands (ev):

   -13.9086 -13.9086 -13.9008 -13.9008 -13.8982 -13.8982 -13.8930 -13.8930
   -13.8818 -13.8818 -13.8739 -13.8739 -13.8677 -13.8677 -13.8496 -13.8496
   -13.8441 -13.8441 -13.8329 -13.8329  -5.6552  -5.6552  -5.0016  -5.0016
    -0.0715  -0.0715   1.1864   1.1864   4.0526   4.0526   4.7731   4.7731
     5.3172   5.3172   5.8281   5.8281   6.4623   6.4623   6.9910   6.9910

     occupation numbers 
     1.0000   1.0000   1.0000   1.0000   1.0000   1.0000   1.0000   1.0000
     1.0000   1.0000   1.0000   1.0000   1.0000   1.0000   1.0000   1.0000
     1.0000   1.0000   1.0000   1.0000   1.0000   1.0000   1.0000   1.0000
     1.0000   1.0000   1.0000   1.0000   1.0000   1.0000   1.0000   1.0000
     1.0000   1.0000   1.0000   1.0000   1.0000   1.0000   1.0000   1.0000

          k =-0.5000 0.1752 1.1227 (  4138 PWs)   bands (ev):

   -13.9073 -13.9073 -13.9018 -13.9018 -13.8985 -13.8985 -13.8936 -13.8936
   -13.8818 -13.8818 -13.8716 -13.8716 -13.8672 -13.8672 -13.8496 -13.8496
   -13.8445 -13.8445 -13.8330 -13.8330  -5.4499  -5.4499  -5.1060  -5.1060
    -0.2748  -0.2748   0.8365   0.8365   4.4627   4.4627   5.0730   5.0730
     5.1508   5.1508   5.6744   5.6744   6.8585   6.8585   7.1317   7.1317

     occupation numbers 
     1.0000   1.0000   1.0000   1.0000   1.0000   1.0000   1.0000   1.0000
     1.0000   1.0000   1.0000   1.0000   1.0000   1.0000   1.0000   1.0000
     1.0000   1.0000   1.0000   1.0000   1.0000   1.0000   1.0000   1.0000
     1.0000   1.0000   1.0000   1.0000   1.0000   1.0000   1.0000   1.0000
     1.0000   1.0000   1.0000   1.0000   1.0000   1.0000   1.0000   1.0000

          k =-0.5000 0.5255 0.1604 (  4150 PWs)   bands (ev):

   -13.9063 -13.9063 -13.8991 -13.8991 -13.8965 -13.8965 -13.8941 -13.8941
   -13.8842 -13.8842 -13.8776 -13.8776 -13.8676 -13.8676 -13.8486 -13.8486
   -13.8445 -13.8445 -13.8330 -13.8330  -5.8039  -5.8039  -4.9030  -4.9030
     0.4001   0.4001   1.6697   1.6697   3.6664   3.6664   4.3131   4.3131
     5.1737   5.1737   5.3478   5.3478   6.0217   6.0217   6.9494   6.9494

     occupation numbers 
     1.0000   1.0000   1.0000   1.0000   1.0000   1.0000   1.0000   1.0000
     1.0000   1.0000   1.0000   1.0000   1.0000   1.0000   1.0000   1.0000
     1.0000   1.0000   1.0000   1.0000   1.0000   1.0000   1.0000   1.0000
     1.0000   1.0000   1.0000   1.0000   1.0000   1.0000   1.0000   1.0000
     1.0000   1.0000   1.0000   1.0000   1.0000   1.0000   1.0000   1.0000

          k =-0.5000 0.5255 0.4811 (  4162 PWs)   bands (ev):

   -13.9063 -13.9063 -13.9003 -13.9003 -13.8964 -13.8964 -13.8944 -13.8944
   -13.8841 -13.8841 -13.8759 -13.8759 -13.8669 -13.8669 -13.8484 -13.8484
   -13.8451 -13.8451 -13.8330 -13.8330  -5.7020  -5.7020  -4.9076  -4.9076
     0.2647   0.2647   1.4603   1.4603   3.6225   3.6225   4.1572   4.1572
     4.8271   4.8271   5.8267   5.8267   6.4129   6.4129   6.8908   6.8908

     occupation numbers 
     1.0000   1.0000   1.0000   1.0000   1.0000   1.0000   1.0000   1.0000
     1.0000   1.0000   1.0000   1.0000   1.0000   1.0000   1.0000   1.0000
     1.0000   1.0000   1.0000   1.0000   1.0000   1.0000   1.0000   1.0000
     1.0000   1.0000   1.0000   1.0000   1.0000   1.0000   1.0000   1.0000
     1.0000   1.0000   1.0000   1.0000   1.0000   1.0000   1.0000   1.0000

          k =-0.5000 0.5255 0.8019 (  4162 PWs)   bands (ev):

   -13.9063 -13.9063 -13.9021 -13.9021 -13.8965 -13.8965 -13.8945 -13.8945
   -13.8841 -13.8841 -13.8738 -13.8738 -13.8657 -13.8657 -13.8481 -13.8481
   -13.8459 -13.8459 -13.8329 -13.8329  -5.5240  -5.5240  -4.9447  -4.9447
     0.0540   0.0540   1.1629   1.1629   3.6180   3.6180   4.3289   4.3289
     4.6868   4.6868   5.8748   5.8748   6.2736   6.2736   6.8526   6.8526

     occupation numbers 
     1.0000   1.0000   1.0000   1.0000   1.0000   1.0000   1.0000   1.0000
     1.0000   1.0000   1.0000   1.0000   1.0000   1.0000   1.0000   1.0000
     1.0000   1.0000   1.0000   1.0000   1.0000   1.0000   1.0000   1.0000
     1.0000   1.0000   1.0000   1.0000   1.0000   1.0000   1.0000   1.0000
     1.0000   1.0000   1.0000   1.0000   1.0000   1.0000   1.0000   1.0000

          k =-0.5000 0.5255 1.1227 (  4148 PWs)   bands (ev):

   -13.9063 -13.9063 -13.9033 -13.9033 -13.8966 -13.8966 -13.8945 -13.8945
   -13.8841 -13.8841 -13.8723 -13.8723 -13.8646 -13.8646 -13.8475 -13.8475
   -13.8467 -13.8467 -13.8328 -13.8328  -5.3355  -5.3355  -5.0316  -5.0316
    -0.0954  -0.0954   0.9410   0.9410   3.8558   3.8558   4.2455   4.2455
     4.9368   4.9368   5.4630   5.4630   6.1411   6.1411   6.6739   6.6739

     occupation numbers 
     1.0000   1.0000   1.0000   1.0000   1.0000   1.0000   1.0000   1.0000
     1.0000   1.0000   1.0000   1.0000   1.0000   1.0000   1.0000   1.0000
     1.0000   1.0000   1.0000   1.0000   1.0000   1.0000   1.0000   1.0000
     1.0000   1.0000   1.0000   1.0000   1.0000   1.0000   1.0000   1.0000
     1.0000   1.0000   1.0000   1.0000   1.0000   1.0000   1.0000   1.0000

          k =-0.5000 0.8758 0.1604 (  4158 PWs)   bands (ev):

   -13.9053 -13.9053 -13.9005 -13.9005 -13.8946 -13.8946 -13.8922 -13.8922
   -13.8855 -13.8855 -13.8773 -13.8773 -13.8652 -13.8652 -13.8525 -13.8525
   -13.8418 -13.8418 -13.8333 -13.8333  -5.5378  -5.5378  -4.8863  -4.8863
     0.1543   0.1543   0.9700   0.9700   3.9550   3.9550   4.4895   4.4895
     5.3420   5.3420   5.5152   5.5152   6.0553   6.0553   6.8351   6.8351

     occupation numbers 
     1.0000   1.0000   1.0000   1.0000   1.0000   1.0000   1.0000   1.0000
     1.0000   1.0000   1.0000   1.0000   1.0000   1.0000   1.0000   1.0000
     1.0000   1.0000   1.0000   1.0000   1.0000   1.0000   1.0000   1.0000
     1.0000   1.0000   1.0000   1.0000   1.0000   1.0000   1.0000   1.0000
     1.0000   1.0000   1.0000   1.0000   1.0000   1.0000   1.0000   1.0000

          k =-0.5000 0.8758 0.4811 (  4174 PWs)   bands (ev):

   -13.9070 -13.9070 -13.9021 -13.9021 -13.8947 -13.8947 -13.8914 -13.8914
   -13.8850 -13.8850 -13.8765 -13.8765 -13.8642 -13.8642 -13.8521 -13.8521
   -13.8421 -13.8421 -13.8332 -13.8332  -5.4497  -5.4497  -4.8774  -4.8774
     0.2085   0.2085   0.9718   0.9718   3.5184   3.5184   4.2771   4.2771
     4.7518   4.7518   5.7694   5.7694   5.9738   5.9738   6.7292   6.7292

     occupation numbers 
     1.0000   1.0000   1.0000   1.0000   1.0000   1.0000   1.0000   1.0000
     1.0000   1.0000   1.0000   1.0000   1.0000   1.0000   1.0000   1.0000
     1.0000   1.0000   1.0000   1.0000   1.0000   1.0000   1.0000   1.0000
     1.0000   1.0000   1.0000   1.0000   1.0000   1.0000   1.0000   1.0000
     1.0000   1.0000   1.0000   1.0000   1.0000   1.0000   1.0000   1.0000

          k =-0.5000 0.8758 0.8019 (  4168 PWs)   bands (ev):

   -13.9093 -13.9093 -13.9044 -13.9044 -13.8947 -13.8947 -13.8907 -13.8907
   -13.8843 -13.8843 -13.8754 -13.8754 -13.8625 -13.8625 -13.8515 -13.8515
   -13.8424 -13.8424 -13.8331 -13.8331  -5.3001  -5.3001  -4.8851  -4.8851
     0.2407   0.2407   0.9860   0.9860   3.1663   3.1663   3.9488   3.9488
     4.5811   4.5811   5.2421   5.2421   5.7860   5.7860   6.5509   6.5509

     occupation numbers 
     1.0000   1.0000   1.0000   1.0000   1.0000   1.0000   1.0000   1.0000
     1.0000   1.0000   1.0000   1.0000   1.0000   1.0000   1.0000   1.0000
     1.0000   1.0000   1.0000   1.0000   1.0000   1.0000   1.0000   1.0000
     1.0000   1.0000   1.0000   1.0000   1.0000   1.0000   1.0000   1.0000
     1.0000   1.0000   1.0000   1.0000   1.0000   1.0000   1.0000   1.0000

          k =-0.5000 0.8758 1.1227 (  4152 PWs)   bands (ev):

   -13.9108 -13.9108 -13.9060 -13.9060 -13.8947 -13.8947 -13.8905 -13.8905
   -13.8839 -13.8839 -13.8746 -13.8746 -13.8611 -13.8611 -13.8511 -13.8511
   -13.8427 -13.8427 -13.8330 -13.8330  -5.1493  -5.1493  -4.9324  -4.9324
     0.2168   0.2168   1.0159   1.0159   3.1777   3.1777   3.5264   3.5264
     4.5749   4.5749   4.8888   4.8888   5.7128   5.7128   6.2050   6.2050

     occupation numbers 
     1.0000   1.0000   1.0000   1.0000   1.0000   1.0000   1.0000   1.0000
     1.0000   1.0000   1.0000   1.0000   1.0000   1.0000   1.0000   1.0000
     1.0000   1.0000   1.0000   1.0000   1.0000   1.0000   1.0000   1.0000
     1.0000   1.0000   1.0000   1.0000   1.0000   1.0000   1.0000   1.0000
     1.0000   1.0000   1.0000   1.0000   1.0000   1.0000   1.0000   1.0000

          k =-0.5000 1.2261 0.1604 (  4186 PWs)   bands (ev):

   -13.9062 -13.9062 -13.9045 -13.9045 -13.8908 -13.8908 -13.8901 -13.8901
   -13.8831 -13.8831 -13.8793 -13.8793 -13.8618 -13.8618 -13.8576 -13.8576
   -13.8377 -13.8377 -13.8346 -13.8346  -5.2287  -5.2287  -4.9851  -4.9851
     0.0916   0.0916   0.3794   0.3794   4.4222   4.4222   4.7672   4.7672
     5.2547   5.2547   5.4837   5.4837   6.1737   6.1737   6.5104   6.5104

     occupation numbers 
     1.0000   1.0000   1.0000   1.0000   1.0000   1.0000   1.0000   1.0000
     1.0000   1.0000   1.0000   1.0000   1.0000   1.0000   1.0000   1.0000
     1.0000   1.0000   1.0000   1.0000   1.0000   1.0000   1.0000   1.0000
     1.0000   1.0000   1.0000   1.0000   1.0000   1.0000   1.0000   1.0000
     1.0000   1.0000   1.0000   1.0000   1.0000   1.0000   1.0000   1.0000

          k =-0.5000 1.2261 0.4811 (  4174 PWs)   bands (ev):

   -13.9083 -13.9083 -13.9066 -13.9066 -13.8909 -13.8909 -13.8896 -13.8896
   -13.8823 -13.8823 -13.8788 -13.8788 -13.8607 -13.8607 -13.8568 -13.8568
   -13.8378 -13.8378 -13.8346 -13.8346  -5.1643  -5.1643  -4.9510  -4.9510
     0.2259   0.2259   0.4893   0.4893   3.8067   3.8067   4.3190   4.3190
     4.8408   4.8408   5.2820   5.2820   5.8900   5.8900   6.3211   6.3211

     occupation numbers 
     1.0000   1.0000   1.0000   1.0000   1.0000   1.0000   1.0000   1.0000
     1.0000   1.0000   1.0000   1.0000   1.0000   1.0000   1.0000   1.0000
     1.0000   1.0000   1.0000   1.0000   1.0000   1.0000   1.0000   1.0000
     1.0000   1.0000   1.0000   1.0000   1.0000   1.0000   1.0000   1.0000
     1.0000   1.0000   1.0000   1.0000   1.0000   1.0000   1.0000   1.0000

          k =-0.5000 1.2261 0.8019 (  4170 PWs)   bands (ev):

   -13.9112 -13.9112 -13.9094 -13.9094 -13.8911 -13.8911 -13.8894 -13.8894
   -13.8812 -13.8812 -13.8780 -13.8780 -13.8591 -13.8591 -13.8555 -13.8555
   -13.8380 -13.8380 -13.8346 -13.8346  -5.0624  -5.0624  -4.9083  -4.9083
     0.4285   0.4285   0.6792   0.6792   3.2316   3.2316   3.7389   3.7389
     4.2867   4.2867   4.7399   4.7399   5.7622   5.7622   6.1302   6.1302

     occupation numbers 
     1.0000   1.0000   1.0000   1.0000   1.0000   1.0000   1.0000   1.0000
     1.0000   1.0000   1.0000   1.0000   1.0000   1.0000   1.0000   1.0000
     1.0000   1.0000   1.0000   1.0000   1.0000   1.0000   1.0000   1.0000
     1.0000   1.0000   1.0000   1.0000   1.0000   1.0000   1.0000   1.0000
     1.0000   1.0000   1.0000   1.0000   1.0000   1.0000   1.0000   1.0000

          k =-0.5000 1.2261 1.1227 (  4154 PWs)   bands (ev):

   -13.9131 -13.9131 -13.9113 -13.9113 -13.8914 -13.8914 -13.8893 -13.8893
   -13.8805 -13.8805 -13.8774 -13.8774 -13.8578 -13.8578 -13.8546 -13.8546
   -13.8381 -13.8381 -13.8346 -13.8346  -4.9724  -4.9724  -4.8921  -4.8921
     0.5655   0.5655   0.8675   0.8675   3.0216   3.0216   3.2702   3.2702
     3.9146   3.9146   4.2235   4.2235   5.8561   5.8561   6.0393   6.0393

     occupation numbers 
     1.0000   1.0000   1.0000   1.0000   1.0000   1.0000   1.0000   1.0000
     1.0000   1.0000   1.0000   1.0000   1.0000   1.0000   1.0000   1.0000
     1.0000   1.0000   1.0000   1.0000   1.0000   1.0000   1.0000   1.0000
     1.0000   1.0000   1.0000   1.0000   1.0000   1.0000   1.0000   1.0000
     1.0000   1.0000   1.0000   1.0000   1.0000   1.0000   1.0000   1.0000

     highest occupied level (ev):     7.2359

!    total energy              =    -827.74008190 Ry
     estimated scf accuracy    <          4.5E-10 Ry

     The total energy is the sum of the following terms:
     one-electron contribution =    -269.07960544 Ry
     hartree contribution      =     183.28811753 Ry
     xc contribution           =    -308.94333980 Ry
     ewald contribution        =    -432.88643981 Ry
     DFT-D3 Dispersion         =      -0.11881437 Ry

     convergence has been achieved in  12 iterations

     Forces acting on atoms (cartesian axes, Ry/au):

     atom    1 type  2   force =    -0.00334250    0.00000000   -0.00068681
     atom    2 type  1   force =     0.00340330    0.00000000    0.00027496
     atom    3 type  2   force =     0.00334250    0.00000000   -0.00068681
     atom    4 type  1   force =    -0.00340330    0.00000000    0.00027496
     atom    5 type  2   force =    -0.00334250    0.00000000    0.00068681
     atom    6 type  1   force =     0.00340330    0.00000000   -0.00027496
     atom    7 type  2   force =     0.00334250   -0.00000000    0.00068681
     atom    8 type  1   force =    -0.00340330    0.00000000   -0.00027496
     The non-local contrib.  to forces
     atom    1 type  2   force =    -0.10138169    0.00000000    0.11535211
     atom    2 type  1   force =     0.34270329    0.00000000    0.30310292
     atom    3 type  2   force =     0.10138169    0.00000000    0.11535211
     atom    4 type  1   force =    -0.34270329    0.00000000    0.30310292
     atom    5 type  2   force =    -0.10138169    0.00000000   -0.11535211
     atom    6 type  1   force =     0.34270329    0.00000000   -0.30310292
     atom    7 type  2   force =     0.10138169    0.00000000   -0.11535211
     atom    8 type  1   force =    -0.34270329    0.00000000   -0.30310292
     The ionic contribution  to forces
     atom    1 type  2   force =     1.06176443    0.00000000   -1.35390176
     atom    2 type  1   force =    -0.59349762    0.00000000   -0.79910437
     atom    3 type  2   force =    -1.06176443    0.00000000   -1.35390176
     atom    4 type  1   force =     0.59349762    0.00000000   -0.79910437
     atom    5 type  2   force =     1.06176443    0.00000000    1.35390176
     atom    6 type  1   force =    -0.59349762    0.00000000    0.79910437
     atom    7 type  2   force =    -1.06176443    0.00000000    1.35390176
     atom    8 type  1   force =     0.59349762    0.00000000    0.79910437
     The local contribution  to forces
     atom    1 type  2   force =    -0.97473609    0.00000000    1.24906253
     atom    2 type  1   force =     0.26145412   -0.00000000    0.50015511
     atom    3 type  2   force =     0.97473609    0.00000000    1.24906253
     atom    4 type  1   force =    -0.26145412   -0.00000000    0.50015511
     atom    5 type  2   force =    -0.97473609    0.00000000   -1.24906253
     atom    6 type  1   force =     0.26145412   -0.00000000   -0.50015511
     atom    7 type  2   force =     0.97473609    0.00000000   -1.24906253
     atom    8 type  1   force =    -0.26145412   -0.00000000   -0.50015511
     The core correction contribution to forces
     atom    1 type  2   force =     0.01161683   -0.00000000   -0.01294920
     atom    2 type  1   force =    -0.00673768   -0.00000000   -0.00488921
     atom    3 type  2   force =    -0.01161683   -0.00000000   -0.01294920
     atom    4 type  1   force =     0.00673768   -0.00000000   -0.00488921
     atom    5 type  2   force =     0.01161683   -0.00000000    0.01294920
     atom    6 type  1   force =    -0.00673768   -0.00000000    0.00488921
     atom    7 type  2   force =    -0.01161683   -0.00000000    0.01294920
     atom    8 type  1   force =     0.00673768   -0.00000000    0.00488921
     The Hubbard contrib.    to forces
     atom    1 type  2   force =     0.00000000    0.00000000    0.00000000
     atom    2 type  1   force =     0.00000000    0.00000000    0.00000000
     atom    3 type  2   force =     0.00000000    0.00000000    0.00000000
     atom    4 type  1   force =     0.00000000    0.00000000    0.00000000
     atom    5 type  2   force =     0.00000000    0.00000000    0.00000000
     atom    6 type  1   force =     0.00000000    0.00000000    0.00000000
     atom    7 type  2   force =     0.00000000    0.00000000    0.00000000
     atom    8 type  1   force =     0.00000000    0.00000000    0.00000000
     The SCF correction term to forces
     atom    1 type  2   force =     0.00000084   -0.00000000   -0.00000047
     atom    2 type  1   force =     0.00001399    0.00000000    0.00001198
     atom    3 type  2   force =    -0.00000084    0.00000000   -0.00000047
     atom    4 type  1   force =    -0.00001399   -0.00000000    0.00001198
     atom    5 type  2   force =     0.00000084   -0.00000000    0.00000047
     atom    6 type  1   force =     0.00001399    0.00000000   -0.00001198
     atom    7 type  2   force =    -0.00000084    0.00000000    0.00000047
     atom    8 type  1   force =    -0.00001399    0.00000000   -0.00001198

     DFT-D3 dispersion contribution to forces:
     atom    1 type  2   force =    -0.00060683   -0.00000000    0.00174998
     atom    2 type  1   force =    -0.00053279    0.00000000    0.00099854
     atom    3 type  2   force =     0.00060683    0.00000000    0.00174998
     atom    4 type  1   force =     0.00053279   -0.00000000    0.00099854
     atom    5 type  2   force =    -0.00060683    0.00000000   -0.00174998
     atom    6 type  1   force =    -0.00053279   -0.00000000   -0.00099854
     atom    7 type  2   force =     0.00060683   -0.00000000   -0.00174998
     atom    8 type  1   force =     0.00053279    0.00000000   -0.00099854

     Total force =     0.009654     Total SCF correction =     0.000037

     DFT-D3 dispersion Force =     0.004341

     Writing all to output data dir ./tmp/SnSe_pnma.save/ :
     XML data file, charge density, pseudopotentials, collected wavefunctions
 
     init_run     :      1.26s CPU      1.39s WALL (       1 calls)
     electrons    :     24.44s CPU     26.31s WALL (       1 calls)
     forces       :      0.47s CPU      0.57s WALL (       1 calls)
     force_dftd3  :      0.04s CPU      0.06s WALL (       1 calls)

     Called by init_run:
     wfcinit      :      0.69s CPU      0.71s WALL (       1 calls)
     wfcinit:atom :      0.01s CPU      0.01s WALL (      11 calls)
     wfcinit:wfcr :      0.59s CPU      0.59s WALL (      11 calls)
     potinit      :      0.09s CPU      0.11s WALL (       1 calls)
     hinit0       :      0.19s CPU      0.20s WALL (       1 calls)

     Called by electrons:
     c_bands      :     17.97s CPU     18.25s WALL (      12 calls)
     sum_band     :      4.09s CPU      4.93s WALL (      12 calls)
     v_of_rho     :      0.80s CPU      0.82s WALL (      13 calls)
     v_h          :      0.05s CPU      0.05s WALL (      13 calls)
     v_xc         :      0.80s CPU      0.83s WALL (      14 calls)
     newd         :      1.58s CPU      2.36s WALL (      13 calls)
     mix_rho      :      0.09s CPU      0.09s WALL (      12 calls)
     energy_dftd3 :      0.05s CPU      0.05s WALL (       1 calls)

     Called by c_bands:
     init_us_2    :      0.56s CPU      0.57s WALL (     286 calls)
     cegterg      :     15.92s CPU     16.12s WALL (     132 calls)

     Called by sum_band:
     sum_band:wei :      0.00s CPU      0.00s WALL (      12 calls)
     sum_band:loo :      2.43s CPU      2.47s WALL (      12 calls)
     sum_band:buf :      0.04s CPU      0.04s WALL (     132 calls)
     sum_band:ini :      0.25s CPU      0.25s WALL (     132 calls)
     sum_band:cal :      0.38s CPU      0.38s WALL (     132 calls)
     sum_band:bec :      0.01s CPU      0.01s WALL (     132 calls)
     addusdens    :      1.45s CPU      2.16s WALL (      12 calls)
                                        0.00s GPU  (      12 calls)
     addusd:skk   :      0.01s CPU      0.01s WALL (      24 calls)
                                        0.00s GPU  (      24 calls)

     Called by *egterg:
     cdiaghg      :      0.96s CPU      0.97s WALL (     601 calls)
     cegterg:over :      0.89s CPU      0.90s WALL (     469 calls)
     cegterg:upda :      0.49s CPU      0.50s WALL (     469 calls)
     cegterg:last :      1.19s CPU      1.19s WALL (     320 calls)
     h_psi        :     11.14s CPU     11.28s WALL (     612 calls)
     s_psi        :      1.26s CPU      1.26s WALL (     612 calls)
     g_psi        :      0.05s CPU      0.05s WALL (     469 calls)

     Called by h_psi:
     h_psi:calbec :      1.22s CPU      1.23s WALL (     612 calls)
     vloc_psi     :      8.50s CPU      8.63s WALL (     612 calls)
     add_vuspsi   :      1.30s CPU      1.31s WALL (     612 calls)

     General routines
     calbec       :      1.73s CPU      1.74s WALL (     788 calls)
     fft          :      0.33s CPU      0.34s WALL (     178 calls)
     ffts         :      0.01s CPU      0.01s WALL (      25 calls)
     fftw         :      6.89s CPU      6.99s WALL (   36940 calls)
     interpolate  :      0.04s CPU      0.04s WALL (      13 calls)
 
     Parallel routines
 
     PWSCF        :     26.40s CPU     28.89s WALL

 
   This run was terminated on:  14:38:26  20May2026            

=------------------------------------------------------------------------------=
   JOB DONE.
=------------------------------------------------------------------------------=
