
     Program PWSCF v.7.3.1 starts on 20May2026 at 17:15:20 

     This program is part of the open-source Quantum ESPRESSO suite
     for quantum simulation of materials; please cite
         "P. Giannozzi et al., J. Phys.:Condens. Matter 21 395502 (2009);
         "P. Giannozzi et al., J. Phys.:Condens. Matter 29 465901 (2017);
         "P. Giannozzi et al., J. Chem. Phys. 152 154105 (2020);
          URL http://www.quantum-espresso.org", 
     in publications or presentations arising from this work. More details at
     http://www.quantum-espresso.org/quote

     Parallel version (MPI & OpenMP), running on       6 processor cores
     Number of MPI processes:                 6
     Threads/MPI process:                     1

     MPI processes distributed on     1 nodes
     10640 MiB available memory on the printing compute node when the environment starts
 
     Waiting for input...
     Reading input from standard input

     Current dimensions of program PWSCF are:
     Max number of different atomic species (ntypx) = 10
     Max number of k-points (npk) =  40000
     Max angular momentum in pseudopotentials (lmaxx) =  4
 
     K-points division:     npool     =       3
     R & G space division:  proc/nbgrp/npool/nimage =       2
     Subspace diagonalization in iterative solution of the eigenvalue problem:
     a serial algorithm will be used

 
     Parallelization info
     --------------------
     sticks:   dense  smooth     PW     G-vecs:    dense   smooth      PW
     Min        3421    1369    393               139511    35294    5399
     Max        3422    1370    394               139512    35295    5400
     Sum        6843    2739    787               279023    70589   10799
 
     Using Slab Decomposition
 


     bravais-lattice index     =            8
     lattice parameter (alat)  =      21.7696  a.u.
     unit-cell volume          =    1477.2941 (a.u.)^3
     number of atoms/cell      =            8
     number of atomic types    =            2
     number of electrons       =        80.00
     number of Kohn-Sham states=           40
     kinetic-energy cutoff     =      50.0000  Ry
     charge density cutoff     =     500.0000  Ry
     scf convergence threshold =      1.0E-08
     mixing beta               =       0.7000
     number of iterations used =            8  plain     mixing
     Exchange-correlation= SLA  PW   PBE  PBE
                           (   1   4   3   4   0   0   0)

     celldm(1)=  21.769645  celldm(2)=   0.362101  celldm(3)=   0.395443
     celldm(4)=   0.000000  celldm(5)=   0.000000  celldm(6)=   0.000000

     crystal axes: (cart. coord. in units of alat)
               a(1) = (   1.000000   0.000000   0.000000 )  
               a(2) = (   0.000000   0.362101   0.000000 )  
               a(3) = (   0.000000   0.000000   0.395443 )  

     reciprocal axes: (cart. coord. in units 2 pi/alat)
               b(1) = (  1.000000  0.000000  0.000000 )  
               b(2) = (  0.000000  2.761663  0.000000 )  
               b(3) = (  0.000000  0.000000  2.528811 )  


     PseudoPot. # 1 for Sn read from file:
     ../pseudo/Sn_pbe_v1.uspp.F.UPF
     MD5 check sum: 4cf58ce39ec5d5d420df3dd08604eb00
     Pseudo is Ultrasoft + core correction, Zval = 14.0
     Generated by new atomic code, or converted to UPF format
     Using radial grid of  891 points,  6 beta functions with: 
                l(1) =   0
                l(2) =   0
                l(3) =   1
                l(4) =   1
                l(5) =   2
                l(6) =   2
     Q(r) pseudized with  6 coefficients,  rinner =    1.200   1.200   1.200
                                                       1.200   1.200

     PseudoPot. # 2 for Se read from file:
     ../pseudo/Se_pbe_v1.uspp.F.UPF
     MD5 check sum: 1b3568f3a8ae88f9a2a0ad0698632c85
     Pseudo is Ultrasoft + core correction, Zval =  6.0
     Generated by new atomic code, or converted to UPF format
     Using radial grid of  877 points,  6 beta functions with: 
                l(1) =   0
                l(2) =   0
                l(3) =   1
                l(4) =   1
                l(5) =   2
                l(6) =   2
     Q(r) pseudized with  8 coefficients,  rinner =    1.300   1.300   1.300
                                                       1.300   1.300

     atomic species   valence    mass     pseudopotential
     Sn               14.00   118.71000     Sn( 1.00)
     Se                6.00    78.97100     Se( 1.00)

      8 Sym. Ops., with inversion, found ( 6 have fractional translation)


                                    s                        frac. trans.

      isym =  1     identity                                     

 cryst.   s( 1) = (     1          0          0      )
                  (     0          1          0      )
                  (     0          0          1      )

 cart.    s( 1) = (  1.0000000  0.0000000  0.0000000 )
                  (  0.0000000  1.0000000  0.0000000 )
                  (  0.0000000  0.0000000  1.0000000 )


      isym =  2     180 deg rotation - cart. axis [0,0,1]        

 cryst.   s( 2) = (    -1          0          0      )    f =(  0.5000000 )
                  (     0         -1          0      )       (  0.0000000 )
                  (     0          0          1      )       ( -0.5000000 )

 cart.    s( 2) = ( -1.0000000  0.0000000  0.0000000 )    f =(  0.5000000 )
                  (  0.0000000 -1.0000000  0.0000000 )       (  0.0000000 )
                  (  0.0000000  0.0000000  1.0000000 )       ( -0.1977214 )


      isym =  3     180 deg rotation - cart. axis [0,1,0]        

 cryst.   s( 3) = (    -1          0          0      )    f =(  0.0000000 )
                  (     0          1          0      )       ( -0.5000000 )
                  (     0          0         -1      )       (  0.0000000 )

 cart.    s( 3) = ( -1.0000000  0.0000000  0.0000000 )    f =(  0.0000000 )
                  (  0.0000000  1.0000000  0.0000000 )       ( -0.1810503 )
                  (  0.0000000  0.0000000 -1.0000000 )       (  0.0000000 )


      isym =  4     180 deg rotation - cart. axis [1,0,0]        

 cryst.   s( 4) = (     1          0          0      )    f =(  0.5000000 )
                  (     0         -1          0      )       (  0.5000000 )
                  (     0          0         -1      )       (  0.5000000 )

 cart.    s( 4) = (  1.0000000  0.0000000  0.0000000 )    f =(  0.5000000 )
                  (  0.0000000 -1.0000000  0.0000000 )       (  0.1810503 )
                  (  0.0000000  0.0000000 -1.0000000 )       (  0.1977214 )


      isym =  5     inversion                                    

 cryst.   s( 5) = (    -1          0          0      )
                  (     0         -1          0      )
                  (     0          0         -1      )

 cart.    s( 5) = ( -1.0000000  0.0000000  0.0000000 )
                  (  0.0000000 -1.0000000  0.0000000 )
                  (  0.0000000  0.0000000 -1.0000000 )


      isym =  6     inv. 180 deg rotation - cart. axis [0,0,1]   

 cryst.   s( 6) = (     1          0          0      )    f =(  0.5000000 )
                  (     0          1          0      )       (  0.0000000 )
                  (     0          0         -1      )       (  0.5000000 )

 cart.    s( 6) = (  1.0000000  0.0000000  0.0000000 )    f =(  0.5000000 )
                  (  0.0000000  1.0000000  0.0000000 )       (  0.0000000 )
                  (  0.0000000  0.0000000 -1.0000000 )       (  0.1977214 )


      isym =  7     inv. 180 deg rotation - cart. axis [0,1,0]   

 cryst.   s( 7) = (     1          0          0      )    f =(  0.0000000 )
                  (     0         -1          0      )       (  0.5000000 )
                  (     0          0          1      )       (  0.0000000 )

 cart.    s( 7) = (  1.0000000  0.0000000  0.0000000 )    f =(  0.0000000 )
                  (  0.0000000 -1.0000000  0.0000000 )       (  0.1810503 )
                  (  0.0000000  0.0000000  1.0000000 )       (  0.0000000 )


      isym =  8     inv. 180 deg rotation - cart. axis [1,0,0]   

 cryst.   s( 8) = (    -1          0          0      )    f =(  0.5000000 )
                  (     0          1          0      )       ( -0.5000000 )
                  (     0          0          1      )       ( -0.5000000 )

 cart.    s( 8) = ( -1.0000000  0.0000000  0.0000000 )    f =(  0.5000000 )
                  (  0.0000000  1.0000000  0.0000000 )       ( -0.1810503 )
                  (  0.0000000  0.0000000  1.0000000 )       ( -0.1977214 )


     point group D_2h (mmm) 
     there are  8 classes
     the character table:

       E     C2    C2'   C2''  i     s_v   s_v'  s_v''
A_g    1.00  1.00  1.00  1.00  1.00  1.00  1.00  1.00
B_1g   1.00  1.00 -1.00 -1.00  1.00  1.00 -1.00 -1.00
B_2g   1.00 -1.00  1.00 -1.00  1.00 -1.00  1.00 -1.00
B_3g   1.00 -1.00 -1.00  1.00  1.00 -1.00 -1.00  1.00
A_u    1.00  1.00  1.00  1.00 -1.00 -1.00 -1.00 -1.00
B_1u   1.00  1.00 -1.00 -1.00 -1.00 -1.00  1.00  1.00
B_2u   1.00 -1.00  1.00 -1.00 -1.00  1.00 -1.00  1.00
B_3u   1.00 -1.00 -1.00  1.00 -1.00  1.00  1.00 -1.00

     the symmetry operations in each class and the name of the first element:

     E        1
          identity                                               
     C2       2
          180 deg rotation - cart. axis [0,0,1]                  
     C2'      4
          180 deg rotation - cart. axis [1,0,0]                  
     C2''     3
          180 deg rotation - cart. axis [0,1,0]                  
     i        5
          inversion                                              
     s_v      6
          inv. 180 deg rotation - cart. axis [0,0,1]             
     s_v'     8
          inv. 180 deg rotation - cart. axis [1,0,0]             
     s_v''    7
          inv. 180 deg rotation - cart. axis [0,1,0]             

   Cartesian axes

     site n.     atom                  positions (alat units)
         1        Se     tau(   1) = (   0.8549563   0.0905252   0.1910969  )
         2        Sn     tau(   2) = (   0.1165395   0.0905252   0.0444031  )
         3        Se     tau(   3) = (   0.6450437   0.2715755   0.3888183  )
         4        Sn     tau(   4) = (   0.3834605   0.2715755   0.2421244  )
         5        Se     tau(   5) = (   0.3549563   0.0905252   0.0066244  )
         6        Sn     tau(   6) = (   0.6165395   0.0905252   0.1533183  )
         7        Se     tau(   7) = (   0.1450437   0.2715755   0.2043458  )
         8        Sn     tau(   8) = (   0.8834605   0.2715755   0.3510396  )

     --------------------------------------------
     DFT-D3 Dispersion Correction (3-body terms):
     --------------------------------------------
       Reference C6 values for interpolation: 

         atom   Coordination number   C6
         Se         0.000           427.35
         Se         0.990           427.57
         Se         1.981           421.05
         Sn         0.000          1255.14
         Sn         0.951          1084.09
         Sn         1.950          1010.83
         Sn         2.926           818.29
         Sn         3.912           672.20

       Values used:

         atom   Coordination number  R0_AB[au]  C6      C8
         Se         3.423            3.332    421.05  29958.36
         Sn         4.126            3.957    672.72  84433.29
         Se         3.423            3.332    421.05  29958.36
         Sn         4.126            3.957    672.72  84433.29
         Se         3.423            3.332    421.05  29958.36
         Sn         4.126            3.957    672.72  84433.29
         Se         3.423            3.332    421.05  29958.36
         Sn         4.126            3.957    672.72  84433.29

         Molecular C6 ( Ry / a.u.^6 ) =     34510.75


   Crystallographic axes

     site n.     atom                  positions (cryst. coord.)
         1        Se     tau(   1) = (  0.8549563  0.2500000  0.4832481  )
         2        Sn     tau(   2) = (  0.1165395  0.2500000  0.1122870  )
         3        Se     tau(   3) = (  0.6450437  0.7500000  0.9832481  )
         4        Sn     tau(   4) = (  0.3834605  0.7500000  0.6122870  )
         5        Se     tau(   5) = (  0.3549563  0.2500000  0.0167519  )
         6        Sn     tau(   6) = (  0.6165395  0.2500000  0.3877130  )
         7        Se     tau(   7) = (  0.1450437  0.7500000  0.5167519  )
         8        Sn     tau(   8) = (  0.8834605  0.7500000  0.8877130  )

     number of k points=    32
                       cart. coord. in units 2pi/alat
        k(    1) = (   0.1666667   0.1726039   0.1580507), wk =   0.0833333
        k(    2) = (   0.1666667   0.1726039   0.4741521), wk =   0.0833333
        k(    3) = (   0.1666667   0.1726039   0.7902535), wk =   0.0833333
        k(    4) = (   0.1666667   0.1726039   1.1063550), wk =   0.0833333
        k(    5) = (   0.1666667   0.5178118   0.1580507), wk =   0.0833333
        k(    6) = (   0.1666667   0.5178118   0.4741521), wk =   0.0833333
        k(    7) = (   0.1666667   0.5178118   0.7902535), wk =   0.0833333
        k(    8) = (   0.1666667   0.5178118   1.1063550), wk =   0.0833333
        k(    9) = (   0.1666667   0.8630196   0.1580507), wk =   0.0833333
        k(   10) = (   0.1666667   0.8630196   0.4741521), wk =   0.0833333
        k(   11) = (   0.1666667   0.8630196   0.7902535), wk =   0.0833333
        k(   12) = (   0.1666667   0.8630196   1.1063550), wk =   0.0833333
        k(   13) = (   0.1666667   1.2082275   0.1580507), wk =   0.0833333
        k(   14) = (   0.1666667   1.2082275   0.4741521), wk =   0.0833333
        k(   15) = (   0.1666667   1.2082275   0.7902535), wk =   0.0833333
        k(   16) = (   0.1666667   1.2082275   1.1063550), wk =   0.0833333
        k(   17) = (  -0.5000000   0.1726039   0.1580507), wk =   0.0416667
        k(   18) = (  -0.5000000   0.1726039   0.4741521), wk =   0.0416667
        k(   19) = (  -0.5000000   0.1726039   0.7902535), wk =   0.0416667
        k(   20) = (  -0.5000000   0.1726039   1.1063550), wk =   0.0416667
        k(   21) = (  -0.5000000   0.5178118   0.1580507), wk =   0.0416667
        k(   22) = (  -0.5000000   0.5178118   0.4741521), wk =   0.0416667
        k(   23) = (  -0.5000000   0.5178118   0.7902535), wk =   0.0416667
        k(   24) = (  -0.5000000   0.5178118   1.1063550), wk =   0.0416667
        k(   25) = (  -0.5000000   0.8630196   0.1580507), wk =   0.0416667
        k(   26) = (  -0.5000000   0.8630196   0.4741521), wk =   0.0416667
        k(   27) = (  -0.5000000   0.8630196   0.7902535), wk =   0.0416667
        k(   28) = (  -0.5000000   0.8630196   1.1063550), wk =   0.0416667
        k(   29) = (  -0.5000000   1.2082275   0.1580507), wk =   0.0416667
        k(   30) = (  -0.5000000   1.2082275   0.4741521), wk =   0.0416667
        k(   31) = (  -0.5000000   1.2082275   0.7902535), wk =   0.0416667
        k(   32) = (  -0.5000000   1.2082275   1.1063550), wk =   0.0416667

                       cryst. coord.
        k(    1) = (   0.1666667   0.0625000   0.0625000), wk =   0.0833333
        k(    2) = (   0.1666667   0.0625000   0.1875000), wk =   0.0833333
        k(    3) = (   0.1666667   0.0625000   0.3125000), wk =   0.0833333
        k(    4) = (   0.1666667   0.0625000   0.4375000), wk =   0.0833333
        k(    5) = (   0.1666667   0.1875000   0.0625000), wk =   0.0833333
        k(    6) = (   0.1666667   0.1875000   0.1875000), wk =   0.0833333
        k(    7) = (   0.1666667   0.1875000   0.3125000), wk =   0.0833333
        k(    8) = (   0.1666667   0.1875000   0.4375000), wk =   0.0833333
        k(    9) = (   0.1666667   0.3125000   0.0625000), wk =   0.0833333
        k(   10) = (   0.1666667   0.3125000   0.1875000), wk =   0.0833333
        k(   11) = (   0.1666667   0.3125000   0.3125000), wk =   0.0833333
        k(   12) = (   0.1666667   0.3125000   0.4375000), wk =   0.0833333
        k(   13) = (   0.1666667   0.4375000   0.0625000), wk =   0.0833333
        k(   14) = (   0.1666667   0.4375000   0.1875000), wk =   0.0833333
        k(   15) = (   0.1666667   0.4375000   0.3125000), wk =   0.0833333
        k(   16) = (   0.1666667   0.4375000   0.4375000), wk =   0.0833333
        k(   17) = (  -0.5000000   0.0625000   0.0625000), wk =   0.0416667
        k(   18) = (  -0.5000000   0.0625000   0.1875000), wk =   0.0416667
        k(   19) = (  -0.5000000   0.0625000   0.3125000), wk =   0.0416667
        k(   20) = (  -0.5000000   0.0625000   0.4375000), wk =   0.0416667
        k(   21) = (  -0.5000000   0.1875000   0.0625000), wk =   0.0416667
        k(   22) = (  -0.5000000   0.1875000   0.1875000), wk =   0.0416667
        k(   23) = (  -0.5000000   0.1875000   0.3125000), wk =   0.0416667
        k(   24) = (  -0.5000000   0.1875000   0.4375000), wk =   0.0416667
        k(   25) = (  -0.5000000   0.3125000   0.0625000), wk =   0.0416667
        k(   26) = (  -0.5000000   0.3125000   0.1875000), wk =   0.0416667
        k(   27) = (  -0.5000000   0.3125000   0.3125000), wk =   0.0416667
        k(   28) = (  -0.5000000   0.3125000   0.4375000), wk =   0.0416667
        k(   29) = (  -0.5000000   0.4375000   0.0625000), wk =   0.0416667
        k(   30) = (  -0.5000000   0.4375000   0.1875000), wk =   0.0416667
        k(   31) = (  -0.5000000   0.4375000   0.3125000), wk =   0.0416667
        k(   32) = (  -0.5000000   0.4375000   0.4375000), wk =   0.0416667

     Dense  grid:   279023 G-vectors     FFT dimensions: ( 160,  60,  64)

     Smooth grid:    70589 G-vectors     FFT dimensions: ( 100,  36,  40)

     Dynamical RAM for                 wfc:       2.69 MB

     Dynamical RAM for     wfc (w. buffer):      32.30 MB

     Dynamical RAM for           str. fact:       4.26 MB

     Dynamical RAM for           local pot:       0.00 MB

     Dynamical RAM for          nlocal pot:       9.69 MB

     Dynamical RAM for                qrad:       3.59 MB

     Dynamical RAM for          rho,v,vnew:      13.42 MB

     Dynamical RAM for               rhoin:       4.47 MB

     Dynamical RAM for            rho*nmix:      34.06 MB

     Dynamical RAM for           G-vectors:       8.25 MB

     Dynamical RAM for          h,s,v(r/c):       0.29 MB

     Dynamical RAM for          <psi|beta>:       0.09 MB

     Dynamical RAM for                 psi:       5.38 MB

     Dynamical RAM for                hpsi:       5.38 MB

     Dynamical RAM for                spsi:       5.38 MB

     Dynamical RAM for      wfcinit/wfcrot:       7.06 MB

     Dynamical RAM for           addusdens:     136.24 MB

     Dynamical RAM for          addusforce:     140.16 MB

     Estimated static dynamical RAM per process >      94.08 MB

     Estimated max dynamical RAM per process >     268.30 MB

     Estimated total dynamical RAM >       1.44 GB

     Initial potential from superposition of free atoms

     starting charge      75.9995, renormalised to      80.0000
     Starting wfcs are   52 randomized atomic wfcs

     total cpu time spent up to now is        3.0 secs

     Self-consistent Calculation

     iteration #  1     ecut=    50.00 Ry     beta= 0.70
     Davidson diagonalization with overlap

---- Real-time Memory Report at c_bands before calling an iterative solver
           327 MiB given to the printing process from OS
             0 MiB allocation reported by mallinfo(arena+hblkhd)
          9829 MiB available memory on the node where the printing process lives
------------------
     ethr =  1.00E-02,  avg # of iterations =  2.0

     total cpu time spent up to now is        7.7 secs

     total energy              =    -826.63273674 Ry
     estimated scf accuracy    <       2.68651921 Ry

     iteration #  2     ecut=    50.00 Ry     beta= 0.70
     Davidson diagonalization with overlap

---- Real-time Memory Report at c_bands before calling an iterative solver
           418 MiB given to the printing process from OS
             0 MiB allocation reported by mallinfo(arena+hblkhd)
          9530 MiB available memory on the node where the printing process lives
------------------
     ethr =  3.36E-03,  avg # of iterations =  3.0

     total cpu time spent up to now is       12.8 secs

     total energy              =    -827.53884809 Ry
     estimated scf accuracy    <       0.99201547 Ry

     iteration #  3     ecut=    50.00 Ry     beta= 0.70
     Davidson diagonalization with overlap

---- Real-time Memory Report at c_bands before calling an iterative solver
           431 MiB given to the printing process from OS
             0 MiB allocation reported by mallinfo(arena+hblkhd)
          9439 MiB available memory on the node where the printing process lives
------------------
     ethr =  1.24E-03,  avg # of iterations =  2.5

     total cpu time spent up to now is       17.2 secs

     total energy              =    -827.73963100 Ry
     estimated scf accuracy    <       0.01034974 Ry

     iteration #  4     ecut=    50.00 Ry     beta= 0.70
     Davidson diagonalization with overlap

---- Real-time Memory Report at c_bands before calling an iterative solver
           452 MiB given to the printing process from OS
             0 MiB allocation reported by mallinfo(arena+hblkhd)
          9387 MiB available memory on the node where the printing process lives
------------------
     ethr =  1.29E-05,  avg # of iterations =  4.9

     total cpu time spent up to now is       23.0 secs

     total energy              =    -827.74624287 Ry
     estimated scf accuracy    <       0.00527211 Ry

     iteration #  5     ecut=    50.00 Ry     beta= 0.70
     Davidson diagonalization with overlap

---- Real-time Memory Report at c_bands before calling an iterative solver
           453 MiB given to the printing process from OS
             0 MiB allocation reported by mallinfo(arena+hblkhd)
          9383 MiB available memory on the node where the printing process lives
------------------
     ethr =  6.59E-06,  avg # of iterations =  3.0

     total cpu time spent up to now is       27.7 secs

     total energy              =    -827.74789926 Ry
     estimated scf accuracy    <       0.00066796 Ry

     iteration #  6     ecut=    50.00 Ry     beta= 0.70
     Davidson diagonalization with overlap

---- Real-time Memory Report at c_bands before calling an iterative solver
           455 MiB given to the printing process from OS
             0 MiB allocation reported by mallinfo(arena+hblkhd)
          9383 MiB available memory on the node where the printing process lives
------------------
     ethr =  8.35E-07,  avg # of iterations =  2.2

     total cpu time spent up to now is       31.9 secs

     total energy              =    -827.74785966 Ry
     estimated scf accuracy    <       0.00030049 Ry

     iteration #  7     ecut=    50.00 Ry     beta= 0.70
     Davidson diagonalization with overlap

---- Real-time Memory Report at c_bands before calling an iterative solver
           457 MiB given to the printing process from OS
             0 MiB allocation reported by mallinfo(arena+hblkhd)
          9380 MiB available memory on the node where the printing process lives
------------------
     ethr =  3.76E-07,  avg # of iterations =  2.0

     total cpu time spent up to now is       36.3 secs

     total energy              =    -827.74789838 Ry
     estimated scf accuracy    <       0.00001266 Ry

     iteration #  8     ecut=    50.00 Ry     beta= 0.70
     Davidson diagonalization with overlap

---- Real-time Memory Report at c_bands before calling an iterative solver
           459 MiB given to the printing process from OS
             0 MiB allocation reported by mallinfo(arena+hblkhd)
          9377 MiB available memory on the node where the printing process lives
------------------
     ethr =  1.58E-08,  avg # of iterations =  5.6

     total cpu time spent up to now is       43.0 secs

     total energy              =    -827.74791071 Ry
     estimated scf accuracy    <       0.00001343 Ry

     iteration #  9     ecut=    50.00 Ry     beta= 0.70
     Davidson diagonalization with overlap

---- Real-time Memory Report at c_bands before calling an iterative solver
           463 MiB given to the printing process from OS
             0 MiB allocation reported by mallinfo(arena+hblkhd)
          9373 MiB available memory on the node where the printing process lives
------------------
     ethr =  1.58E-08,  avg # of iterations =  2.0

     total cpu time spent up to now is       47.3 secs

     total energy              =    -827.74791244 Ry
     estimated scf accuracy    <       0.00000058 Ry

     iteration # 10     ecut=    50.00 Ry     beta= 0.70
     Davidson diagonalization with overlap

---- Real-time Memory Report at c_bands before calling an iterative solver
           465 MiB given to the printing process from OS
             0 MiB allocation reported by mallinfo(arena+hblkhd)
          9372 MiB available memory on the node where the printing process lives
------------------
     ethr =  7.25E-10,  avg # of iterations =  5.0

     total cpu time spent up to now is       53.3 secs

     total energy              =    -827.74791284 Ry
     estimated scf accuracy    <       0.00000004 Ry

     iteration # 11     ecut=    50.00 Ry     beta= 0.70
     Davidson diagonalization with overlap

---- Real-time Memory Report at c_bands before calling an iterative solver
           469 MiB given to the printing process from OS
             0 MiB allocation reported by mallinfo(arena+hblkhd)
          9364 MiB available memory on the node where the printing process lives
------------------
     ethr =  4.52E-11,  avg # of iterations =  5.0

     total cpu time spent up to now is       59.5 secs

     total energy              =    -827.74791285 Ry
     estimated scf accuracy    <       0.00000002 Ry

     iteration # 12     ecut=    50.00 Ry     beta= 0.70
     Davidson diagonalization with overlap

---- Real-time Memory Report at c_bands before calling an iterative solver
           470 MiB given to the printing process from OS
             0 MiB allocation reported by mallinfo(arena+hblkhd)
          9361 MiB available memory on the node where the printing process lives
------------------
     ethr =  2.02E-11,  avg # of iterations =  3.3

     total cpu time spent up to now is       64.3 secs

     End of self-consistent calculation

          k = 0.1667 0.1726 0.1581 (  8805 PWs)   bands (ev):

   -13.7268 -13.7178 -13.7140 -13.7109 -13.7104 -13.7082 -13.7042 -13.7024
   -13.6968 -13.6922 -13.6915 -13.6906 -13.6803 -13.6771 -13.6599 -13.6574
   -13.6528 -13.6514 -13.6428 -13.6373  -5.9667  -5.6853  -4.9939  -4.6125
     0.3866   1.2248   2.0637   2.4392   3.0243   4.2458   4.3865   4.6564
     4.9106   4.9650   5.5314   5.8416   6.0807   6.4654   6.8747   7.1690

     occupation numbers 
     1.0000   1.0000   1.0000   1.0000   1.0000   1.0000   1.0000   1.0000
     1.0000   1.0000   1.0000   1.0000   1.0000   1.0000   1.0000   1.0000
     1.0000   1.0000   1.0000   1.0000   1.0000   1.0000   1.0000   1.0000
     1.0000   1.0000   1.0000   1.0000   1.0000   1.0000   1.0000   1.0000
     1.0000   1.0000   1.0000   1.0000   1.0000   1.0000   1.0000   1.0000

          k = 0.1667 0.1726 0.4742 (  8812 PWs)   bands (ev):

   -13.7255 -13.7173 -13.7140 -13.7118 -13.7103 -13.7094 -13.7047 -13.7028
   -13.6967 -13.6925 -13.6894 -13.6880 -13.6797 -13.6772 -13.6601 -13.6568
   -13.6537 -13.6519 -13.6424 -13.6378  -5.8516  -5.5799  -4.9907  -4.6457
     0.0699   0.9633   1.5370   2.1085   3.1194   4.2921   4.5031   5.0271
     5.2373   5.4911   5.5396   5.9496   6.3414   6.6452   6.9305   7.1796

     occupation numbers 
     1.0000   1.0000   1.0000   1.0000   1.0000   1.0000   1.0000   1.0000
     1.0000   1.0000   1.0000   1.0000   1.0000   1.0000   1.0000   1.0000
     1.0000   1.0000   1.0000   1.0000   1.0000   1.0000   1.0000   1.0000
     1.0000   1.0000   1.0000   1.0000   1.0000   1.0000   1.0000   1.0000
     1.0000   1.0000   1.0000   1.0000   1.0000   1.0000   1.0000   1.0000

          k = 0.1667 0.1726 0.7903 (  8805 PWs)   bands (ev):

   -13.7232 -13.7170 -13.7142 -13.7132 -13.7109 -13.7103 -13.7052 -13.7038
   -13.6961 -13.6931 -13.6859 -13.6843 -13.6794 -13.6776 -13.6598 -13.6562
   -13.6548 -13.6527 -13.6416 -13.6385  -5.6449  -5.3923  -5.0231  -4.7351
    -0.2429   0.4592   1.0987   1.6251   3.4213   4.5231   4.7243   5.3011
     5.5145   5.6590   5.9063   6.0295   6.5098   6.9791   7.0030   7.4301

     occupation numbers 
     1.0000   1.0000   1.0000   1.0000   1.0000   1.0000   1.0000   1.0000
     1.0000   1.0000   1.0000   1.0000   1.0000   1.0000   1.0000   1.0000
     1.0000   1.0000   1.0000   1.0000   1.0000   1.0000   1.0000   1.0000
     1.0000   1.0000   1.0000   1.0000   1.0000   1.0000   1.0000   1.0000
     1.0000   1.0000   1.0000   1.0000   1.0000   1.0000   1.0000   1.0000

          k = 0.1667 0.1726 1.1064 (  8809 PWs)   bands (ev):

   -13.7205 -13.7181 -13.7144 -13.7140 -13.7115 -13.7109 -13.7054 -13.7049
   -13.6950 -13.6940 -13.6825 -13.6810 -13.6801 -13.6786 -13.6589 -13.6574
   -13.6544 -13.6535 -13.6406 -13.6395  -5.3989  -5.2272  -5.0778  -4.8978
    -0.3082  -0.0484   1.0012   1.2033   3.8920   4.4023   5.0949   5.3573
     5.5702   5.6931   5.9426   6.2291   6.7977   7.1134   7.2810   7.3666

     occupation numbers 
     1.0000   1.0000   1.0000   1.0000   1.0000   1.0000   1.0000   1.0000
     1.0000   1.0000   1.0000   1.0000   1.0000   1.0000   1.0000   1.0000
     1.0000   1.0000   1.0000   1.0000   1.0000   1.0000   1.0000   1.0000
     1.0000   1.0000   1.0000   1.0000   1.0000   1.0000   1.0000   1.0000
     1.0000   1.0000   1.0000   1.0000   1.0000   1.0000   1.0000   1.0000

          k = 0.1667 0.5178 0.1581 (  8819 PWs)   bands (ev):

   -13.7211 -13.7160 -13.7130 -13.7098 -13.7092 -13.7080 -13.7073 -13.7050
   -13.6984 -13.6948 -13.6903 -13.6875 -13.6783 -13.6775 -13.6595 -13.6574
   -13.6548 -13.6511 -13.6425 -13.6384  -5.8068  -5.5473  -4.9269  -4.6071
     0.2357   0.9689   1.7418   1.8492   3.1393   4.1188   4.4191   4.7360
     5.0421   5.2175   5.5513   5.8865   6.1218   6.7454   6.9996   7.1007

     occupation numbers 
     1.0000   1.0000   1.0000   1.0000   1.0000   1.0000   1.0000   1.0000
     1.0000   1.0000   1.0000   1.0000   1.0000   1.0000   1.0000   1.0000
     1.0000   1.0000   1.0000   1.0000   1.0000   1.0000   1.0000   1.0000
     1.0000   1.0000   1.0000   1.0000   1.0000   1.0000   1.0000   1.0000
     1.0000   1.0000   1.0000   1.0000   1.0000   1.0000   1.0000   1.0000

          k = 0.1667 0.5178 0.4742 (  8813 PWs)   bands (ev):

   -13.7211 -13.7159 -13.7145 -13.7104 -13.7093 -13.7083 -13.7068 -13.7060
   -13.6982 -13.6949 -13.6881 -13.6853 -13.6788 -13.6765 -13.6592 -13.6571
   -13.6551 -13.6520 -13.6421 -13.6387  -5.6976  -5.4484  -4.9213  -4.6304
     0.0759   0.8995   1.3913   1.7523   3.2719   3.7187   4.0037   4.8066
     5.0055   5.5574   5.7747   5.9322   6.5576   6.6881   6.9943   7.1721

     occupation numbers 
     1.0000   1.0000   1.0000   1.0000   1.0000   1.0000   1.0000   1.0000
     1.0000   1.0000   1.0000   1.0000   1.0000   1.0000   1.0000   1.0000
     1.0000   1.0000   1.0000   1.0000   1.0000   1.0000   1.0000   1.0000
     1.0000   1.0000   1.0000   1.0000   1.0000   1.0000   1.0000   1.0000
     1.0000   1.0000   1.0000   1.0000   1.0000   1.0000   1.0000   1.0000

          k = 0.1667 0.5178 0.7903 (  8808 PWs)   bands (ev):

   -13.7210 -13.7172 -13.7151 -13.7116 -13.7099 -13.7081 -13.7075 -13.7063
   -13.6974 -13.6953 -13.6850 -13.6821 -13.6788 -13.6760 -13.6586 -13.6567
   -13.6555 -13.6533 -13.6415 -13.6392  -5.5035  -5.2742  -4.9457  -4.6994
    -0.1030   0.5658   1.1300   1.5236   3.5299   3.6708   3.9533   4.7236
     4.8337   5.5879   5.6506   6.2092   6.4269   6.6808   6.8849   7.1674

     occupation numbers 
     1.0000   1.0000   1.0000   1.0000   1.0000   1.0000   1.0000   1.0000
     1.0000   1.0000   1.0000   1.0000   1.0000   1.0000   1.0000   1.0000
     1.0000   1.0000   1.0000   1.0000   1.0000   1.0000   1.0000   1.0000
     1.0000   1.0000   1.0000   1.0000   1.0000   1.0000   1.0000   1.0000
     1.0000   1.0000   1.0000   1.0000   1.0000   1.0000   1.0000   1.0000

          k = 0.1667 0.5178 1.1064 (  8831 PWs)   bands (ev):

   -13.7206 -13.7193 -13.7143 -13.7130 -13.7100 -13.7091 -13.7072 -13.7066
   -13.6965 -13.6958 -13.6822 -13.6806 -13.6780 -13.6765 -13.6577 -13.6568
   -13.6554 -13.6545 -13.6407 -13.6399  -5.2770  -5.1230  -4.9911  -4.8344
    -0.1161   0.1289   1.1083   1.2625   3.8480   3.9095   4.1788   4.4543
     4.7478   5.0744   5.7216   6.0064   6.3709   6.6176   6.8802   7.0674

     occupation numbers 
     1.0000   1.0000   1.0000   1.0000   1.0000   1.0000   1.0000   1.0000
     1.0000   1.0000   1.0000   1.0000   1.0000   1.0000   1.0000   1.0000
     1.0000   1.0000   1.0000   1.0000   1.0000   1.0000   1.0000   1.0000
     1.0000   1.0000   1.0000   1.0000   1.0000   1.0000   1.0000   1.0000
     1.0000   1.0000   1.0000   1.0000   1.0000   1.0000   1.0000   1.0000

          k = 0.1667 0.8630 0.1581 (  8834 PWs)   bands (ev):

   -13.7190 -13.7168 -13.7147 -13.7141 -13.7075 -13.7045 -13.7039 -13.7023
   -13.6974 -13.6969 -13.6903 -13.6836 -13.6795 -13.6747 -13.6633 -13.6623
   -13.6522 -13.6481 -13.6419 -13.6401  -5.5162  -5.3081  -4.8538  -4.6586
     0.0305   0.6396   0.9787   1.2943   3.4777   4.2369   4.6035   4.9433
     5.3018   5.3702   5.6974   5.8795   6.2499   6.7261   6.8332   7.1962

     occupation numbers 
     1.0000   1.0000   1.0000   1.0000   1.0000   1.0000   1.0000   1.0000
     1.0000   1.0000   1.0000   1.0000   1.0000   1.0000   1.0000   1.0000
     1.0000   1.0000   1.0000   1.0000   1.0000   1.0000   1.0000   1.0000
     1.0000   1.0000   1.0000   1.0000   1.0000   1.0000   1.0000   1.0000
     1.0000   1.0000   1.0000   1.0000   1.0000   1.0000   1.0000   1.0000

          k = 0.1667 0.8630 0.4742 (  8832 PWs)   bands (ev):

   -13.7215 -13.7186 -13.7161 -13.7146 -13.7081 -13.7038 -13.7033 -13.7022
   -13.6970 -13.6966 -13.6885 -13.6827 -13.6788 -13.6741 -13.6627 -13.6618
   -13.6522 -13.6487 -13.6417 -13.6401  -5.4209  -5.2237  -4.8400  -4.6589
     0.0685   0.7330   1.0069   1.2274   3.4805   3.5958   3.9459   4.5341
     4.9648   5.5190   5.6087   6.0565   6.1515   6.4953   6.7236   6.9601

     occupation numbers 
     1.0000   1.0000   1.0000   1.0000   1.0000   1.0000   1.0000   1.0000
     1.0000   1.0000   1.0000   1.0000   1.0000   1.0000   1.0000   1.0000
     1.0000   1.0000   1.0000   1.0000   1.0000   1.0000   1.0000   1.0000
     1.0000   1.0000   1.0000   1.0000   1.0000   1.0000   1.0000   1.0000
     1.0000   1.0000   1.0000   1.0000   1.0000   1.0000   1.0000   1.0000

          k = 0.1667 0.8630 0.7903 (  8823 PWs)   bands (ev):

   -13.7241 -13.7218 -13.7178 -13.7165 -13.7077 -13.7041 -13.7026 -13.7019
   -13.6962 -13.6961 -13.6860 -13.6819 -13.6769 -13.6736 -13.6618 -13.6611
   -13.6521 -13.6497 -13.6413 -13.6402  -5.2563  -5.0798  -4.8428  -4.6830
     0.1258   0.6900   1.0605   1.2276   3.0937   3.4305   3.8638   4.1214
     4.4247   5.0170   5.3268   5.6804   5.9816   6.2379   6.4502   6.9209

     occupation numbers 
     1.0000   1.0000   1.0000   1.0000   1.0000   1.0000   1.0000   1.0000
     1.0000   1.0000   1.0000   1.0000   1.0000   1.0000   1.0000   1.0000
     1.0000   1.0000   1.0000   1.0000   1.0000   1.0000   1.0000   1.0000
     1.0000   1.0000   1.0000   1.0000   1.0000   1.0000   1.0000   1.0000
     1.0000   1.0000   1.0000   1.0000   1.0000   1.0000   1.0000   1.0000

          k = 0.1667 0.8630 1.1064 (  8818 PWs)   bands (ev):

   -13.7253 -13.7245 -13.7187 -13.7182 -13.7066 -13.7053 -13.7021 -13.7019
   -13.6957 -13.6957 -13.6838 -13.6823 -13.6748 -13.6737 -13.6611 -13.6608
   -13.6516 -13.6507 -13.6408 -13.6404  -5.0738  -4.9593  -4.8653  -4.7584
     0.2281   0.4329   1.1896   1.2459   3.1090   3.4503   3.5273   3.9074
     4.2874   4.6926   5.0321   5.4264   5.6382   5.8958   6.5313   6.6714

     occupation numbers 
     1.0000   1.0000   1.0000   1.0000   1.0000   1.0000   1.0000   1.0000
     1.0000   1.0000   1.0000   1.0000   1.0000   1.0000   1.0000   1.0000
     1.0000   1.0000   1.0000   1.0000   1.0000   1.0000   1.0000   1.0000
     1.0000   1.0000   1.0000   1.0000   1.0000   1.0000   1.0000   1.0000
     1.0000   1.0000   1.0000   1.0000   1.0000   1.0000   1.0000   1.0000

          k = 0.1667 1.2082 0.1581 (  8845 PWs)   bands (ev):

   -13.7207 -13.7193 -13.7180 -13.7167 -13.7040 -13.7024 -13.7008 -13.6995
   -13.6950 -13.6927 -13.6915 -13.6862 -13.6759 -13.6715 -13.6693 -13.6674
   -13.6472 -13.6448 -13.6428 -13.6423  -5.1607  -5.0476  -4.8757  -4.8436
    -0.0033   0.3178   0.5426   0.7970   3.9950   4.4424   4.8189   5.1362
     5.3193   5.3721   5.7747   6.0413   6.3758   6.5745   6.6387   6.8029

     occupation numbers 
     1.0000   1.0000   1.0000   1.0000   1.0000   1.0000   1.0000   1.0000
     1.0000   1.0000   1.0000   1.0000   1.0000   1.0000   1.0000   1.0000
     1.0000   1.0000   1.0000   1.0000   1.0000   1.0000   1.0000   1.0000
     1.0000   1.0000   1.0000   1.0000   1.0000   1.0000   1.0000   1.0000
     1.0000   1.0000   1.0000   1.0000   1.0000   1.0000   1.0000   1.0000

          k = 0.1667 1.2082 0.4742 (  8848 PWs)   bands (ev):

   -13.7233 -13.7219 -13.7196 -13.7185 -13.7043 -13.7025 -13.6996 -13.6989
   -13.6945 -13.6929 -13.6898 -13.6857 -13.6749 -13.6720 -13.6673 -13.6664
   -13.6474 -13.6455 -13.6423 -13.6421  -5.0907  -4.9870  -4.8427  -4.8089
     0.1421   0.4558   0.6690   0.8489   3.7524   3.9459   4.2119   4.4970
     4.6715   5.1219   5.5675   5.7537   5.8739   6.1602   6.6245   6.8892

     occupation numbers 
     1.0000   1.0000   1.0000   1.0000   1.0000   1.0000   1.0000   1.0000
     1.0000   1.0000   1.0000   1.0000   1.0000   1.0000   1.0000   1.0000
     1.0000   1.0000   1.0000   1.0000   1.0000   1.0000   1.0000   1.0000
     1.0000   1.0000   1.0000   1.0000   1.0000   1.0000   1.0000   1.0000
     1.0000   1.0000   1.0000   1.0000   1.0000   1.0000   1.0000   1.0000

          k = 0.1667 1.2082 0.7903 (  8816 PWs)   bands (ev):

   -13.7266 -13.7255 -13.7218 -13.7211 -13.7044 -13.7029 -13.6987 -13.6982
   -13.6937 -13.6926 -13.6879 -13.6853 -13.6733 -13.6718 -13.6653 -13.6649
   -13.6475 -13.6463 -13.6420 -13.6419  -4.9777  -4.8916  -4.8035  -4.7655
     0.3881   0.6690   0.8677   0.9294   3.1074   3.5536   3.6538   3.9937
     4.2269   4.5846   4.9046   5.3676   5.4646   5.7305   6.4821   6.6258

     occupation numbers 
     1.0000   1.0000   1.0000   1.0000   1.0000   1.0000   1.0000   1.0000
     1.0000   1.0000   1.0000   1.0000   1.0000   1.0000   1.0000   1.0000
     1.0000   1.0000   1.0000   1.0000   1.0000   1.0000   1.0000   1.0000
     1.0000   1.0000   1.0000   1.0000   1.0000   1.0000   1.0000   1.0000
     1.0000   1.0000   1.0000   1.0000   1.0000   1.0000   1.0000   1.0000

          k = 0.1667 1.2082 1.1064 (  8823 PWs)   bands (ev):

   -13.7286 -13.7283 -13.7233 -13.7231 -13.7041 -13.7035 -13.6981 -13.6980
   -13.6929 -13.6925 -13.6865 -13.6856 -13.6719 -13.6714 -13.6640 -13.6639
   -13.6473 -13.6469 -13.6417 -13.6417  -4.8690  -4.8193  -4.7844  -4.7520
     0.6286   0.7499   1.0285   1.0603   2.8509   3.0542   3.4345   3.5881
     4.0253   4.0799   4.5730   4.8930   5.4357   5.6262   6.3572   6.4038

     occupation numbers 
     1.0000   1.0000   1.0000   1.0000   1.0000   1.0000   1.0000   1.0000
     1.0000   1.0000   1.0000   1.0000   1.0000   1.0000   1.0000   1.0000
     1.0000   1.0000   1.0000   1.0000   1.0000   1.0000   1.0000   1.0000
     1.0000   1.0000   1.0000   1.0000   1.0000   1.0000   1.0000   1.0000
     1.0000   1.0000   1.0000   1.0000   1.0000   1.0000   1.0000   1.0000

          k =-0.5000 0.1726 0.1581 (  8810 PWs)   bands (ev):

   -13.7228 -13.7228 -13.7122 -13.7122 -13.7096 -13.7096 -13.7029 -13.7029
   -13.6948 -13.6948 -13.6907 -13.6907 -13.6789 -13.6789 -13.6584 -13.6584
   -13.6523 -13.6523 -13.6399 -13.6399  -5.8510  -5.8510  -4.7781  -4.7781
     0.6822   0.6822   2.3514   2.3514   3.6697   3.6697   4.5631   4.5631
     5.0126   5.0126   5.6116   5.6116   5.9574   5.9574   7.0766   7.0766

     occupation numbers 
     1.0000   1.0000   1.0000   1.0000   1.0000   1.0000   1.0000   1.0000
     1.0000   1.0000   1.0000   1.0000   1.0000   1.0000   1.0000   1.0000
     1.0000   1.0000   1.0000   1.0000   1.0000   1.0000   1.0000   1.0000
     1.0000   1.0000   1.0000   1.0000   1.0000   1.0000   1.0000   1.0000
     1.0000   1.0000   1.0000   1.0000   1.0000   1.0000   1.0000   1.0000

          k =-0.5000 0.1726 0.4742 (  8800 PWs)   bands (ev):

   -13.7220 -13.7220 -13.7121 -13.7121 -13.7104 -13.7104 -13.7037 -13.7037
   -13.6946 -13.6946 -13.6884 -13.6884 -13.6787 -13.6787 -13.6583 -13.6583
   -13.6528 -13.6528 -13.6400 -13.6400  -5.7409  -5.7409  -4.7930  -4.7930
     0.3906   0.3906   1.8919   1.8919   3.8861   3.8861   4.6238   4.6238
     5.3091   5.3091   5.7622   5.7622   6.4136   6.4136   6.9763   6.9763

     occupation numbers 
     1.0000   1.0000   1.0000   1.0000   1.0000   1.0000   1.0000   1.0000
     1.0000   1.0000   1.0000   1.0000   1.0000   1.0000   1.0000   1.0000
     1.0000   1.0000   1.0000   1.0000   1.0000   1.0000   1.0000   1.0000
     1.0000   1.0000   1.0000   1.0000   1.0000   1.0000   1.0000   1.0000
     1.0000   1.0000   1.0000   1.0000   1.0000   1.0000   1.0000   1.0000

          k =-0.5000 0.1726 0.7903 (  8818 PWs)   bands (ev):

   -13.7205 -13.7205 -13.7132 -13.7132 -13.7108 -13.7108 -13.7048 -13.7048
   -13.6944 -13.6944 -13.6850 -13.6850 -13.6787 -13.6787 -13.6581 -13.6581
   -13.6537 -13.6537 -13.6400 -13.6400  -5.5458  -5.5458  -4.8521  -4.8521
     0.0512   0.0512   1.3512   1.3512   4.2036   4.2036   4.9037   4.9037
     5.4488   5.4488   5.9879   5.9879   6.6264   6.6264   7.1618   7.1618

     occupation numbers 
     1.0000   1.0000   1.0000   1.0000   1.0000   1.0000   1.0000   1.0000
     1.0000   1.0000   1.0000   1.0000   1.0000   1.0000   1.0000   1.0000
     1.0000   1.0000   1.0000   1.0000   1.0000   1.0000   1.0000   1.0000
     1.0000   1.0000   1.0000   1.0000   1.0000   1.0000   1.0000   1.0000
     1.0000   1.0000   1.0000   1.0000   1.0000   1.0000   1.0000   1.0000

          k =-0.5000 0.1726 1.1064 (  8810 PWs)   bands (ev):

   -13.7192 -13.7192 -13.7144 -13.7144 -13.7109 -13.7109 -13.7057 -13.7057
   -13.6941 -13.6941 -13.6818 -13.6818 -13.6793 -13.6793 -13.6579 -13.6579
   -13.6542 -13.6542 -13.6400 -13.6400  -5.3341  -5.3341  -4.9674  -4.9674
    -0.1425  -0.1425   0.9977   0.9977   4.6133   4.6133   5.2041   5.2041
     5.2848   5.2848   5.8379   5.8379   7.0112   7.0112   7.2885   7.2885

     occupation numbers 
     1.0000   1.0000   1.0000   1.0000   1.0000   1.0000   1.0000   1.0000
     1.0000   1.0000   1.0000   1.0000   1.0000   1.0000   1.0000   1.0000
     1.0000   1.0000   1.0000   1.0000   1.0000   1.0000   1.0000   1.0000
     1.0000   1.0000   1.0000   1.0000   1.0000   1.0000   1.0000   1.0000
     1.0000   1.0000   1.0000   1.0000   1.0000   1.0000   1.0000   1.0000

          k =-0.5000 0.5178 0.1581 (  8808 PWs)   bands (ev):

   -13.7185 -13.7185 -13.7119 -13.7119 -13.7088 -13.7088 -13.7058 -13.7058
   -13.6966 -13.6966 -13.6887 -13.6887 -13.6781 -13.6781 -13.6584 -13.6584
   -13.6529 -13.6529 -13.6404 -13.6404  -5.6996  -5.6996  -4.7440  -4.7440
     0.5116   0.5116   1.8446   1.8446   3.7974   3.7974   4.4440   4.4440
     5.3232   5.3232   5.5057   5.5057   6.1754   6.1754   7.1480   7.1480

     occupation numbers 
     1.0000   1.0000   1.0000   1.0000   1.0000   1.0000   1.0000   1.0000
     1.0000   1.0000   1.0000   1.0000   1.0000   1.0000   1.0000   1.0000
     1.0000   1.0000   1.0000   1.0000   1.0000   1.0000   1.0000   1.0000
     1.0000   1.0000   1.0000   1.0000   1.0000   1.0000   1.0000   1.0000
     1.0000   1.0000   1.0000   1.0000   1.0000   1.0000   1.0000   1.0000

          k =-0.5000 0.5178 0.4742 (  8818 PWs)   bands (ev):

   -13.7186 -13.7186 -13.7130 -13.7130 -13.7086 -13.7086 -13.7061 -13.7061
   -13.6964 -13.6964 -13.6867 -13.6867 -13.6778 -13.6778 -13.6582 -13.6582
   -13.6535 -13.6535 -13.6403 -13.6403  -5.5955  -5.5955  -4.7530  -4.7530
     0.3816   0.3816   1.6279   1.6279   3.7444   3.7444   4.3131   4.3131
     4.9885   4.9885   5.9643   5.9643   6.5582   6.5582   7.0785   7.0785

     occupation numbers 
     1.0000   1.0000   1.0000   1.0000   1.0000   1.0000   1.0000   1.0000
     1.0000   1.0000   1.0000   1.0000   1.0000   1.0000   1.0000   1.0000
     1.0000   1.0000   1.0000   1.0000   1.0000   1.0000   1.0000   1.0000
     1.0000   1.0000   1.0000   1.0000   1.0000   1.0000   1.0000   1.0000
     1.0000   1.0000   1.0000   1.0000   1.0000   1.0000   1.0000   1.0000

          k =-0.5000 0.5178 0.7903 (  8816 PWs)   bands (ev):

   -13.7189 -13.7189 -13.7146 -13.7146 -13.7085 -13.7085 -13.7063 -13.7063
   -13.6962 -13.6962 -13.6839 -13.6839 -13.6773 -13.6773 -13.6579 -13.6579
   -13.6544 -13.6544 -13.6401 -13.6401  -5.4130  -5.4130  -4.7985  -4.7985
     0.1795   0.1795   1.3256   1.3256   3.7374   3.7374   4.4843   4.4843
     4.8404   4.8404   6.0295   6.0295   6.4171   6.4171   7.0372   7.0372

     occupation numbers 
     1.0000   1.0000   1.0000   1.0000   1.0000   1.0000   1.0000   1.0000
     1.0000   1.0000   1.0000   1.0000   1.0000   1.0000   1.0000   1.0000
     1.0000   1.0000   1.0000   1.0000   1.0000   1.0000   1.0000   1.0000
     1.0000   1.0000   1.0000   1.0000   1.0000   1.0000   1.0000   1.0000
     1.0000   1.0000   1.0000   1.0000   1.0000   1.0000   1.0000   1.0000

          k =-0.5000 0.5178 1.1064 (  8814 PWs)   bands (ev):

   -13.7193 -13.7193 -13.7158 -13.7158 -13.7083 -13.7083 -13.7065 -13.7065
   -13.6960 -13.6960 -13.6820 -13.6820 -13.6769 -13.6769 -13.6575 -13.6575
   -13.6551 -13.6551 -13.6400 -13.6400  -5.2186  -5.2186  -4.8946  -4.8946
     0.0372   0.0372   1.1012   1.1012   3.9760   3.9760   4.3774   4.3774
     5.0831   5.0831   5.6319   5.6319   6.3058   6.3058   6.8645   6.8645

     occupation numbers 
     1.0000   1.0000   1.0000   1.0000   1.0000   1.0000   1.0000   1.0000
     1.0000   1.0000   1.0000   1.0000   1.0000   1.0000   1.0000   1.0000
     1.0000   1.0000   1.0000   1.0000   1.0000   1.0000   1.0000   1.0000
     1.0000   1.0000   1.0000   1.0000   1.0000   1.0000   1.0000   1.0000
     1.0000   1.0000   1.0000   1.0000   1.0000   1.0000   1.0000   1.0000

          k =-0.5000 0.8630 0.1581 (  8824 PWs)   bands (ev):

   -13.7184 -13.7184 -13.7137 -13.7137 -13.7058 -13.7058 -13.7040 -13.7040
   -13.6969 -13.6969 -13.6873 -13.6873 -13.6765 -13.6765 -13.6629 -13.6629
   -13.6500 -13.6500 -13.6410 -13.6410  -5.4289  -5.4289  -4.7389  -4.7389
     0.2815   0.2815   1.1417   1.1417   4.0840   4.0840   4.6219   4.6219
     5.4900   5.4900   5.6548   5.6548   6.1963   6.1963   7.0234   7.0234

     occupation numbers 
     1.0000   1.0000   1.0000   1.0000   1.0000   1.0000   1.0000   1.0000
     1.0000   1.0000   1.0000   1.0000   1.0000   1.0000   1.0000   1.0000
     1.0000   1.0000   1.0000   1.0000   1.0000   1.0000   1.0000   1.0000
     1.0000   1.0000   1.0000   1.0000   1.0000   1.0000   1.0000   1.0000
     1.0000   1.0000   1.0000   1.0000   1.0000   1.0000   1.0000   1.0000

          k =-0.5000 0.8630 0.4742 (  8836 PWs)   bands (ev):

   -13.7202 -13.7202 -13.7155 -13.7155 -13.7058 -13.7058 -13.7031 -13.7031
   -13.6964 -13.6964 -13.6862 -13.6862 -13.6758 -13.6758 -13.6626 -13.6626
   -13.6503 -13.6503 -13.6409 -13.6409  -5.3388  -5.3388  -4.7326  -4.7326
     0.3378   0.3378   1.1373   1.1373   3.6347   3.6347   4.4265   4.4265
     4.9037   4.9037   5.9076   5.9076   6.1224   6.1224   6.9183   6.9183

     occupation numbers 
     1.0000   1.0000   1.0000   1.0000   1.0000   1.0000   1.0000   1.0000
     1.0000   1.0000   1.0000   1.0000   1.0000   1.0000   1.0000   1.0000
     1.0000   1.0000   1.0000   1.0000   1.0000   1.0000   1.0000   1.0000
     1.0000   1.0000   1.0000   1.0000   1.0000   1.0000   1.0000   1.0000
     1.0000   1.0000   1.0000   1.0000   1.0000   1.0000   1.0000   1.0000

          k =-0.5000 0.8630 0.7903 (  8820 PWs)   bands (ev):

   -13.7225 -13.7225 -13.7179 -13.7179 -13.7056 -13.7056 -13.7024 -13.7024
   -13.6957 -13.6957 -13.6849 -13.6849 -13.6744 -13.6744 -13.6621 -13.6621
   -13.6506 -13.6506 -13.6407 -13.6407  -5.1855  -5.1855  -4.7455  -4.7455
     0.3730   0.3730   1.1438   1.1438   3.2875   3.2875   4.0945   4.0945
     4.7096   4.7096   5.3844   5.3844   5.9677   5.9677   6.7615   6.7615

     occupation numbers 
     1.0000   1.0000   1.0000   1.0000   1.0000   1.0000   1.0000   1.0000
     1.0000   1.0000   1.0000   1.0000   1.0000   1.0000   1.0000   1.0000
     1.0000   1.0000   1.0000   1.0000   1.0000   1.0000   1.0000   1.0000
     1.0000   1.0000   1.0000   1.0000   1.0000   1.0000   1.0000   1.0000
     1.0000   1.0000   1.0000   1.0000   1.0000   1.0000   1.0000   1.0000

          k =-0.5000 0.8630 1.1064 (  8820 PWs)   bands (ev):

   -13.7242 -13.7242 -13.7196 -13.7196 -13.7054 -13.7054 -13.7021 -13.7021
   -13.6952 -13.6952 -13.6841 -13.6841 -13.6732 -13.6732 -13.6617 -13.6617
   -13.6508 -13.6508 -13.6405 -13.6405  -5.0299  -5.0299  -4.7987  -4.7987
     0.3505   0.3505   1.1717   1.1717   3.3003   3.3003   3.6568   3.6568
     4.7085   4.7085   5.0179   5.0179   5.9204   5.9204   6.4251   6.4251

     occupation numbers 
     1.0000   1.0000   1.0000   1.0000   1.0000   1.0000   1.0000   1.0000
     1.0000   1.0000   1.0000   1.0000   1.0000   1.0000   1.0000   1.0000
     1.0000   1.0000   1.0000   1.0000   1.0000   1.0000   1.0000   1.0000
     1.0000   1.0000   1.0000   1.0000   1.0000   1.0000   1.0000   1.0000
     1.0000   1.0000   1.0000   1.0000   1.0000   1.0000   1.0000   1.0000

          k =-0.5000 1.2082 0.1581 (  8838 PWs)   bands (ev):

   -13.7196 -13.7196 -13.7179 -13.7179 -13.7022 -13.7022 -13.7015 -13.7015
   -13.6933 -13.6933 -13.6890 -13.6890 -13.6733 -13.6733 -13.6686 -13.6686
   -13.6459 -13.6459 -13.6426 -13.6426  -5.1109  -5.1109  -4.8533  -4.8533
     0.2381   0.2381   0.5420   0.5420   4.5485   4.5485   4.8958   4.8958
     5.3888   5.3888   5.6270   5.6270   6.3165   6.3165   6.6707   6.6707

     occupation numbers 
     1.0000   1.0000   1.0000   1.0000   1.0000   1.0000   1.0000   1.0000
     1.0000   1.0000   1.0000   1.0000   1.0000   1.0000   1.0000   1.0000
     1.0000   1.0000   1.0000   1.0000   1.0000   1.0000   1.0000   1.0000
     1.0000   1.0000   1.0000   1.0000   1.0000   1.0000   1.0000   1.0000
     1.0000   1.0000   1.0000   1.0000   1.0000   1.0000   1.0000   1.0000

          k =-0.5000 1.2082 0.4742 (  8816 PWs)   bands (ev):

   -13.7218 -13.7218 -13.7200 -13.7200 -13.7021 -13.7021 -13.7011 -13.7011
   -13.6926 -13.6926 -13.6885 -13.6885 -13.6722 -13.6722 -13.6678 -13.6678
   -13.6460 -13.6460 -13.6426 -13.6426  -5.0453  -5.0453  -4.8196  -4.8196
     0.3714   0.3714   0.6482   0.6482   3.9201   3.9201   4.4428   4.4428
     4.9745   4.9745   5.4163   5.4163   6.0840   6.0840   6.5179   6.5179

     occupation numbers 
     1.0000   1.0000   1.0000   1.0000   1.0000   1.0000   1.0000   1.0000
     1.0000   1.0000   1.0000   1.0000   1.0000   1.0000   1.0000   1.0000
     1.0000   1.0000   1.0000   1.0000   1.0000   1.0000   1.0000   1.0000
     1.0000   1.0000   1.0000   1.0000   1.0000   1.0000   1.0000   1.0000
     1.0000   1.0000   1.0000   1.0000   1.0000   1.0000   1.0000   1.0000

          k =-0.5000 1.2082 0.7903 (  8802 PWs)   bands (ev):

   -13.7247 -13.7247 -13.7229 -13.7229 -13.7022 -13.7022 -13.7007 -13.7007
   -13.6916 -13.6916 -13.6877 -13.6877 -13.6706 -13.6706 -13.6666 -13.6666
   -13.6460 -13.6460 -13.6425 -13.6425  -4.9413  -4.9413  -4.7781  -4.7781
     0.5713   0.5713   0.8310   0.8310   3.3511   3.3511   3.8630   3.8630
     4.4162   4.4162   4.8725   4.8725   5.9764   5.9764   6.3464   6.3464

     occupation numbers 
     1.0000   1.0000   1.0000   1.0000   1.0000   1.0000   1.0000   1.0000
     1.0000   1.0000   1.0000   1.0000   1.0000   1.0000   1.0000   1.0000
     1.0000   1.0000   1.0000   1.0000   1.0000   1.0000   1.0000   1.0000
     1.0000   1.0000   1.0000   1.0000   1.0000   1.0000   1.0000   1.0000
     1.0000   1.0000   1.0000   1.0000   1.0000   1.0000   1.0000   1.0000

          k =-0.5000 1.2082 1.1064 (  8814 PWs)   bands (ev):

   -13.7267 -13.7267 -13.7250 -13.7250 -13.7024 -13.7024 -13.7007 -13.7007
   -13.6909 -13.6909 -13.6872 -13.6872 -13.6695 -13.6695 -13.6657 -13.6657
   -13.6461 -13.6461 -13.6424 -13.6424  -4.8490  -4.8490  -4.7634  -4.7634
     0.7029   0.7029   1.0135   1.0135   3.1504   3.1504   3.3979   3.3979
     4.0532   4.0532   4.3526   4.3526   6.0713   6.0713   6.2569   6.2569

     occupation numbers 
     1.0000   1.0000   1.0000   1.0000   1.0000   1.0000   1.0000   1.0000
     1.0000   1.0000   1.0000   1.0000   1.0000   1.0000   1.0000   1.0000
     1.0000   1.0000   1.0000   1.0000   1.0000   1.0000   1.0000   1.0000
     1.0000   1.0000   1.0000   1.0000   1.0000   1.0000   1.0000   1.0000
     1.0000   1.0000   1.0000   1.0000   1.0000   1.0000   1.0000   1.0000

     highest occupied level (ev):     7.4301

!    total energy              =    -827.74791285 Ry
     estimated scf accuracy    <          3.3E-10 Ry

     The total energy is the sum of the following terms:
     one-electron contribution =    -265.94020415 Ry
     hartree contribution      =     182.24751731 Ry
     xc contribution           =    -308.99424291 Ry
     ewald contribution        =    -434.94100428 Ry
     DFT-D3 Dispersion         =      -0.11997882 Ry

     convergence has been achieved in  12 iterations

     Forces acting on atoms (cartesian axes, Ry/au):

     atom    1 type  2   force =     0.00072947   -0.00000000   -0.00034102
     atom    2 type  1   force =    -0.00088975    0.00000000   -0.00010955
     atom    3 type  2   force =    -0.00072947    0.00000000   -0.00034102
     atom    4 type  1   force =     0.00088975    0.00000000   -0.00010955
     atom    5 type  2   force =     0.00072947    0.00000000    0.00034102
     atom    6 type  1   force =    -0.00088975    0.00000000    0.00010955
     atom    7 type  2   force =    -0.00072947    0.00000000    0.00034102
     atom    8 type  1   force =     0.00088975    0.00000000    0.00010955
     The non-local contrib.  to forces
     atom    1 type  2   force =    -0.10349250    0.00000000    0.11337739
     atom    2 type  1   force =     0.34643655    0.00000000    0.30347434
     atom    3 type  2   force =     0.10349250    0.00000000    0.11337739
     atom    4 type  1   force =    -0.34643655    0.00000000    0.30347434
     atom    5 type  2   force =    -0.10349250    0.00000000   -0.11337739
     atom    6 type  1   force =     0.34643655    0.00000000   -0.30347434
     atom    7 type  2   force =     0.10349250    0.00000000   -0.11337739
     atom    8 type  1   force =    -0.34643655    0.00000000   -0.30347434
     The ionic contribution  to forces
     atom    1 type  2   force =     1.16466098   -0.00000000   -1.30236210
     atom    2 type  1   force =    -0.61252098    0.00000000   -0.73505082
     atom    3 type  2   force =    -1.16466098   -0.00000000   -1.30236210
     atom    4 type  1   force =     0.61252098   -0.00000000   -0.73505082
     atom    5 type  2   force =     1.16466098    0.00000000    1.30236210
     atom    6 type  1   force =    -0.61252098   -0.00000000    0.73505082
     atom    7 type  2   force =    -1.16466098   -0.00000000    1.30236210
     atom    8 type  1   force =     0.61252098   -0.00000000    0.73505082
     The local contribution  to forces
     atom    1 type  2   force =    -1.07132412    0.00000000    1.19954972
     atom    2 type  1   force =     0.27205315   -0.00000000    0.43554783
     atom    3 type  2   force =     1.07132412    0.00000000    1.19954972
     atom    4 type  1   force =    -0.27205315    0.00000000    0.43554783
     atom    5 type  2   force =    -1.07132412    0.00000000   -1.19954972
     atom    6 type  1   force =     0.27205315    0.00000000   -0.43554783
     atom    7 type  2   force =     1.07132412    0.00000000   -1.19954972
     atom    8 type  1   force =    -0.27205315    0.00000000   -0.43554783
     The core correction contribution to forces
     atom    1 type  2   force =     0.01157522    0.00000000   -0.01254854
     atom    2 type  1   force =    -0.00617778    0.00000000   -0.00503154
     atom    3 type  2   force =    -0.01157522    0.00000000   -0.01254854
     atom    4 type  1   force =     0.00617778    0.00000000   -0.00503154
     atom    5 type  2   force =     0.01157522   -0.00000000    0.01254854
     atom    6 type  1   force =    -0.00617778    0.00000000    0.00503154
     atom    7 type  2   force =    -0.01157522    0.00000000    0.01254854
     atom    8 type  1   force =     0.00617778    0.00000000    0.00503154
     The Hubbard contrib.    to forces
     atom    1 type  2   force =     0.00000000    0.00000000    0.00000000
     atom    2 type  1   force =     0.00000000    0.00000000    0.00000000
     atom    3 type  2   force =     0.00000000    0.00000000    0.00000000
     atom    4 type  1   force =     0.00000000    0.00000000    0.00000000
     atom    5 type  2   force =     0.00000000    0.00000000    0.00000000
     atom    6 type  1   force =     0.00000000    0.00000000    0.00000000
     atom    7 type  2   force =     0.00000000    0.00000000    0.00000000
     atom    8 type  1   force =     0.00000000    0.00000000    0.00000000
     The SCF correction term to forces
     atom    1 type  2   force =     0.00000303   -0.00000000   -0.00000034
     atom    2 type  1   force =    -0.00003979   -0.00000000   -0.00001936
     atom    3 type  2   force =    -0.00000303   -0.00000000   -0.00000034
     atom    4 type  1   force =     0.00003979   -0.00000000   -0.00001936
     atom    5 type  2   force =     0.00000303    0.00000000    0.00000034
     atom    6 type  1   force =    -0.00003979    0.00000000    0.00001936
     atom    7 type  2   force =    -0.00000303    0.00000000    0.00000034
     atom    8 type  1   force =     0.00003979   -0.00000000    0.00001936

     DFT-D3 dispersion contribution to forces:
     atom    1 type  2   force =    -0.00069314    0.00000000    0.00164286
     atom    2 type  1   force =    -0.00064090   -0.00000000    0.00097000
     atom    3 type  2   force =     0.00069314   -0.00000000    0.00164286
     atom    4 type  1   force =     0.00064090   -0.00000000    0.00097000
     atom    5 type  2   force =    -0.00069314    0.00000000   -0.00164286
     atom    6 type  1   force =    -0.00064090   -0.00000000   -0.00097000
     atom    7 type  2   force =     0.00069314    0.00000000   -0.00164286
     atom    8 type  1   force =     0.00064090    0.00000000   -0.00097000

     Total force =     0.002410     Total SCF correction =     0.000089

     DFT-D3 dispersion Force =     0.004257

     Writing all to output data dir ./tmp/SnSe_pnma.save/ :
     XML data file, charge density, pseudopotentials, collected wavefunctions
 
     init_run     :      2.48s CPU      2.78s WALL (       1 calls)
     electrons    :     57.88s CPU     61.35s WALL (       1 calls)
     forces       :      1.20s CPU      1.36s WALL (       1 calls)
     force_dftd3  :      0.08s CPU      0.09s WALL (       1 calls)

     Called by init_run:
     wfcinit      :      1.61s CPU      1.64s WALL (       1 calls)
     wfcinit:atom :      0.02s CPU      0.02s WALL (      11 calls)
     wfcinit:wfcr :      1.39s CPU      1.40s WALL (      11 calls)
     potinit      :      0.20s CPU      0.24s WALL (       1 calls)
     hinit0       :      0.25s CPU      0.27s WALL (       1 calls)

     Called by electrons:
     c_bands      :     42.50s CPU     42.84s WALL (      12 calls)
     sum_band     :     10.36s CPU     11.85s WALL (      12 calls)
     v_of_rho     :      1.86s CPU      1.91s WALL (      13 calls)
     v_h          :      0.15s CPU      0.15s WALL (      13 calls)
     v_xc         :      1.84s CPU      1.89s WALL (      14 calls)
     newd         :      3.20s CPU      4.95s WALL (      13 calls)
     mix_rho      :      0.21s CPU      0.21s WALL (      12 calls)
     energy_dftd3 :      0.04s CPU      0.04s WALL (       1 calls)

     Called by c_bands:
     init_us_2    :      1.28s CPU      1.29s WALL (     286 calls)
     cegterg      :     37.28s CPU     37.47s WALL (     132 calls)

     Called by sum_band:
     sum_band:wei :      0.00s CPU      0.00s WALL (      12 calls)
     sum_band:loo :      6.67s CPU      6.69s WALL (      12 calls)
     sum_band:buf :      0.08s CPU      0.08s WALL (     132 calls)
     sum_band:ini :      0.56s CPU      0.56s WALL (     132 calls)
     sum_band:cal :      0.75s CPU      0.75s WALL (     132 calls)
     sum_band:bec :      0.01s CPU      0.01s WALL (     132 calls)
     addusdens    :      3.27s CPU      4.69s WALL (      12 calls)
                                        0.00s GPU  (      12 calls)
     addusd:skk   :      0.01s CPU      0.02s WALL (      24 calls)
                                        0.00s GPU  (      24 calls)

     Called by *egterg:
     cdiaghg      :      0.90s CPU      0.90s WALL (     587 calls)
     cegterg:over :      1.87s CPU      1.87s WALL (     455 calls)
     cegterg:upda :      1.15s CPU      1.16s WALL (     455 calls)
     cegterg:last :      2.64s CPU      2.65s WALL (     335 calls)
     h_psi        :     28.18s CPU     28.35s WALL (     598 calls)
     s_psi        :      2.77s CPU      2.78s WALL (     598 calls)
     g_psi        :      0.11s CPU      0.11s WALL (     455 calls)

     Called by h_psi:
     h_psi:calbec :      2.53s CPU      2.53s WALL (     598 calls)
     vloc_psi     :     22.64s CPU     22.79s WALL (     598 calls)
     add_vuspsi   :      2.79s CPU      2.79s WALL (     598 calls)

     General routines
     calbec       :      3.53s CPU      3.55s WALL (     774 calls)
     fft          :      0.95s CPU      0.97s WALL (     178 calls)
     ffts         :      0.02s CPU      0.03s WALL (      25 calls)
     fftw         :     14.94s CPU     15.02s WALL (   38086 calls)
     interpolate  :      0.10s CPU      0.10s WALL (      13 calls)
 
     Parallel routines
 
     PWSCF        :   1m 1.81s CPU   1m 6.45s WALL

 
   This run was terminated on:  17:16:26  20May2026            

=------------------------------------------------------------------------------=
   JOB DONE.
=------------------------------------------------------------------------------=
