
     Program PWSCF v.7.3.1 starts on 20May2026 at 20: 9:58 

     This program is part of the open-source Quantum ESPRESSO suite
     for quantum simulation of materials; please cite
         "P. Giannozzi et al., J. Phys.:Condens. Matter 21 395502 (2009);
         "P. Giannozzi et al., J. Phys.:Condens. Matter 29 465901 (2017);
         "P. Giannozzi et al., J. Chem. Phys. 152 154105 (2020);
          URL http://www.quantum-espresso.org", 
     in publications or presentations arising from this work. More details at
     http://www.quantum-espresso.org/quote

     Parallel version (MPI & OpenMP), running on       6 processor cores
     Number of MPI processes:                 6
     Threads/MPI process:                     1

     MPI processes distributed on     1 nodes
     5376 MiB available memory on the printing compute node when the environment starts
 
     Waiting for input...
     Reading input from standard input

     Current dimensions of program PWSCF are:
     Max number of different atomic species (ntypx) = 10
     Max number of k-points (npk) =  40000
     Max angular momentum in pseudopotentials (lmaxx) =  4
 
     K-points division:     npool     =       3
     R & G space division:  proc/nbgrp/npool/nimage =       2
     Subspace diagonalization in iterative solution of the eigenvalue problem:
     a serial algorithm will be used

 
     Parallelization info
     --------------------
     sticks:   dense  smooth     PW     G-vecs:    dense   smooth      PW
     Min        3994    1601    453               178717    45230    6822
     Max        3995    1602    454               178718    45231    6823
     Sum        7989    3203    907               357435    90461   13645
 
     Using Slab Decomposition
 


     bravais-lattice index     =            8
     lattice parameter (alat)  =      21.2216  a.u.
     unit-cell volume          =    1440.1053 (a.u.)^3
     number of atoms/cell      =            8
     number of atomic types    =            2
     number of electrons       =        80.00
     number of Kohn-Sham states=           40
     kinetic-energy cutoff     =      60.0000  Ry
     charge density cutoff     =     600.0000  Ry
     scf convergence threshold =      1.0E-08
     mixing beta               =       0.7000
     number of iterations used =            8  plain     mixing
     Exchange-correlation= SLA  PW   PBE  PBE
                           (   1   4   3   4   0   0   0)

     celldm(1)=  21.221624  celldm(2)=   0.371451  celldm(3)=   0.405654
     celldm(4)=   0.000000  celldm(5)=   0.000000  celldm(6)=   0.000000

     crystal axes: (cart. coord. in units of alat)
               a(1) = (   1.000000   0.000000   0.000000 )  
               a(2) = (   0.000000   0.371451   0.000000 )  
               a(3) = (   0.000000   0.000000   0.405654 )  

     reciprocal axes: (cart. coord. in units 2 pi/alat)
               b(1) = (  1.000000  0.000000  0.000000 )  
               b(2) = (  0.000000  2.692142  0.000000 )  
               b(3) = (  0.000000  0.000000  2.465152 )  


     PseudoPot. # 1 for Sn read from file:
     ../pseudo/Sn_pbe_v1.uspp.F.UPF
     MD5 check sum: 4cf58ce39ec5d5d420df3dd08604eb00
     Pseudo is Ultrasoft + core correction, Zval = 14.0
     Generated by new atomic code, or converted to UPF format
     Using radial grid of  891 points,  6 beta functions with: 
                l(1) =   0
                l(2) =   0
                l(3) =   1
                l(4) =   1
                l(5) =   2
                l(6) =   2
     Q(r) pseudized with  6 coefficients,  rinner =    1.200   1.200   1.200
                                                       1.200   1.200

     PseudoPot. # 2 for Se read from file:
     ../pseudo/Se_pbe_v1.uspp.F.UPF
     MD5 check sum: 1b3568f3a8ae88f9a2a0ad0698632c85
     Pseudo is Ultrasoft + core correction, Zval =  6.0
     Generated by new atomic code, or converted to UPF format
     Using radial grid of  877 points,  6 beta functions with: 
                l(1) =   0
                l(2) =   0
                l(3) =   1
                l(4) =   1
                l(5) =   2
                l(6) =   2
     Q(r) pseudized with  8 coefficients,  rinner =    1.300   1.300   1.300
                                                       1.300   1.300

     atomic species   valence    mass     pseudopotential
     Sn               14.00   118.71000     Sn( 1.00)
     Se                6.00    78.97100     Se( 1.00)

      8 Sym. Ops., with inversion, found ( 6 have fractional translation)


                                    s                        frac. trans.

      isym =  1     identity                                     

 cryst.   s( 1) = (     1          0          0      )
                  (     0          1          0      )
                  (     0          0          1      )

 cart.    s( 1) = (  1.0000000  0.0000000  0.0000000 )
                  (  0.0000000  1.0000000  0.0000000 )
                  (  0.0000000  0.0000000  1.0000000 )


      isym =  2     180 deg rotation - cart. axis [0,0,1]        

 cryst.   s( 2) = (    -1          0          0      )    f =( -0.5000000 )
                  (     0         -1          0      )       ( -0.0000000 )
                  (     0          0          1      )       ( -0.5000000 )

 cart.    s( 2) = ( -1.0000000  0.0000000  0.0000000 )    f =( -0.5000000 )
                  (  0.0000000 -1.0000000  0.0000000 )       ( -0.0000000 )
                  (  0.0000000  0.0000000  1.0000000 )       ( -0.2028272 )


      isym =  3     180 deg rotation - cart. axis [0,1,0]        

 cryst.   s( 3) = (    -1          0          0      )    f =(  0.0000000 )
                  (     0          1          0      )       ( -0.5000000 )
                  (     0          0         -1      )       (  0.0000000 )

 cart.    s( 3) = ( -1.0000000  0.0000000  0.0000000 )    f =(  0.0000000 )
                  (  0.0000000  1.0000000  0.0000000 )       ( -0.1857257 )
                  (  0.0000000  0.0000000 -1.0000000 )       (  0.0000000 )


      isym =  4     180 deg rotation - cart. axis [1,0,0]        

 cryst.   s( 4) = (     1          0          0      )    f =( -0.5000000 )
                  (     0         -1          0      )       (  0.5000000 )
                  (     0          0         -1      )       (  0.5000000 )

 cart.    s( 4) = (  1.0000000  0.0000000  0.0000000 )    f =( -0.5000000 )
                  (  0.0000000 -1.0000000  0.0000000 )       (  0.1857257 )
                  (  0.0000000  0.0000000 -1.0000000 )       (  0.2028272 )


      isym =  5     inversion                                    

 cryst.   s( 5) = (    -1          0          0      )
                  (     0         -1          0      )
                  (     0          0         -1      )

 cart.    s( 5) = ( -1.0000000  0.0000000  0.0000000 )
                  (  0.0000000 -1.0000000  0.0000000 )
                  (  0.0000000  0.0000000 -1.0000000 )


      isym =  6     inv. 180 deg rotation - cart. axis [0,0,1]   

 cryst.   s( 6) = (     1          0          0      )    f =( -0.5000000 )
                  (     0          1          0      )       (  0.0000000 )
                  (     0          0         -1      )       (  0.5000000 )

 cart.    s( 6) = (  1.0000000  0.0000000  0.0000000 )    f =( -0.5000000 )
                  (  0.0000000  1.0000000  0.0000000 )       (  0.0000000 )
                  (  0.0000000  0.0000000 -1.0000000 )       (  0.2028272 )


      isym =  7     inv. 180 deg rotation - cart. axis [0,1,0]   

 cryst.   s( 7) = (     1          0          0      )    f =(  0.0000000 )
                  (     0         -1          0      )       (  0.5000000 )
                  (     0          0          1      )       (  0.0000000 )

 cart.    s( 7) = (  1.0000000  0.0000000  0.0000000 )    f =(  0.0000000 )
                  (  0.0000000 -1.0000000  0.0000000 )       (  0.1857257 )
                  (  0.0000000  0.0000000  1.0000000 )       (  0.0000000 )


      isym =  8     inv. 180 deg rotation - cart. axis [1,0,0]   

 cryst.   s( 8) = (    -1          0          0      )    f =( -0.5000000 )
                  (     0          1          0      )       ( -0.5000000 )
                  (     0          0          1      )       ( -0.5000000 )

 cart.    s( 8) = ( -1.0000000  0.0000000  0.0000000 )    f =( -0.5000000 )
                  (  0.0000000  1.0000000  0.0000000 )       ( -0.1857257 )
                  (  0.0000000  0.0000000  1.0000000 )       ( -0.2028272 )


     point group D_2h (mmm) 
     there are  8 classes
     the character table:

       E     C2    C2'   C2''  i     s_v   s_v'  s_v''
A_g    1.00  1.00  1.00  1.00  1.00  1.00  1.00  1.00
B_1g   1.00  1.00 -1.00 -1.00  1.00  1.00 -1.00 -1.00
B_2g   1.00 -1.00  1.00 -1.00  1.00 -1.00  1.00 -1.00
B_3g   1.00 -1.00 -1.00  1.00  1.00 -1.00 -1.00  1.00
A_u    1.00  1.00  1.00  1.00 -1.00 -1.00 -1.00 -1.00
B_1u   1.00  1.00 -1.00 -1.00 -1.00 -1.00  1.00  1.00
B_2u   1.00 -1.00  1.00 -1.00 -1.00  1.00 -1.00  1.00
B_3u   1.00 -1.00 -1.00  1.00 -1.00  1.00  1.00 -1.00

     the symmetry operations in each class and the name of the first element:

     E        1
          identity                                               
     C2       2
          180 deg rotation - cart. axis [0,0,1]                  
     C2'      4
          180 deg rotation - cart. axis [1,0,0]                  
     C2''     3
          180 deg rotation - cart. axis [0,1,0]                  
     i        5
          inversion                                              
     s_v      6
          inv. 180 deg rotation - cart. axis [0,0,1]             
     s_v'     8
          inv. 180 deg rotation - cart. axis [1,0,0]             
     s_v''    7
          inv. 180 deg rotation - cart. axis [0,1,0]             

   Cartesian axes

     site n.     atom                  positions (alat units)
         1        Se     tau(   1) = (   0.8549563   0.0928629   0.1960318  )
         2        Sn     tau(   2) = (   0.1165395   0.0928629   0.0455497  )
         3        Se     tau(   3) = (   0.6450437   0.2785886   0.3988590  )
         4        Sn     tau(   4) = (   0.3834605   0.2785886   0.2483770  )
         5        Se     tau(   5) = (   0.3549563   0.0928629   0.0067955  )
         6        Sn     tau(   6) = (   0.6165395   0.0928629   0.1572775  )
         7        Se     tau(   7) = (   0.1450437   0.2785886   0.2096227  )
         8        Sn     tau(   8) = (   0.8834605   0.2785886   0.3601048  )

     --------------------------------------------
     DFT-D3 Dispersion Correction (3-body terms):
     --------------------------------------------
       Reference C6 values for interpolation: 

         atom   Coordination number   C6
         Se         0.000           427.35
         Se         0.990           427.57
         Se         1.981           421.05
         Sn         0.000          1255.14
         Sn         0.951          1084.09
         Sn         1.950          1010.83
         Sn         2.926           818.29
         Sn         3.912           672.20

       Values used:

         atom   Coordination number  R0_AB[au]  C6      C8
         Se         3.531            3.332    421.05  29958.36
         Sn         4.333            3.957    672.30  84381.66
         Se         3.531            3.332    421.05  29958.36
         Sn         4.333            3.957    672.30  84381.66
         Se         3.531            3.332    421.05  29958.36
         Sn         4.333            3.957    672.30  84381.66
         Se         3.531            3.332    421.05  29958.36
         Sn         4.333            3.957    672.30  84381.66

         Molecular C6 ( Ry / a.u.^6 ) =     34499.07


   Crystallographic axes

     site n.     atom                  positions (cryst. coord.)
         1        Se     tau(   1) = (  0.8549563  0.2500000  0.4832481  )
         2        Sn     tau(   2) = (  0.1165395  0.2500000  0.1122870  )
         3        Se     tau(   3) = (  0.6450437  0.7500000  0.9832481  )
         4        Sn     tau(   4) = (  0.3834605  0.7500000  0.6122870  )
         5        Se     tau(   5) = (  0.3549563  0.2500000  0.0167519  )
         6        Sn     tau(   6) = (  0.6165395  0.2500000  0.3877130  )
         7        Se     tau(   7) = (  0.1450437  0.7500000  0.5167519  )
         8        Sn     tau(   8) = (  0.8834605  0.7500000  0.8877130  )

     number of k points=    32
                       cart. coord. in units 2pi/alat
        k(    1) = (   0.1666667   0.1682589   0.1540720), wk =   0.0833333
        k(    2) = (   0.1666667   0.1682589   0.4622160), wk =   0.0833333
        k(    3) = (   0.1666667   0.1682589   0.7703600), wk =   0.0833333
        k(    4) = (   0.1666667   0.1682589   1.0785040), wk =   0.0833333
        k(    5) = (   0.1666667   0.5047766   0.1540720), wk =   0.0833333
        k(    6) = (   0.1666667   0.5047766   0.4622160), wk =   0.0833333
        k(    7) = (   0.1666667   0.5047766   0.7703600), wk =   0.0833333
        k(    8) = (   0.1666667   0.5047766   1.0785040), wk =   0.0833333
        k(    9) = (   0.1666667   0.8412943   0.1540720), wk =   0.0833333
        k(   10) = (   0.1666667   0.8412943   0.4622160), wk =   0.0833333
        k(   11) = (   0.1666667   0.8412943   0.7703600), wk =   0.0833333
        k(   12) = (   0.1666667   0.8412943   1.0785040), wk =   0.0833333
        k(   13) = (   0.1666667   1.1778120   0.1540720), wk =   0.0833333
        k(   14) = (   0.1666667   1.1778120   0.4622160), wk =   0.0833333
        k(   15) = (   0.1666667   1.1778120   0.7703600), wk =   0.0833333
        k(   16) = (   0.1666667   1.1778120   1.0785040), wk =   0.0833333
        k(   17) = (  -0.5000000   0.1682589   0.1540720), wk =   0.0416667
        k(   18) = (  -0.5000000   0.1682589   0.4622160), wk =   0.0416667
        k(   19) = (  -0.5000000   0.1682589   0.7703600), wk =   0.0416667
        k(   20) = (  -0.5000000   0.1682589   1.0785040), wk =   0.0416667
        k(   21) = (  -0.5000000   0.5047766   0.1540720), wk =   0.0416667
        k(   22) = (  -0.5000000   0.5047766   0.4622160), wk =   0.0416667
        k(   23) = (  -0.5000000   0.5047766   0.7703600), wk =   0.0416667
        k(   24) = (  -0.5000000   0.5047766   1.0785040), wk =   0.0416667
        k(   25) = (  -0.5000000   0.8412943   0.1540720), wk =   0.0416667
        k(   26) = (  -0.5000000   0.8412943   0.4622160), wk =   0.0416667
        k(   27) = (  -0.5000000   0.8412943   0.7703600), wk =   0.0416667
        k(   28) = (  -0.5000000   0.8412943   1.0785040), wk =   0.0416667
        k(   29) = (  -0.5000000   1.1778120   0.1540720), wk =   0.0416667
        k(   30) = (  -0.5000000   1.1778120   0.4622160), wk =   0.0416667
        k(   31) = (  -0.5000000   1.1778120   0.7703600), wk =   0.0416667
        k(   32) = (  -0.5000000   1.1778120   1.0785040), wk =   0.0416667

                       cryst. coord.
        k(    1) = (   0.1666667   0.0625000   0.0625000), wk =   0.0833333
        k(    2) = (   0.1666667   0.0625000   0.1875000), wk =   0.0833333
        k(    3) = (   0.1666667   0.0625000   0.3125000), wk =   0.0833333
        k(    4) = (   0.1666667   0.0625000   0.4375000), wk =   0.0833333
        k(    5) = (   0.1666667   0.1875000   0.0625000), wk =   0.0833333
        k(    6) = (   0.1666667   0.1875000   0.1875000), wk =   0.0833333
        k(    7) = (   0.1666667   0.1875000   0.3125000), wk =   0.0833333
        k(    8) = (   0.1666667   0.1875000   0.4375000), wk =   0.0833333
        k(    9) = (   0.1666667   0.3125000   0.0625000), wk =   0.0833333
        k(   10) = (   0.1666667   0.3125000   0.1875000), wk =   0.0833333
        k(   11) = (   0.1666667   0.3125000   0.3125000), wk =   0.0833333
        k(   12) = (   0.1666667   0.3125000   0.4375000), wk =   0.0833333
        k(   13) = (   0.1666667   0.4375000   0.0625000), wk =   0.0833333
        k(   14) = (   0.1666667   0.4375000   0.1875000), wk =   0.0833333
        k(   15) = (   0.1666667   0.4375000   0.3125000), wk =   0.0833333
        k(   16) = (   0.1666667   0.4375000   0.4375000), wk =   0.0833333
        k(   17) = (  -0.5000000   0.0625000   0.0625000), wk =   0.0416667
        k(   18) = (  -0.5000000   0.0625000   0.1875000), wk =   0.0416667
        k(   19) = (  -0.5000000   0.0625000   0.3125000), wk =   0.0416667
        k(   20) = (  -0.5000000   0.0625000   0.4375000), wk =   0.0416667
        k(   21) = (  -0.5000000   0.1875000   0.0625000), wk =   0.0416667
        k(   22) = (  -0.5000000   0.1875000   0.1875000), wk =   0.0416667
        k(   23) = (  -0.5000000   0.1875000   0.3125000), wk =   0.0416667
        k(   24) = (  -0.5000000   0.1875000   0.4375000), wk =   0.0416667
        k(   25) = (  -0.5000000   0.3125000   0.0625000), wk =   0.0416667
        k(   26) = (  -0.5000000   0.3125000   0.1875000), wk =   0.0416667
        k(   27) = (  -0.5000000   0.3125000   0.3125000), wk =   0.0416667
        k(   28) = (  -0.5000000   0.3125000   0.4375000), wk =   0.0416667
        k(   29) = (  -0.5000000   0.4375000   0.0625000), wk =   0.0416667
        k(   30) = (  -0.5000000   0.4375000   0.1875000), wk =   0.0416667
        k(   31) = (  -0.5000000   0.4375000   0.3125000), wk =   0.0416667
        k(   32) = (  -0.5000000   0.4375000   0.4375000), wk =   0.0416667

     Dense  grid:   357435 G-vectors     FFT dimensions: ( 180,  64,  72)

     Smooth grid:    90461 G-vectors     FFT dimensions: ( 108,  40,  48)

     Dynamical RAM for                 wfc:       3.45 MB

     Dynamical RAM for     wfc (w. buffer):      41.39 MB

     Dynamical RAM for           str. fact:       5.45 MB

     Dynamical RAM for           local pot:       0.00 MB

     Dynamical RAM for          nlocal pot:      12.42 MB

     Dynamical RAM for                qrad:       3.93 MB

     Dynamical RAM for          rho,v,vnew:      17.67 MB

     Dynamical RAM for               rhoin:       5.89 MB

     Dynamical RAM for            rho*nmix:      43.63 MB

     Dynamical RAM for           G-vectors:      10.57 MB

     Dynamical RAM for          h,s,v(r/c):       0.29 MB

     Dynamical RAM for          <psi|beta>:       0.09 MB

     Dynamical RAM for                 psi:       6.90 MB

     Dynamical RAM for                hpsi:       6.90 MB

     Dynamical RAM for                spsi:       6.90 MB

     Dynamical RAM for      wfcinit/wfcrot:       9.03 MB

     Dynamical RAM for           addusdens:     174.53 MB

     Dynamical RAM for          addusforce:     179.54 MB

     Estimated static dynamical RAM per process >     121.33 MB

     Estimated max dynamical RAM per process >     344.50 MB

     Estimated total dynamical RAM >       1.85 GB

     Initial potential from superposition of free atoms

     starting charge      75.9995, renormalised to      80.0000
     Starting wfcs are   52 randomized atomic wfcs

     total cpu time spent up to now is        4.0 secs

     Self-consistent Calculation

     iteration #  1     ecut=    60.00 Ry     beta= 0.70
     Davidson diagonalization with overlap

---- Real-time Memory Report at c_bands before calling an iterative solver
           389 MiB given to the printing process from OS
             0 MiB allocation reported by mallinfo(arena+hblkhd)
          4292 MiB available memory on the node where the printing process lives
------------------
     ethr =  1.00E-02,  avg # of iterations =  2.0

     total cpu time spent up to now is       10.9 secs

     total energy              =    -826.64158170 Ry
     estimated scf accuracy    <       2.66320194 Ry

     iteration #  2     ecut=    60.00 Ry     beta= 0.70
     Davidson diagonalization with overlap

---- Real-time Memory Report at c_bands before calling an iterative solver
           490 MiB given to the printing process from OS
             0 MiB allocation reported by mallinfo(arena+hblkhd)
          4081 MiB available memory on the node where the printing process lives
------------------
     ethr =  3.33E-03,  avg # of iterations =  3.0

     total cpu time spent up to now is       18.6 secs

     total energy              =    -827.54948679 Ry
     estimated scf accuracy    <       0.93998919 Ry

     iteration #  3     ecut=    60.00 Ry     beta= 0.70
     Davidson diagonalization with overlap

---- Real-time Memory Report at c_bands before calling an iterative solver
           526 MiB given to the printing process from OS
             0 MiB allocation reported by mallinfo(arena+hblkhd)
          3921 MiB available memory on the node where the printing process lives
------------------
     ethr =  1.17E-03,  avg # of iterations =  2.5

     total cpu time spent up to now is       25.4 secs

     total energy              =    -827.73752412 Ry
     estimated scf accuracy    <       0.00943448 Ry

     iteration #  4     ecut=    60.00 Ry     beta= 0.70
     Davidson diagonalization with overlap

---- Real-time Memory Report at c_bands before calling an iterative solver
           529 MiB given to the printing process from OS
             0 MiB allocation reported by mallinfo(arena+hblkhd)
          3917 MiB available memory on the node where the printing process lives
------------------
     ethr =  1.18E-05,  avg # of iterations =  5.0

     total cpu time spent up to now is       34.3 secs

     total energy              =    -827.74358408 Ry
     estimated scf accuracy    <       0.00459334 Ry

     iteration #  5     ecut=    60.00 Ry     beta= 0.70
     Davidson diagonalization with overlap

---- Real-time Memory Report at c_bands before calling an iterative solver
           534 MiB given to the printing process from OS
             0 MiB allocation reported by mallinfo(arena+hblkhd)
          3908 MiB available memory on the node where the printing process lives
------------------
     ethr =  5.74E-06,  avg # of iterations =  3.2

     total cpu time spent up to now is       41.3 secs

     total energy              =    -827.74506604 Ry
     estimated scf accuracy    <       0.00107052 Ry

     iteration #  6     ecut=    60.00 Ry     beta= 0.70
     Davidson diagonalization with overlap

---- Real-time Memory Report at c_bands before calling an iterative solver
           536 MiB given to the printing process from OS
             0 MiB allocation reported by mallinfo(arena+hblkhd)
          3899 MiB available memory on the node where the printing process lives
------------------
     ethr =  1.34E-06,  avg # of iterations =  2.1

     total cpu time spent up to now is       48.0 secs

     total energy              =    -827.74519496 Ry
     estimated scf accuracy    <       0.00005254 Ry

     iteration #  7     ecut=    60.00 Ry     beta= 0.70
     Davidson diagonalization with overlap

---- Real-time Memory Report at c_bands before calling an iterative solver
           538 MiB given to the printing process from OS
             0 MiB allocation reported by mallinfo(arena+hblkhd)
          3896 MiB available memory on the node where the printing process lives
------------------
     ethr =  6.57E-08,  avg # of iterations =  4.4

     total cpu time spent up to now is       55.9 secs

     total energy              =    -827.74522638 Ry
     estimated scf accuracy    <       0.00000399 Ry

     iteration #  8     ecut=    60.00 Ry     beta= 0.70
     Davidson diagonalization with overlap

---- Real-time Memory Report at c_bands before calling an iterative solver
           540 MiB given to the printing process from OS
             0 MiB allocation reported by mallinfo(arena+hblkhd)
          3888 MiB available memory on the node where the printing process lives
------------------
     ethr =  4.99E-09,  avg # of iterations =  4.4

     total cpu time spent up to now is       64.6 secs

     total energy              =    -827.74522695 Ry
     estimated scf accuracy    <       0.00000180 Ry

     iteration #  9     ecut=    60.00 Ry     beta= 0.70
     Davidson diagonalization with overlap

---- Real-time Memory Report at c_bands before calling an iterative solver
           544 MiB given to the printing process from OS
             0 MiB allocation reported by mallinfo(arena+hblkhd)
          3883 MiB available memory on the node where the printing process lives
------------------
     ethr =  2.26E-09,  avg # of iterations =  3.4

     total cpu time spent up to now is       71.8 secs

     total energy              =    -827.74522748 Ry
     estimated scf accuracy    <       0.00000002 Ry

     iteration # 10     ecut=    60.00 Ry     beta= 0.70
     Davidson diagonalization with overlap

---- Real-time Memory Report at c_bands before calling an iterative solver
           546 MiB given to the printing process from OS
             0 MiB allocation reported by mallinfo(arena+hblkhd)
          3878 MiB available memory on the node where the printing process lives
------------------
     ethr =  2.23E-11,  avg # of iterations =  8.6

     total cpu time spent up to now is       87.7 secs

     End of self-consistent calculation

          k = 0.1667 0.1683 0.1541 ( 11315 PWs)   bands (ev):

   -13.3930 -13.3822 -13.3781 -13.3761 -13.3745 -13.3731 -13.3693 -13.3657
   -13.3613 -13.3567 -13.3545 -13.3542 -13.3429 -13.3361 -13.3180 -13.3169
   -13.3098 -13.3095 -13.2983 -13.2914  -5.7996  -5.4886  -4.7282  -4.2999
     0.5408   1.4467   2.3982   2.7316   3.2119   4.4547   4.5835   4.8636
     5.1337   5.2569   5.8298   6.1740   6.4331   6.9013   7.1804   7.4792

     occupation numbers 
     1.0000   1.0000   1.0000   1.0000   1.0000   1.0000   1.0000   1.0000
     1.0000   1.0000   1.0000   1.0000   1.0000   1.0000   1.0000   1.0000
     1.0000   1.0000   1.0000   1.0000   1.0000   1.0000   1.0000   1.0000
     1.0000   1.0000   1.0000   1.0000   1.0000   1.0000   1.0000   1.0000
     1.0000   1.0000   1.0000   1.0000   1.0000   1.0000   1.0000   1.0000

          k = 0.1667 0.1683 0.4622 ( 11313 PWs)   bands (ev):

   -13.3914 -13.3816 -13.3780 -13.3771 -13.3745 -13.3742 -13.3700 -13.3668
   -13.3604 -13.3547 -13.3541 -13.3518 -13.3425 -13.3368 -13.3184 -13.3159
   -13.3106 -13.3104 -13.2977 -13.2919  -5.6803  -5.3790  -4.7324  -4.3456
     0.2320   1.2126   1.8248   2.4267   3.3184   4.4898   4.7046   5.2757
     5.4592   5.7917   5.8374   6.2781   6.6370   6.9415   7.3100   7.5381

     occupation numbers 
     1.0000   1.0000   1.0000   1.0000   1.0000   1.0000   1.0000   1.0000
     1.0000   1.0000   1.0000   1.0000   1.0000   1.0000   1.0000   1.0000
     1.0000   1.0000   1.0000   1.0000   1.0000   1.0000   1.0000   1.0000
     1.0000   1.0000   1.0000   1.0000   1.0000   1.0000   1.0000   1.0000
     1.0000   1.0000   1.0000   1.0000   1.0000   1.0000   1.0000   1.0000

          k = 0.1667 0.1683 0.7704 ( 11302 PWs)   bands (ev):

   -13.3886 -13.3813 -13.3789 -13.3779 -13.3760 -13.3743 -13.3706 -13.3684
   -13.3590 -13.3551 -13.3499 -13.3481 -13.3424 -13.3383 -13.3180 -13.3148
   -13.3125 -13.3114 -13.2967 -13.2929  -5.4645  -5.1828  -4.7799  -4.4571
    -0.0625   0.7173   1.3793   1.9548   3.6236   4.7200   4.9172   5.5310
     5.8235   5.9289   6.2080   6.3022   6.8105   7.2702   7.3384   7.7802

     occupation numbers 
     1.0000   1.0000   1.0000   1.0000   1.0000   1.0000   1.0000   1.0000
     1.0000   1.0000   1.0000   1.0000   1.0000   1.0000   1.0000   1.0000
     1.0000   1.0000   1.0000   1.0000   1.0000   1.0000   1.0000   1.0000
     1.0000   1.0000   1.0000   1.0000   1.0000   1.0000   1.0000   1.0000
     1.0000   1.0000   1.0000   1.0000   1.0000   1.0000   1.0000   1.0000

          k = 0.1667 0.1683 1.0785 ( 11284 PWs)   bands (ev):

   -13.3854 -13.3827 -13.3794 -13.3789 -13.3758 -13.3749 -13.3707 -13.3699
   -13.3574 -13.3561 -13.3459 -13.3445 -13.3431 -13.3407 -13.3167 -13.3148
   -13.3134 -13.3124 -13.2954 -13.2941  -5.2035  -5.0137  -4.8449  -4.6455
    -0.1011   0.1871   1.3066   1.5278   4.0907   4.5918   5.3013   5.5970
     5.8246   5.9670   6.2712   6.5213   7.1023   7.3957   7.5887   7.6694

     occupation numbers 
     1.0000   1.0000   1.0000   1.0000   1.0000   1.0000   1.0000   1.0000
     1.0000   1.0000   1.0000   1.0000   1.0000   1.0000   1.0000   1.0000
     1.0000   1.0000   1.0000   1.0000   1.0000   1.0000   1.0000   1.0000
     1.0000   1.0000   1.0000   1.0000   1.0000   1.0000   1.0000   1.0000
     1.0000   1.0000   1.0000   1.0000   1.0000   1.0000   1.0000   1.0000

          k = 0.1667 0.5048 0.1541 ( 11327 PWs)   bands (ev):

   -13.3870 -13.3807 -13.3786 -13.3755 -13.3732 -13.3728 -13.3713 -13.3690
   -13.3617 -13.3565 -13.3530 -13.3521 -13.3406 -13.3372 -13.3196 -13.3159
   -13.3131 -13.3078 -13.2982 -13.2930  -5.6357  -5.3482  -4.6664  -4.3101
     0.4020   1.2087   2.0448   2.1761   3.3258   4.3110   4.6327   4.9815
     5.2789   5.4403   5.8675   6.2277   6.4127   7.0706   7.3557   7.4837

     occupation numbers 
     1.0000   1.0000   1.0000   1.0000   1.0000   1.0000   1.0000   1.0000
     1.0000   1.0000   1.0000   1.0000   1.0000   1.0000   1.0000   1.0000
     1.0000   1.0000   1.0000   1.0000   1.0000   1.0000   1.0000   1.0000
     1.0000   1.0000   1.0000   1.0000   1.0000   1.0000   1.0000   1.0000
     1.0000   1.0000   1.0000   1.0000   1.0000   1.0000   1.0000   1.0000

          k = 0.1667 0.5048 0.4622 ( 11305 PWs)   bands (ev):

   -13.3869 -13.3808 -13.3800 -13.3761 -13.3734 -13.3728 -13.3708 -13.3701
   -13.3610 -13.3568 -13.3507 -13.3497 -13.3408 -13.3372 -13.3192 -13.3159
   -13.3134 -13.3088 -13.2977 -13.2933  -5.5224  -5.2454  -4.6673  -4.3432
     0.2472   1.1565   1.6851   2.0584   3.4607   3.9098   4.2233   5.1169
     5.3063   5.8570   5.9863   6.2199   6.8189   6.9719   7.3404   7.5208

     occupation numbers 
     1.0000   1.0000   1.0000   1.0000   1.0000   1.0000   1.0000   1.0000
     1.0000   1.0000   1.0000   1.0000   1.0000   1.0000   1.0000   1.0000
     1.0000   1.0000   1.0000   1.0000   1.0000   1.0000   1.0000   1.0000
     1.0000   1.0000   1.0000   1.0000   1.0000   1.0000   1.0000   1.0000
     1.0000   1.0000   1.0000   1.0000   1.0000   1.0000   1.0000   1.0000

          k = 0.1667 0.5048 0.7704 ( 11295 PWs)   bands (ev):

   -13.3869 -13.3827 -13.3802 -13.3774 -13.3744 -13.3722 -13.3719 -13.3699
   -13.3599 -13.3572 -13.3470 -13.3462 -13.3410 -13.3378 -13.3185 -13.3159
   -13.3135 -13.3103 -13.2968 -13.2938  -5.3195  -5.0633  -4.7050  -4.4301
     0.0827   0.8275   1.4126   1.8348   3.7160   3.8640   4.1741   5.0030
     5.1334   5.8416   5.9399   6.4712   6.7054   6.9910   7.2062   7.5319

     occupation numbers 
     1.0000   1.0000   1.0000   1.0000   1.0000   1.0000   1.0000   1.0000
     1.0000   1.0000   1.0000   1.0000   1.0000   1.0000   1.0000   1.0000
     1.0000   1.0000   1.0000   1.0000   1.0000   1.0000   1.0000   1.0000
     1.0000   1.0000   1.0000   1.0000   1.0000   1.0000   1.0000   1.0000
     1.0000   1.0000   1.0000   1.0000   1.0000   1.0000   1.0000   1.0000

          k = 0.1667 0.5048 1.0785 ( 11283 PWs)   bands (ev):

   -13.3864 -13.3850 -13.3796 -13.3787 -13.3745 -13.3734 -13.3709 -13.3701
   -13.3588 -13.3579 -13.3438 -13.3426 -13.3417 -13.3395 -13.3174 -13.3165
   -13.3130 -13.3118 -13.2957 -13.2946  -5.0789  -4.9084  -4.7594  -4.5862
     0.0933   0.3657   1.4086   1.5744   4.0320   4.1015   4.3924   4.6874
     5.0171   5.3281   6.0019   6.2841   6.6949   6.9591   7.2432   7.4438

     occupation numbers 
     1.0000   1.0000   1.0000   1.0000   1.0000   1.0000   1.0000   1.0000
     1.0000   1.0000   1.0000   1.0000   1.0000   1.0000   1.0000   1.0000
     1.0000   1.0000   1.0000   1.0000   1.0000   1.0000   1.0000   1.0000
     1.0000   1.0000   1.0000   1.0000   1.0000   1.0000   1.0000   1.0000
     1.0000   1.0000   1.0000   1.0000   1.0000   1.0000   1.0000   1.0000

          k = 0.1667 0.8413 0.1541 ( 11299 PWs)   bands (ev):

   -13.3849 -13.3826 -13.3812 -13.3803 -13.3705 -13.3687 -13.3672 -13.3655
   -13.3603 -13.3582 -13.3510 -13.3475 -13.3403 -13.3371 -13.3242 -13.3225
   -13.3095 -13.3048 -13.2981 -13.2955  -5.3355  -5.1032  -4.6047  -4.3921
     0.2197   0.9150   1.2419   1.6496   3.6675   4.4253   4.8062   5.1911
     5.5077   5.6129   5.9925   6.1822   6.5194   7.0379   7.1581   7.5561

     occupation numbers 
     1.0000   1.0000   1.0000   1.0000   1.0000   1.0000   1.0000   1.0000
     1.0000   1.0000   1.0000   1.0000   1.0000   1.0000   1.0000   1.0000
     1.0000   1.0000   1.0000   1.0000   1.0000   1.0000   1.0000   1.0000
     1.0000   1.0000   1.0000   1.0000   1.0000   1.0000   1.0000   1.0000
     1.0000   1.0000   1.0000   1.0000   1.0000   1.0000   1.0000   1.0000

          k = 0.1667 0.8413 0.4622 ( 11297 PWs)   bands (ev):

   -13.3877 -13.3846 -13.3826 -13.3809 -13.3710 -13.3676 -13.3668 -13.3653
   -13.3594 -13.3581 -13.3492 -13.3459 -13.3406 -13.3367 -13.3236 -13.3222
   -13.3096 -13.3056 -13.2977 -13.2954  -5.2365  -5.0156  -4.5953  -4.3975
     0.2602   1.0086   1.2778   1.5509   3.6636   3.7801   4.1657   4.8148
     5.2495   5.7793   5.8382   6.3279   6.4042   6.8558   7.0334   7.3147

     occupation numbers 
     1.0000   1.0000   1.0000   1.0000   1.0000   1.0000   1.0000   1.0000
     1.0000   1.0000   1.0000   1.0000   1.0000   1.0000   1.0000   1.0000
     1.0000   1.0000   1.0000   1.0000   1.0000   1.0000   1.0000   1.0000
     1.0000   1.0000   1.0000   1.0000   1.0000   1.0000   1.0000   1.0000
     1.0000   1.0000   1.0000   1.0000   1.0000   1.0000   1.0000   1.0000

          k = 0.1667 0.8413 0.7704 ( 11287 PWs)   bands (ev):

   -13.3906 -13.3881 -13.3841 -13.3827 -13.3706 -13.3671 -13.3664 -13.3651
   -13.3583 -13.3579 -13.3466 -13.3436 -13.3402 -13.3367 -13.3228 -13.3218
   -13.3094 -13.3067 -13.2970 -13.2954  -5.0641  -4.8657  -4.6073  -4.4311
     0.3251   0.9562   1.3438   1.5157   3.2825   3.6383   4.0650   4.3679
     4.7272   5.2487   5.5714   5.9556   6.2698   6.5895   6.8516   7.2894

     occupation numbers 
     1.0000   1.0000   1.0000   1.0000   1.0000   1.0000   1.0000   1.0000
     1.0000   1.0000   1.0000   1.0000   1.0000   1.0000   1.0000   1.0000
     1.0000   1.0000   1.0000   1.0000   1.0000   1.0000   1.0000   1.0000
     1.0000   1.0000   1.0000   1.0000   1.0000   1.0000   1.0000   1.0000
     1.0000   1.0000   1.0000   1.0000   1.0000   1.0000   1.0000   1.0000

          k = 0.1667 0.8413 1.0785 ( 11299 PWs)   bands (ev):

   -13.3920 -13.3911 -13.3850 -13.3845 -13.3695 -13.3681 -13.3656 -13.3651
   -13.3577 -13.3577 -13.3442 -13.3428 -13.3389 -13.3375 -13.3220 -13.3216
   -13.3087 -13.3078 -13.2962 -13.2957  -4.8697  -4.7425  -4.6362  -4.5188
     0.4436   0.6727   1.4757   1.5311   3.3019   3.6476   3.7638   4.1310
     4.5347   4.9089   5.3264   5.7096   5.9595   6.2382   6.9435   7.0694

     occupation numbers 
     1.0000   1.0000   1.0000   1.0000   1.0000   1.0000   1.0000   1.0000
     1.0000   1.0000   1.0000   1.0000   1.0000   1.0000   1.0000   1.0000
     1.0000   1.0000   1.0000   1.0000   1.0000   1.0000   1.0000   1.0000
     1.0000   1.0000   1.0000   1.0000   1.0000   1.0000   1.0000   1.0000
     1.0000   1.0000   1.0000   1.0000   1.0000   1.0000   1.0000   1.0000

          k = 0.1667 1.1778 0.1541 ( 11292 PWs)   bands (ev):

   -13.3872 -13.3859 -13.3839 -13.3828 -13.3667 -13.3653 -13.3641 -13.3624
   -13.3560 -13.3546 -13.3523 -13.3473 -13.3391 -13.3338 -13.3310 -13.3290
   -13.3041 -13.3016 -13.2990 -13.2989  -4.9616  -4.8316  -4.6434  -4.6142
     0.2142   0.5610   0.8581   1.1412   4.1782   4.6135   5.0176   5.3707
     5.5652   5.5975   6.0260   6.3365   6.6392   6.8848   6.9332   7.1113

     occupation numbers 
     1.0000   1.0000   1.0000   1.0000   1.0000   1.0000   1.0000   1.0000
     1.0000   1.0000   1.0000   1.0000   1.0000   1.0000   1.0000   1.0000
     1.0000   1.0000   1.0000   1.0000   1.0000   1.0000   1.0000   1.0000
     1.0000   1.0000   1.0000   1.0000   1.0000   1.0000   1.0000   1.0000
     1.0000   1.0000   1.0000   1.0000   1.0000   1.0000   1.0000   1.0000

          k = 0.1667 1.1778 0.4622 ( 11327 PWs)   bands (ev):

   -13.3901 -13.3888 -13.3854 -13.3845 -13.3672 -13.3655 -13.3629 -13.3618
   -13.3555 -13.3541 -13.3508 -13.3467 -13.3384 -13.3346 -13.3290 -13.3280
   -13.3044 -13.3024 -13.2985 -13.2983  -4.8889  -4.7695  -4.6118  -4.5795
     0.3603   0.6986   0.9760   1.1763   3.9335   4.1197   4.4064   4.6870
     4.9293   5.3586   5.8629   6.0538   6.1789   6.4606   7.0166   7.2599

     occupation numbers 
     1.0000   1.0000   1.0000   1.0000   1.0000   1.0000   1.0000   1.0000
     1.0000   1.0000   1.0000   1.0000   1.0000   1.0000   1.0000   1.0000
     1.0000   1.0000   1.0000   1.0000   1.0000   1.0000   1.0000   1.0000
     1.0000   1.0000   1.0000   1.0000   1.0000   1.0000   1.0000   1.0000
     1.0000   1.0000   1.0000   1.0000   1.0000   1.0000   1.0000   1.0000

          k = 0.1667 1.1778 0.7704 ( 11308 PWs)   bands (ev):

   -13.3938 -13.3928 -13.3876 -13.3870 -13.3674 -13.3659 -13.3617 -13.3611
   -13.3546 -13.3535 -13.3488 -13.3461 -13.3370 -13.3350 -13.3270 -13.3266
   -13.3045 -13.3033 -13.2979 -13.2977  -4.7706  -4.6717  -4.5758  -4.5367
     0.6085   0.9124   1.1565   1.2232   3.2919   3.7475   3.8594   4.1544
     4.5100   4.8251   5.2175   5.6745   5.7883   6.0404   6.8936   7.0246

     occupation numbers 
     1.0000   1.0000   1.0000   1.0000   1.0000   1.0000   1.0000   1.0000
     1.0000   1.0000   1.0000   1.0000   1.0000   1.0000   1.0000   1.0000
     1.0000   1.0000   1.0000   1.0000   1.0000   1.0000   1.0000   1.0000
     1.0000   1.0000   1.0000   1.0000   1.0000   1.0000   1.0000   1.0000
     1.0000   1.0000   1.0000   1.0000   1.0000   1.0000   1.0000   1.0000

          k = 0.1667 1.1778 1.0785 ( 11305 PWs)   bands (ev):

   -13.3961 -13.3958 -13.3891 -13.3889 -13.3671 -13.3665 -13.3610 -13.3608
   -13.3538 -13.3533 -13.3472 -13.3462 -13.3357 -13.3350 -13.3258 -13.3257
   -13.3043 -13.3039 -13.2975 -13.2974  -4.6550  -4.5989  -4.5594  -4.5248
     0.8558   0.9914   1.2905   1.3280   3.0403   3.2464   3.6461   3.7686
     4.3390   4.3524   4.8753   5.2047   5.7525   5.9389   6.7404   6.7943

     occupation numbers 
     1.0000   1.0000   1.0000   1.0000   1.0000   1.0000   1.0000   1.0000
     1.0000   1.0000   1.0000   1.0000   1.0000   1.0000   1.0000   1.0000
     1.0000   1.0000   1.0000   1.0000   1.0000   1.0000   1.0000   1.0000
     1.0000   1.0000   1.0000   1.0000   1.0000   1.0000   1.0000   1.0000
     1.0000   1.0000   1.0000   1.0000   1.0000   1.0000   1.0000   1.0000

          k =-0.5000 0.1683 0.1541 ( 11340 PWs)   bands (ev):

   -13.3881 -13.3881 -13.3762 -13.3762 -13.3750 -13.3750 -13.3670 -13.3670
   -13.3581 -13.3581 -13.3555 -13.3555 -13.3391 -13.3391 -13.3171 -13.3171
   -13.3100 -13.3100 -13.2947 -13.2947  -5.6722  -5.6722  -4.4858  -4.4858
     0.8606   0.8606   2.6542   2.6542   3.9057   3.9057   4.7771   4.7771
     5.2970   5.2970   5.9135   5.9135   6.2709   6.2709   7.3963   7.3963

     occupation numbers 
     1.0000   1.0000   1.0000   1.0000   1.0000   1.0000   1.0000   1.0000
     1.0000   1.0000   1.0000   1.0000   1.0000   1.0000   1.0000   1.0000
     1.0000   1.0000   1.0000   1.0000   1.0000   1.0000   1.0000   1.0000
     1.0000   1.0000   1.0000   1.0000   1.0000   1.0000   1.0000   1.0000
     1.0000   1.0000   1.0000   1.0000   1.0000   1.0000   1.0000   1.0000

          k =-0.5000 0.1683 0.4622 ( 11318 PWs)   bands (ev):

   -13.3871 -13.3871 -13.3764 -13.3764 -13.3754 -13.3754 -13.3682 -13.3682
   -13.3575 -13.3575 -13.3530 -13.3530 -13.3395 -13.3395 -13.3168 -13.3168
   -13.3108 -13.3108 -13.2947 -13.2947  -5.5581  -5.5581  -4.5104  -4.5104
     0.5837   0.5837   2.1838   2.1838   4.1507   4.1507   4.8529   4.8529
     5.5431   5.5431   6.0673   6.0673   6.7081   6.7081   7.3101   7.3101

     occupation numbers 
     1.0000   1.0000   1.0000   1.0000   1.0000   1.0000   1.0000   1.0000
     1.0000   1.0000   1.0000   1.0000   1.0000   1.0000   1.0000   1.0000
     1.0000   1.0000   1.0000   1.0000   1.0000   1.0000   1.0000   1.0000
     1.0000   1.0000   1.0000   1.0000   1.0000   1.0000   1.0000   1.0000
     1.0000   1.0000   1.0000   1.0000   1.0000   1.0000   1.0000   1.0000

          k =-0.5000 0.1683 0.7704 ( 11290 PWs)   bands (ev):

   -13.3854 -13.3854 -13.3780 -13.3780 -13.3751 -13.3751 -13.3699 -13.3699
   -13.3568 -13.3568 -13.3491 -13.3491 -13.3402 -13.3402 -13.3162 -13.3162
   -13.3121 -13.3121 -13.2947 -13.2947  -5.3545  -5.3545  -4.5880  -4.5880
     0.2666   0.2666   1.6363   1.6363   4.4748   4.4748   5.1385   5.1385
     5.6807   5.6807   6.2736   6.2736   6.9235   6.9235   7.4649   7.4649

     occupation numbers 
     1.0000   1.0000   1.0000   1.0000   1.0000   1.0000   1.0000   1.0000
     1.0000   1.0000   1.0000   1.0000   1.0000   1.0000   1.0000   1.0000
     1.0000   1.0000   1.0000   1.0000   1.0000   1.0000   1.0000   1.0000
     1.0000   1.0000   1.0000   1.0000   1.0000   1.0000   1.0000   1.0000
     1.0000   1.0000   1.0000   1.0000   1.0000   1.0000   1.0000   1.0000

          k =-0.5000 0.1683 1.0785 ( 11296 PWs)   bands (ev):

   -13.3839 -13.3839 -13.3793 -13.3793 -13.3750 -13.3750 -13.3710 -13.3710
   -13.3563 -13.3563 -13.3454 -13.3454 -13.3417 -13.3417 -13.3155 -13.3155
   -13.3132 -13.3132 -13.2947 -13.2947  -5.1314  -5.1314  -4.7234  -4.7234
     0.0921   0.0921   1.2758   1.2758   4.8840   4.8840   5.4393   5.4393
     5.5234   5.5234   6.1296   6.1296   7.2811   7.2811   7.5681   7.5681

     occupation numbers 
     1.0000   1.0000   1.0000   1.0000   1.0000   1.0000   1.0000   1.0000
     1.0000   1.0000   1.0000   1.0000   1.0000   1.0000   1.0000   1.0000
     1.0000   1.0000   1.0000   1.0000   1.0000   1.0000   1.0000   1.0000
     1.0000   1.0000   1.0000   1.0000   1.0000   1.0000   1.0000   1.0000
     1.0000   1.0000   1.0000   1.0000   1.0000   1.0000   1.0000   1.0000

          k =-0.5000 0.5048 0.1541 ( 11354 PWs)   bands (ev):

   -13.3838 -13.3838 -13.3775 -13.3775 -13.3728 -13.3728 -13.3701 -13.3701
   -13.3591 -13.3591 -13.3525 -13.3525 -13.3389 -13.3389 -13.3181 -13.3181
   -13.3101 -13.3101 -13.2955 -13.2955  -5.5173  -5.5173  -4.4621  -4.4621
     0.7043   0.7043   2.1495   2.1495   4.0310   4.0310   4.6779   4.6779
     5.5902   5.5902   5.7889   5.7889   6.4493   6.4493   7.5068   7.5068

     occupation numbers 
     1.0000   1.0000   1.0000   1.0000   1.0000   1.0000   1.0000   1.0000
     1.0000   1.0000   1.0000   1.0000   1.0000   1.0000   1.0000   1.0000
     1.0000   1.0000   1.0000   1.0000   1.0000   1.0000   1.0000   1.0000
     1.0000   1.0000   1.0000   1.0000   1.0000   1.0000   1.0000   1.0000
     1.0000   1.0000   1.0000   1.0000   1.0000   1.0000   1.0000   1.0000

          k =-0.5000 0.5048 0.4622 ( 11316 PWs)   bands (ev):

   -13.3840 -13.3840 -13.3785 -13.3785 -13.3729 -13.3729 -13.3702 -13.3702
   -13.3589 -13.3589 -13.3501 -13.3501 -13.3391 -13.3391 -13.3179 -13.3179
   -13.3107 -13.3107 -13.2953 -13.2953  -5.4093  -5.4093  -4.4793  -4.4793
     0.5848   0.5848   1.9185   1.9185   3.9624   3.9624   4.5945   4.5945
     5.2733   5.2733   6.2117   6.2117   6.8159   6.8159   7.4180   7.4180

     occupation numbers 
     1.0000   1.0000   1.0000   1.0000   1.0000   1.0000   1.0000   1.0000
     1.0000   1.0000   1.0000   1.0000   1.0000   1.0000   1.0000   1.0000
     1.0000   1.0000   1.0000   1.0000   1.0000   1.0000   1.0000   1.0000
     1.0000   1.0000   1.0000   1.0000   1.0000   1.0000   1.0000   1.0000
     1.0000   1.0000   1.0000   1.0000   1.0000   1.0000   1.0000   1.0000

          k =-0.5000 0.5048 0.7704 ( 11292 PWs)   bands (ev):

   -13.3844 -13.3844 -13.3803 -13.3803 -13.3727 -13.3727 -13.3702 -13.3702
   -13.3585 -13.3585 -13.3466 -13.3466 -13.3396 -13.3396 -13.3176 -13.3176
   -13.3117 -13.3117 -13.2951 -13.2951  -5.2188  -5.2188  -4.5403  -4.5403
     0.3996   0.3996   1.6067   1.6067   3.9505   3.9505   4.7608   4.7608
     5.1143   5.1143   6.3085   6.3085   6.6747   6.6747   7.3702   7.3702

     occupation numbers 
     1.0000   1.0000   1.0000   1.0000   1.0000   1.0000   1.0000   1.0000
     1.0000   1.0000   1.0000   1.0000   1.0000   1.0000   1.0000   1.0000
     1.0000   1.0000   1.0000   1.0000   1.0000   1.0000   1.0000   1.0000
     1.0000   1.0000   1.0000   1.0000   1.0000   1.0000   1.0000   1.0000
     1.0000   1.0000   1.0000   1.0000   1.0000   1.0000   1.0000   1.0000

          k =-0.5000 0.5048 1.0785 ( 11270 PWs)   bands (ev):

   -13.3848 -13.3848 -13.3817 -13.3817 -13.3722 -13.3722 -13.3704 -13.3704
   -13.3584 -13.3584 -13.3433 -13.3433 -13.3407 -13.3407 -13.3174 -13.3174
   -13.3123 -13.3123 -13.2949 -13.2949  -5.0139  -5.0139  -4.6534  -4.6534
     0.2717   0.2717   1.3775   1.3775   4.1892   4.1892   4.6093   4.6093
     5.3411   5.3411   5.9443   5.9443   6.6041   6.6041   7.2055   7.2055

     occupation numbers 
     1.0000   1.0000   1.0000   1.0000   1.0000   1.0000   1.0000   1.0000
     1.0000   1.0000   1.0000   1.0000   1.0000   1.0000   1.0000   1.0000
     1.0000   1.0000   1.0000   1.0000   1.0000   1.0000   1.0000   1.0000
     1.0000   1.0000   1.0000   1.0000   1.0000   1.0000   1.0000   1.0000
     1.0000   1.0000   1.0000   1.0000   1.0000   1.0000   1.0000   1.0000

          k =-0.5000 0.8413 0.1541 ( 11280 PWs)   bands (ev):

   -13.3843 -13.3843 -13.3801 -13.3801 -13.3690 -13.3690 -13.3674 -13.3674
   -13.3589 -13.3589 -13.3494 -13.3494 -13.3385 -13.3385 -13.3235 -13.3235
   -13.3070 -13.3070 -13.2968 -13.2968  -5.2382  -5.2382  -4.4786  -4.4786
     0.5031   0.5031   1.4426   1.4426   4.3127   4.3127   4.8600   4.8600
     5.7484   5.7484   5.9094   5.9094   6.4486   6.4486   7.3562   7.3562

     occupation numbers 
     1.0000   1.0000   1.0000   1.0000   1.0000   1.0000   1.0000   1.0000
     1.0000   1.0000   1.0000   1.0000   1.0000   1.0000   1.0000   1.0000
     1.0000   1.0000   1.0000   1.0000   1.0000   1.0000   1.0000   1.0000
     1.0000   1.0000   1.0000   1.0000   1.0000   1.0000   1.0000   1.0000
     1.0000   1.0000   1.0000   1.0000   1.0000   1.0000   1.0000   1.0000

          k =-0.5000 0.8413 0.4622 ( 11320 PWs)   bands (ev):

   -13.3862 -13.3862 -13.3820 -13.3820 -13.3689 -13.3689 -13.3664 -13.3664
   -13.3586 -13.3586 -13.3478 -13.3478 -13.3383 -13.3383 -13.3233 -13.3233
   -13.3073 -13.3073 -13.2965 -13.2965  -5.1448  -5.1448  -4.4772  -4.4772
     0.5633   0.5633   1.4260   1.4260   3.8419   3.8419   4.6934   4.6934
     5.1716   5.1716   6.1554   6.1554   6.3899   6.3899   7.2593   7.2593

     occupation numbers 
     1.0000   1.0000   1.0000   1.0000   1.0000   1.0000   1.0000   1.0000
     1.0000   1.0000   1.0000   1.0000   1.0000   1.0000   1.0000   1.0000
     1.0000   1.0000   1.0000   1.0000   1.0000   1.0000   1.0000   1.0000
     1.0000   1.0000   1.0000   1.0000   1.0000   1.0000   1.0000   1.0000
     1.0000   1.0000   1.0000   1.0000   1.0000   1.0000   1.0000   1.0000

          k =-0.5000 0.8413 0.7704 ( 11304 PWs)   bands (ev):

   -13.3886 -13.3886 -13.3846 -13.3846 -13.3684 -13.3684 -13.3657 -13.3657
   -13.3581 -13.3581 -13.3457 -13.3457 -13.3377 -13.3377 -13.3230 -13.3230
   -13.3076 -13.3076 -13.2962 -13.2962  -4.9846  -4.9846  -4.4995  -4.4995
     0.6047   0.6047   1.4171   1.4171   3.5034   3.5034   4.3503   4.3503
     4.9375   4.9375   5.6420   5.6420   6.3014   6.3014   7.1414   7.1414

     occupation numbers 
     1.0000   1.0000   1.0000   1.0000   1.0000   1.0000   1.0000   1.0000
     1.0000   1.0000   1.0000   1.0000   1.0000   1.0000   1.0000   1.0000
     1.0000   1.0000   1.0000   1.0000   1.0000   1.0000   1.0000   1.0000
     1.0000   1.0000   1.0000   1.0000   1.0000   1.0000   1.0000   1.0000
     1.0000   1.0000   1.0000   1.0000   1.0000   1.0000   1.0000   1.0000

          k =-0.5000 0.8413 1.0785 ( 11298 PWs)   bands (ev):

   -13.3903 -13.3903 -13.3865 -13.3865 -13.3677 -13.3677 -13.3656 -13.3656
   -13.3577 -13.3577 -13.3444 -13.3444 -13.3371 -13.3371 -13.3227 -13.3227
   -13.3077 -13.3077 -13.2960 -13.2960  -4.8206  -4.8206  -4.5635  -4.5635
     0.5854   0.5854   1.4403   1.4403   3.5169   3.5169   3.8860   3.8860
     4.9438   4.9438   5.2574   5.2574   6.3004   6.3004   6.8230   6.8230

     occupation numbers 
     1.0000   1.0000   1.0000   1.0000   1.0000   1.0000   1.0000   1.0000
     1.0000   1.0000   1.0000   1.0000   1.0000   1.0000   1.0000   1.0000
     1.0000   1.0000   1.0000   1.0000   1.0000   1.0000   1.0000   1.0000
     1.0000   1.0000   1.0000   1.0000   1.0000   1.0000   1.0000   1.0000
     1.0000   1.0000   1.0000   1.0000   1.0000   1.0000   1.0000   1.0000

          k =-0.5000 1.1778 0.1541 ( 11290 PWs)   bands (ev):

   -13.3859 -13.3859 -13.3843 -13.3843 -13.3651 -13.3651 -13.3644 -13.3644
   -13.3548 -13.3548 -13.3499 -13.3499 -13.3359 -13.3359 -13.3304 -13.3304
   -13.3027 -13.3027 -13.2990 -13.2990  -4.9043  -4.9043  -4.6217  -4.6217
     0.4950   0.4950   0.8274   0.8274   4.7726   4.7726   5.1256   5.1256
     5.6300   5.6300   5.8822   5.8822   6.5696   6.5696   6.9538   6.9538

     occupation numbers 
     1.0000   1.0000   1.0000   1.0000   1.0000   1.0000   1.0000   1.0000
     1.0000   1.0000   1.0000   1.0000   1.0000   1.0000   1.0000   1.0000
     1.0000   1.0000   1.0000   1.0000   1.0000   1.0000   1.0000   1.0000
     1.0000   1.0000   1.0000   1.0000   1.0000   1.0000   1.0000   1.0000
     1.0000   1.0000   1.0000   1.0000   1.0000   1.0000   1.0000   1.0000

          k =-0.5000 1.1778 0.4622 ( 11294 PWs)   bands (ev):

   -13.3881 -13.3881 -13.3865 -13.3865 -13.3650 -13.3650 -13.3640 -13.3640
   -13.3541 -13.3541 -13.3493 -13.3493 -13.3351 -13.3351 -13.3296 -13.3296
   -13.3027 -13.3027 -13.2989 -13.2989  -4.8366  -4.8366  -4.5887  -4.5887
     0.6262   0.6262   0.9264   0.9264   4.1208   4.1208   4.6594   4.6594
     5.2174   5.2174   5.6598   5.6598   6.4304   6.4304   6.8706   6.8706

     occupation numbers 
     1.0000   1.0000   1.0000   1.0000   1.0000   1.0000   1.0000   1.0000
     1.0000   1.0000   1.0000   1.0000   1.0000   1.0000   1.0000   1.0000
     1.0000   1.0000   1.0000   1.0000   1.0000   1.0000   1.0000   1.0000
     1.0000   1.0000   1.0000   1.0000   1.0000   1.0000   1.0000   1.0000
     1.0000   1.0000   1.0000   1.0000   1.0000   1.0000   1.0000   1.0000

          k =-0.5000 1.1778 0.7704 ( 11304 PWs)   bands (ev):

   -13.3912 -13.3912 -13.3897 -13.3897 -13.3648 -13.3648 -13.3637 -13.3637
   -13.3532 -13.3532 -13.3485 -13.3485 -13.3336 -13.3336 -13.3286 -13.3286
   -13.3027 -13.3027 -13.2987 -13.2987  -4.7287  -4.7287  -4.5490  -4.5490
     0.8204   0.8204   1.0951   1.0951   3.5629   3.5629   4.0799   4.0799
     4.6494   4.6494   5.1114   5.1114   6.3657   6.3657   6.7400   6.7400

     occupation numbers 
     1.0000   1.0000   1.0000   1.0000   1.0000   1.0000   1.0000   1.0000
     1.0000   1.0000   1.0000   1.0000   1.0000   1.0000   1.0000   1.0000
     1.0000   1.0000   1.0000   1.0000   1.0000   1.0000   1.0000   1.0000
     1.0000   1.0000   1.0000   1.0000   1.0000   1.0000   1.0000   1.0000
     1.0000   1.0000   1.0000   1.0000   1.0000   1.0000   1.0000   1.0000

          k =-0.5000 1.1778 1.0785 ( 11304 PWs)   bands (ev):

   -13.3933 -13.3933 -13.3918 -13.3918 -13.3648 -13.3648 -13.3636 -13.3636
   -13.3526 -13.3526 -13.3479 -13.3479 -13.3326 -13.3326 -13.3278 -13.3278
   -13.3027 -13.3027 -13.2985 -13.2985  -4.6321  -4.6321  -4.5370  -4.5370
     0.9421   0.9421   1.2656   1.2656   3.3787   3.3787   3.6239   3.6239
     4.2991   4.2991   4.5823   4.5823   6.4671   6.4671   6.6564   6.6564

     occupation numbers 
     1.0000   1.0000   1.0000   1.0000   1.0000   1.0000   1.0000   1.0000
     1.0000   1.0000   1.0000   1.0000   1.0000   1.0000   1.0000   1.0000
     1.0000   1.0000   1.0000   1.0000   1.0000   1.0000   1.0000   1.0000
     1.0000   1.0000   1.0000   1.0000   1.0000   1.0000   1.0000   1.0000
     1.0000   1.0000   1.0000   1.0000   1.0000   1.0000   1.0000   1.0000

     highest occupied level (ev):     7.7802

!    total energy              =    -827.74522754 Ry
     estimated scf accuracy    <          4.0E-09 Ry

     The total energy is the sum of the following terms:
     one-electron contribution =    -260.56904686 Ry
     hartree contribution      =     180.51442853 Ry
     xc contribution           =    -309.10631106 Ry
     ewald contribution        =    -438.46218851 Ry
     DFT-D3 Dispersion         =      -0.12210964 Ry

     convergence has been achieved in  10 iterations

     Forces acting on atoms (cartesian axes, Ry/au):

     atom    1 type  2   force =     0.00983448    0.00000000    0.00081632
     atom    2 type  1   force =    -0.01009215    0.00000000   -0.00036147
     atom    3 type  2   force =    -0.00983448    0.00000000    0.00081632
     atom    4 type  1   force =     0.01009215   -0.00000000   -0.00036147
     atom    5 type  2   force =     0.00983448    0.00000000   -0.00081632
     atom    6 type  1   force =    -0.01009215    0.00000000    0.00036147
     atom    7 type  2   force =    -0.00983448    0.00000000   -0.00081632
     atom    8 type  1   force =     0.01009215   -0.00000000    0.00036147
     The non-local contrib.  to forces
     atom    1 type  2   force =    -0.10654214   -0.00000000    0.11242121
     atom    2 type  1   force =     0.35211028    0.00000000    0.30422396
     atom    3 type  2   force =     0.10654214    0.00000000    0.11242121
     atom    4 type  1   force =    -0.35211028    0.00000000    0.30422396
     atom    5 type  2   force =    -0.10654214    0.00000000   -0.11242121
     atom    6 type  1   force =     0.35211028    0.00000000   -0.30422396
     atom    7 type  2   force =     0.10654214   -0.00000000   -0.11242121
     atom    8 type  1   force =    -0.35211028    0.00000000   -0.30422396
     The ionic contribution  to forces
     atom    1 type  2   force =     1.35165796   -0.00000000   -1.20579495
     atom    2 type  1   force =    -0.65642209   -0.00000000   -0.61906802
     atom    3 type  2   force =    -1.35165796   -0.00000000   -1.20579495
     atom    4 type  1   force =     0.65642209   -0.00000000   -0.61906802
     atom    5 type  2   force =     1.35165796   -0.00000000    1.20579495
     atom    6 type  1   force =    -0.65642209    0.00000000    0.61906802
     atom    7 type  2   force =    -1.35165796   -0.00000000    1.20579495
     atom    8 type  1   force =     0.65642209   -0.00000000    0.61906802
     The local contribution  to forces
     atom    1 type  2   force =    -1.24605762    0.00000000    1.10520298
     atom    2 type  1   force =     0.29996483   -0.00000000    0.31879257
     atom    3 type  2   force =     1.24605762   -0.00000000    1.10520298
     atom    4 type  1   force =    -0.29996483   -0.00000000    0.31879257
     atom    5 type  2   force =    -1.24605762    0.00000000   -1.10520298
     atom    6 type  1   force =     0.29996483   -0.00000000   -0.31879257
     atom    7 type  2   force =     1.24605762   -0.00000000   -1.10520298
     atom    8 type  1   force =    -0.29996483   -0.00000000   -0.31879257
     The core correction contribution to forces
     atom    1 type  2   force =     0.01160906    0.00000000   -0.01250411
     atom    2 type  1   force =    -0.00503049    0.00000000   -0.00535428
     atom    3 type  2   force =    -0.01160906    0.00000000   -0.01250411
     atom    4 type  1   force =     0.00503049    0.00000000   -0.00535428
     atom    5 type  2   force =     0.01160906    0.00000000    0.01250411
     atom    6 type  1   force =    -0.00503049   -0.00000000    0.00535428
     atom    7 type  2   force =    -0.01160906    0.00000000    0.01250411
     atom    8 type  1   force =     0.00503049    0.00000000    0.00535428
     The Hubbard contrib.    to forces
     atom    1 type  2   force =     0.00000000    0.00000000    0.00000000
     atom    2 type  1   force =     0.00000000    0.00000000    0.00000000
     atom    3 type  2   force =     0.00000000    0.00000000    0.00000000
     atom    4 type  1   force =     0.00000000    0.00000000    0.00000000
     atom    5 type  2   force =     0.00000000    0.00000000    0.00000000
     atom    6 type  1   force =     0.00000000    0.00000000    0.00000000
     atom    7 type  2   force =     0.00000000    0.00000000    0.00000000
     atom    8 type  1   force =     0.00000000    0.00000000    0.00000000
     The SCF correction term to forces
     atom    1 type  2   force =     0.00000388   -0.00000000    0.00000686
     atom    2 type  1   force =    -0.00001609   -0.00000000    0.00003909
     atom    3 type  2   force =    -0.00000388    0.00000000    0.00000686
     atom    4 type  1   force =     0.00001609   -0.00000000    0.00003909
     atom    5 type  2   force =     0.00000388   -0.00000000   -0.00000686
     atom    6 type  1   force =    -0.00001609    0.00000000   -0.00003909
     atom    7 type  2   force =    -0.00000388    0.00000000   -0.00000686
     atom    8 type  1   force =     0.00001609    0.00000000   -0.00003909

     DFT-D3 dispersion contribution to forces:
     atom    1 type  2   force =    -0.00083667    0.00000000    0.00148432
     atom    2 type  1   force =    -0.00069860   -0.00000000    0.00100519
     atom    3 type  2   force =     0.00083667   -0.00000000    0.00148432
     atom    4 type  1   force =     0.00069860    0.00000000    0.00100519
     atom    5 type  2   force =    -0.00083667    0.00000000   -0.00148432
     atom    6 type  1   force =    -0.00069860   -0.00000000   -0.00100519
     atom    7 type  2   force =     0.00083667   -0.00000000   -0.00148432
     atom    8 type  1   force =     0.00069860    0.00000000   -0.00100519

     Total force =     0.028239     Total SCF correction =     0.000086

     DFT-D3 dispersion Force =     0.004196

     Writing all to output data dir ./tmp/SnSe_pnma.save/ :
     XML data file, charge density, pseudopotentials, collected wavefunctions
 
     init_run     :      3.26s CPU      3.65s WALL (       1 calls)
     electrons    :     79.70s CPU     83.83s WALL (       1 calls)
     forces       :      1.32s CPU      1.49s WALL (       1 calls)
     force_dftd3  :      0.07s CPU      0.07s WALL (       1 calls)

     Called by init_run:
     wfcinit      :      2.14s CPU      2.20s WALL (       1 calls)
     wfcinit:atom :      0.03s CPU      0.03s WALL (      11 calls)
     wfcinit:wfcr :      1.91s CPU      1.93s WALL (      11 calls)
     potinit      :      0.29s CPU      0.34s WALL (       1 calls)
     hinit0       :      0.29s CPU      0.31s WALL (       1 calls)

     Called by electrons:
     c_bands      :     60.56s CPU     61.01s WALL (      10 calls)
     sum_band     :     13.34s CPU     15.09s WALL (      10 calls)
     v_of_rho     :      2.21s CPU      2.36s WALL (      11 calls)
     v_h          :      0.17s CPU      0.17s WALL (      11 calls)
     v_xc         :      2.22s CPU      2.38s WALL (      12 calls)
     newd         :      3.71s CPU      5.67s WALL (      11 calls)
     mix_rho      :      0.24s CPU      0.25s WALL (      10 calls)
     energy_dftd3 :      0.04s CPU      0.04s WALL (       1 calls)

     Called by c_bands:
     init_us_2    :      1.45s CPU      1.47s WALL (     242 calls)
     cegterg      :     55.04s CPU     55.32s WALL (     110 calls)

     Called by sum_band:
     sum_band:wei :      0.00s CPU      0.00s WALL (      10 calls)
     sum_band:loo :      9.22s CPU      9.23s WALL (      10 calls)
     sum_band:buf :      0.09s CPU      0.09s WALL (     110 calls)
     sum_band:ini :      0.63s CPU      0.63s WALL (     110 calls)
     sum_band:cal :      0.85s CPU      0.85s WALL (     110 calls)
     sum_band:bec :      0.01s CPU      0.01s WALL (     110 calls)
     addusdens    :      3.51s CPU      5.15s WALL (      10 calls)
                                        0.00s GPU  (      10 calls)
     addusd:skk   :      0.03s CPU      0.03s WALL (      20 calls)
                                        0.00s GPU  (      20 calls)

     Called by *egterg:
     cdiaghg      :      0.94s CPU      0.94s WALL (     550 calls)
     cegterg:over :      2.51s CPU      2.53s WALL (     440 calls)
     cegterg:upda :      1.47s CPU      1.47s WALL (     440 calls)
     cegterg:last :      3.86s CPU      3.86s WALL (     322 calls)
     h_psi        :     43.25s CPU     43.51s WALL (     561 calls)
     s_psi        :      3.51s CPU      3.51s WALL (     561 calls)
     g_psi        :      0.15s CPU      0.15s WALL (     440 calls)

     Called by h_psi:
     h_psi:calbec :      3.17s CPU      3.17s WALL (     561 calls)
     vloc_psi     :     36.31s CPU     36.55s WALL (     561 calls)
     add_vuspsi   :      3.49s CPU      3.49s WALL (     561 calls)

     General routines
     calbec       :      4.35s CPU      4.36s WALL (     715 calls)
     fft          :      1.19s CPU      1.21s WALL (     152 calls)
     ffts         :      0.03s CPU      0.04s WALL (      21 calls)
     fftw         :     23.25s CPU     23.38s WALL (   35356 calls)
     interpolate  :      0.12s CPU      0.12s WALL (      11 calls)
 
     Parallel routines
 
     PWSCF        :   1m24.64s CPU   1m30.15s WALL

 
   This run was terminated on:  20:11:29  20May2026            

=------------------------------------------------------------------------------=
   JOB DONE.
=------------------------------------------------------------------------------=
