
     Program PWSCF v.7.3.1 starts on 20May2026 at 16: 0:40 

     This program is part of the open-source Quantum ESPRESSO suite
     for quantum simulation of materials; please cite
         "P. Giannozzi et al., J. Phys.:Condens. Matter 21 395502 (2009);
         "P. Giannozzi et al., J. Phys.:Condens. Matter 29 465901 (2017);
         "P. Giannozzi et al., J. Chem. Phys. 152 154105 (2020);
          URL http://www.quantum-espresso.org", 
     in publications or presentations arising from this work. More details at
     http://www.quantum-espresso.org/quote

     Parallel version (MPI & OpenMP), running on       6 processor cores
     Number of MPI processes:                 6
     Threads/MPI process:                     1

     MPI processes distributed on     1 nodes
     10713 MiB available memory on the printing compute node when the environment starts
 
     Waiting for input...
     Reading input from standard input

     Current dimensions of program PWSCF are:
     Max number of different atomic species (ntypx) = 10
     Max number of k-points (npk) =  40000
     Max angular momentum in pseudopotentials (lmaxx) =  4
 
     K-points division:     npool     =       3
     R & G space division:  proc/nbgrp/npool/nimage =       2
     Subspace diagonalization in iterative solution of the eigenvalue problem:
     a serial algorithm will be used

 
     Parallelization info
     --------------------
     sticks:   dense  smooth     PW     G-vecs:    dense   smooth      PW
     Min        2666    1059    311                97249    24620    3880
     Max        2667    1060    312                97250    24621    3881
     Sum        5333    2119    623               194499    49241    7761
 
     Using Slab Decomposition
 


     bravais-lattice index     =            8
     lattice parameter (alat)  =      21.2216  a.u.
     unit-cell volume          =    1440.1053 (a.u.)^3
     number of atoms/cell      =            8
     number of atomic types    =            2
     number of electrons       =        80.00
     number of Kohn-Sham states=           40
     kinetic-energy cutoff     =      40.0000  Ry
     charge density cutoff     =     400.0000  Ry
     scf convergence threshold =      1.0E-08
     mixing beta               =       0.7000
     number of iterations used =            8  plain     mixing
     Exchange-correlation= SLA  PW   PBE  PBE
                           (   1   4   3   4   0   0   0)

     celldm(1)=  21.221624  celldm(2)=   0.371451  celldm(3)=   0.405654
     celldm(4)=   0.000000  celldm(5)=   0.000000  celldm(6)=   0.000000

     crystal axes: (cart. coord. in units of alat)
               a(1) = (   1.000000   0.000000   0.000000 )  
               a(2) = (   0.000000   0.371451   0.000000 )  
               a(3) = (   0.000000   0.000000   0.405654 )  

     reciprocal axes: (cart. coord. in units 2 pi/alat)
               b(1) = (  1.000000  0.000000  0.000000 )  
               b(2) = (  0.000000  2.692142  0.000000 )  
               b(3) = (  0.000000  0.000000  2.465152 )  


     PseudoPot. # 1 for Sn read from file:
     ../pseudo/Sn_pbe_v1.uspp.F.UPF
     MD5 check sum: 4cf58ce39ec5d5d420df3dd08604eb00
     Pseudo is Ultrasoft + core correction, Zval = 14.0
     Generated by new atomic code, or converted to UPF format
     Using radial grid of  891 points,  6 beta functions with: 
                l(1) =   0
                l(2) =   0
                l(3) =   1
                l(4) =   1
                l(5) =   2
                l(6) =   2
     Q(r) pseudized with  6 coefficients,  rinner =    1.200   1.200   1.200
                                                       1.200   1.200

     PseudoPot. # 2 for Se read from file:
     ../pseudo/Se_pbe_v1.uspp.F.UPF
     MD5 check sum: 1b3568f3a8ae88f9a2a0ad0698632c85
     Pseudo is Ultrasoft + core correction, Zval =  6.0
     Generated by new atomic code, or converted to UPF format
     Using radial grid of  877 points,  6 beta functions with: 
                l(1) =   0
                l(2) =   0
                l(3) =   1
                l(4) =   1
                l(5) =   2
                l(6) =   2
     Q(r) pseudized with  8 coefficients,  rinner =    1.300   1.300   1.300
                                                       1.300   1.300

     atomic species   valence    mass     pseudopotential
     Sn               14.00   118.71000     Sn( 1.00)
     Se                6.00    78.97100     Se( 1.00)

      8 Sym. Ops., with inversion, found ( 6 have fractional translation)


                                    s                        frac. trans.

      isym =  1     identity                                     

 cryst.   s( 1) = (     1          0          0      )
                  (     0          1          0      )
                  (     0          0          1      )

 cart.    s( 1) = (  1.0000000  0.0000000  0.0000000 )
                  (  0.0000000  1.0000000  0.0000000 )
                  (  0.0000000  0.0000000  1.0000000 )


      isym =  2     180 deg rotation - cart. axis [0,0,1]        

 cryst.   s( 2) = (    -1          0          0      )    f =( -0.5000000 )
                  (     0         -1          0      )       ( -0.0000000 )
                  (     0          0          1      )       ( -0.5000000 )

 cart.    s( 2) = ( -1.0000000  0.0000000  0.0000000 )    f =( -0.5000000 )
                  (  0.0000000 -1.0000000  0.0000000 )       ( -0.0000000 )
                  (  0.0000000  0.0000000  1.0000000 )       ( -0.2028272 )


      isym =  3     180 deg rotation - cart. axis [0,1,0]        

 cryst.   s( 3) = (    -1          0          0      )    f =(  0.0000000 )
                  (     0          1          0      )       ( -0.5000000 )
                  (     0          0         -1      )       (  0.0000000 )

 cart.    s( 3) = ( -1.0000000  0.0000000  0.0000000 )    f =(  0.0000000 )
                  (  0.0000000  1.0000000  0.0000000 )       ( -0.1857257 )
                  (  0.0000000  0.0000000 -1.0000000 )       (  0.0000000 )


      isym =  4     180 deg rotation - cart. axis [1,0,0]        

 cryst.   s( 4) = (     1          0          0      )    f =( -0.5000000 )
                  (     0         -1          0      )       (  0.5000000 )
                  (     0          0         -1      )       (  0.5000000 )

 cart.    s( 4) = (  1.0000000  0.0000000  0.0000000 )    f =( -0.5000000 )
                  (  0.0000000 -1.0000000  0.0000000 )       (  0.1857257 )
                  (  0.0000000  0.0000000 -1.0000000 )       (  0.2028272 )


      isym =  5     inversion                                    

 cryst.   s( 5) = (    -1          0          0      )
                  (     0         -1          0      )
                  (     0          0         -1      )

 cart.    s( 5) = ( -1.0000000  0.0000000  0.0000000 )
                  (  0.0000000 -1.0000000  0.0000000 )
                  (  0.0000000  0.0000000 -1.0000000 )


      isym =  6     inv. 180 deg rotation - cart. axis [0,0,1]   

 cryst.   s( 6) = (     1          0          0      )    f =( -0.5000000 )
                  (     0          1          0      )       (  0.0000000 )
                  (     0          0         -1      )       (  0.5000000 )

 cart.    s( 6) = (  1.0000000  0.0000000  0.0000000 )    f =( -0.5000000 )
                  (  0.0000000  1.0000000  0.0000000 )       (  0.0000000 )
                  (  0.0000000  0.0000000 -1.0000000 )       (  0.2028272 )


      isym =  7     inv. 180 deg rotation - cart. axis [0,1,0]   

 cryst.   s( 7) = (     1          0          0      )    f =(  0.0000000 )
                  (     0         -1          0      )       (  0.5000000 )
                  (     0          0          1      )       (  0.0000000 )

 cart.    s( 7) = (  1.0000000  0.0000000  0.0000000 )    f =(  0.0000000 )
                  (  0.0000000 -1.0000000  0.0000000 )       (  0.1857257 )
                  (  0.0000000  0.0000000  1.0000000 )       (  0.0000000 )


      isym =  8     inv. 180 deg rotation - cart. axis [1,0,0]   

 cryst.   s( 8) = (    -1          0          0      )    f =( -0.5000000 )
                  (     0          1          0      )       ( -0.5000000 )
                  (     0          0          1      )       ( -0.5000000 )

 cart.    s( 8) = ( -1.0000000  0.0000000  0.0000000 )    f =( -0.5000000 )
                  (  0.0000000  1.0000000  0.0000000 )       ( -0.1857257 )
                  (  0.0000000  0.0000000  1.0000000 )       ( -0.2028272 )


     point group D_2h (mmm) 
     there are  8 classes
     the character table:

       E     C2    C2'   C2''  i     s_v   s_v'  s_v''
A_g    1.00  1.00  1.00  1.00  1.00  1.00  1.00  1.00
B_1g   1.00  1.00 -1.00 -1.00  1.00  1.00 -1.00 -1.00
B_2g   1.00 -1.00  1.00 -1.00  1.00 -1.00  1.00 -1.00
B_3g   1.00 -1.00 -1.00  1.00  1.00 -1.00 -1.00  1.00
A_u    1.00  1.00  1.00  1.00 -1.00 -1.00 -1.00 -1.00
B_1u   1.00  1.00 -1.00 -1.00 -1.00 -1.00  1.00  1.00
B_2u   1.00 -1.00  1.00 -1.00 -1.00  1.00 -1.00  1.00
B_3u   1.00 -1.00 -1.00  1.00 -1.00  1.00  1.00 -1.00

     the symmetry operations in each class and the name of the first element:

     E        1
          identity                                               
     C2       2
          180 deg rotation - cart. axis [0,0,1]                  
     C2'      4
          180 deg rotation - cart. axis [1,0,0]                  
     C2''     3
          180 deg rotation - cart. axis [0,1,0]                  
     i        5
          inversion                                              
     s_v      6
          inv. 180 deg rotation - cart. axis [0,0,1]             
     s_v'     8
          inv. 180 deg rotation - cart. axis [1,0,0]             
     s_v''    7
          inv. 180 deg rotation - cart. axis [0,1,0]             

   Cartesian axes

     site n.     atom                  positions (alat units)
         1        Se     tau(   1) = (   0.8549563   0.0928629   0.1960318  )
         2        Sn     tau(   2) = (   0.1165395   0.0928629   0.0455497  )
         3        Se     tau(   3) = (   0.6450437   0.2785886   0.3988590  )
         4        Sn     tau(   4) = (   0.3834605   0.2785886   0.2483770  )
         5        Se     tau(   5) = (   0.3549563   0.0928629   0.0067955  )
         6        Sn     tau(   6) = (   0.6165395   0.0928629   0.1572775  )
         7        Se     tau(   7) = (   0.1450437   0.2785886   0.2096227  )
         8        Sn     tau(   8) = (   0.8834605   0.2785886   0.3601048  )

     --------------------------------------------
     DFT-D3 Dispersion Correction (3-body terms):
     --------------------------------------------
       Reference C6 values for interpolation: 

         atom   Coordination number   C6
         Se         0.000           427.35
         Se         0.990           427.57
         Se         1.981           421.05
         Sn         0.000          1255.14
         Sn         0.951          1084.09
         Sn         1.950          1010.83
         Sn         2.926           818.29
         Sn         3.912           672.20

       Values used:

         atom   Coordination number  R0_AB[au]  C6      C8
         Se         3.531            3.332    421.05  29958.36
         Sn         4.333            3.957    672.30  84381.66
         Se         3.531            3.332    421.05  29958.36
         Sn         4.333            3.957    672.30  84381.66
         Se         3.531            3.332    421.05  29958.36
         Sn         4.333            3.957    672.30  84381.66
         Se         3.531            3.332    421.05  29958.36
         Sn         4.333            3.957    672.30  84381.66

         Molecular C6 ( Ry / a.u.^6 ) =     34499.07


   Crystallographic axes

     site n.     atom                  positions (cryst. coord.)
         1        Se     tau(   1) = (  0.8549563  0.2500000  0.4832481  )
         2        Sn     tau(   2) = (  0.1165395  0.2500000  0.1122870  )
         3        Se     tau(   3) = (  0.6450437  0.7500000  0.9832481  )
         4        Sn     tau(   4) = (  0.3834605  0.7500000  0.6122870  )
         5        Se     tau(   5) = (  0.3549563  0.2500000  0.0167519  )
         6        Sn     tau(   6) = (  0.6165395  0.2500000  0.3877130  )
         7        Se     tau(   7) = (  0.1450437  0.7500000  0.5167519  )
         8        Sn     tau(   8) = (  0.8834605  0.7500000  0.8877130  )

     number of k points=    32
                       cart. coord. in units 2pi/alat
        k(    1) = (   0.1666667   0.1682589   0.1540720), wk =   0.0833333
        k(    2) = (   0.1666667   0.1682589   0.4622160), wk =   0.0833333
        k(    3) = (   0.1666667   0.1682589   0.7703600), wk =   0.0833333
        k(    4) = (   0.1666667   0.1682589   1.0785040), wk =   0.0833333
        k(    5) = (   0.1666667   0.5047766   0.1540720), wk =   0.0833333
        k(    6) = (   0.1666667   0.5047766   0.4622160), wk =   0.0833333
        k(    7) = (   0.1666667   0.5047766   0.7703600), wk =   0.0833333
        k(    8) = (   0.1666667   0.5047766   1.0785040), wk =   0.0833333
        k(    9) = (   0.1666667   0.8412943   0.1540720), wk =   0.0833333
        k(   10) = (   0.1666667   0.8412943   0.4622160), wk =   0.0833333
        k(   11) = (   0.1666667   0.8412943   0.7703600), wk =   0.0833333
        k(   12) = (   0.1666667   0.8412943   1.0785040), wk =   0.0833333
        k(   13) = (   0.1666667   1.1778120   0.1540720), wk =   0.0833333
        k(   14) = (   0.1666667   1.1778120   0.4622160), wk =   0.0833333
        k(   15) = (   0.1666667   1.1778120   0.7703600), wk =   0.0833333
        k(   16) = (   0.1666667   1.1778120   1.0785040), wk =   0.0833333
        k(   17) = (  -0.5000000   0.1682589   0.1540720), wk =   0.0416667
        k(   18) = (  -0.5000000   0.1682589   0.4622160), wk =   0.0416667
        k(   19) = (  -0.5000000   0.1682589   0.7703600), wk =   0.0416667
        k(   20) = (  -0.5000000   0.1682589   1.0785040), wk =   0.0416667
        k(   21) = (  -0.5000000   0.5047766   0.1540720), wk =   0.0416667
        k(   22) = (  -0.5000000   0.5047766   0.4622160), wk =   0.0416667
        k(   23) = (  -0.5000000   0.5047766   0.7703600), wk =   0.0416667
        k(   24) = (  -0.5000000   0.5047766   1.0785040), wk =   0.0416667
        k(   25) = (  -0.5000000   0.8412943   0.1540720), wk =   0.0416667
        k(   26) = (  -0.5000000   0.8412943   0.4622160), wk =   0.0416667
        k(   27) = (  -0.5000000   0.8412943   0.7703600), wk =   0.0416667
        k(   28) = (  -0.5000000   0.8412943   1.0785040), wk =   0.0416667
        k(   29) = (  -0.5000000   1.1778120   0.1540720), wk =   0.0416667
        k(   30) = (  -0.5000000   1.1778120   0.4622160), wk =   0.0416667
        k(   31) = (  -0.5000000   1.1778120   0.7703600), wk =   0.0416667
        k(   32) = (  -0.5000000   1.1778120   1.0785040), wk =   0.0416667

                       cryst. coord.
        k(    1) = (   0.1666667   0.0625000   0.0625000), wk =   0.0833333
        k(    2) = (   0.1666667   0.0625000   0.1875000), wk =   0.0833333
        k(    3) = (   0.1666667   0.0625000   0.3125000), wk =   0.0833333
        k(    4) = (   0.1666667   0.0625000   0.4375000), wk =   0.0833333
        k(    5) = (   0.1666667   0.1875000   0.0625000), wk =   0.0833333
        k(    6) = (   0.1666667   0.1875000   0.1875000), wk =   0.0833333
        k(    7) = (   0.1666667   0.1875000   0.3125000), wk =   0.0833333
        k(    8) = (   0.1666667   0.1875000   0.4375000), wk =   0.0833333
        k(    9) = (   0.1666667   0.3125000   0.0625000), wk =   0.0833333
        k(   10) = (   0.1666667   0.3125000   0.1875000), wk =   0.0833333
        k(   11) = (   0.1666667   0.3125000   0.3125000), wk =   0.0833333
        k(   12) = (   0.1666667   0.3125000   0.4375000), wk =   0.0833333
        k(   13) = (   0.1666667   0.4375000   0.0625000), wk =   0.0833333
        k(   14) = (   0.1666667   0.4375000   0.1875000), wk =   0.0833333
        k(   15) = (   0.1666667   0.4375000   0.3125000), wk =   0.0833333
        k(   16) = (   0.1666667   0.4375000   0.4375000), wk =   0.0833333
        k(   17) = (  -0.5000000   0.0625000   0.0625000), wk =   0.0416667
        k(   18) = (  -0.5000000   0.0625000   0.1875000), wk =   0.0416667
        k(   19) = (  -0.5000000   0.0625000   0.3125000), wk =   0.0416667
        k(   20) = (  -0.5000000   0.0625000   0.4375000), wk =   0.0416667
        k(   21) = (  -0.5000000   0.1875000   0.0625000), wk =   0.0416667
        k(   22) = (  -0.5000000   0.1875000   0.1875000), wk =   0.0416667
        k(   23) = (  -0.5000000   0.1875000   0.3125000), wk =   0.0416667
        k(   24) = (  -0.5000000   0.1875000   0.4375000), wk =   0.0416667
        k(   25) = (  -0.5000000   0.3125000   0.0625000), wk =   0.0416667
        k(   26) = (  -0.5000000   0.3125000   0.1875000), wk =   0.0416667
        k(   27) = (  -0.5000000   0.3125000   0.3125000), wk =   0.0416667
        k(   28) = (  -0.5000000   0.3125000   0.4375000), wk =   0.0416667
        k(   29) = (  -0.5000000   0.4375000   0.0625000), wk =   0.0416667
        k(   30) = (  -0.5000000   0.4375000   0.1875000), wk =   0.0416667
        k(   31) = (  -0.5000000   0.4375000   0.3125000), wk =   0.0416667
        k(   32) = (  -0.5000000   0.4375000   0.4375000), wk =   0.0416667

     Dense  grid:   194499 G-vectors     FFT dimensions: ( 144,  54,  60)

     Smooth grid:    49241 G-vectors     FFT dimensions: (  90,  32,  36)

     Dynamical RAM for                 wfc:       1.88 MB

     Dynamical RAM for     wfc (w. buffer):      22.53 MB

     Dynamical RAM for           str. fact:       2.97 MB

     Dynamical RAM for           local pot:       0.00 MB

     Dynamical RAM for          nlocal pot:       6.76 MB

     Dynamical RAM for                qrad:       3.21 MB

     Dynamical RAM for          rho,v,vnew:       9.79 MB

     Dynamical RAM for               rhoin:       3.26 MB

     Dynamical RAM for            rho*nmix:      23.74 MB

     Dynamical RAM for           G-vectors:       5.75 MB

     Dynamical RAM for          h,s,v(r/c):       0.29 MB

     Dynamical RAM for          <psi|beta>:       0.09 MB

     Dynamical RAM for                 psi:       3.75 MB

     Dynamical RAM for                hpsi:       3.75 MB

     Dynamical RAM for                spsi:       3.75 MB

     Dynamical RAM for      wfcinit/wfcrot:       4.94 MB

     Dynamical RAM for           addusdens:      94.97 MB

     Dynamical RAM for          addusforce:      97.70 MB

     Estimated static dynamical RAM per process >      67.62 MB

     Estimated max dynamical RAM per process >     189.07 MB

     Estimated total dynamical RAM >       1.02 GB

     Initial potential from superposition of free atoms

     starting charge      75.9995, renormalised to      80.0000
     Starting wfcs are   52 randomized atomic wfcs

     total cpu time spent up to now is        2.1 secs

     Self-consistent Calculation

     iteration #  1     ecut=    40.00 Ry     beta= 0.70
     Davidson diagonalization with overlap

---- Real-time Memory Report at c_bands before calling an iterative solver
           256 MiB given to the printing process from OS
             0 MiB allocation reported by mallinfo(arena+hblkhd)
         10099 MiB available memory on the node where the printing process lives
------------------
     ethr =  1.00E-02,  avg # of iterations =  2.0

     total cpu time spent up to now is        5.4 secs

     total energy              =    -826.63355146 Ry
     estimated scf accuracy    <       2.66611465 Ry

     iteration #  2     ecut=    40.00 Ry     beta= 0.70
     Davidson diagonalization with overlap

---- Real-time Memory Report at c_bands before calling an iterative solver
           322 MiB given to the printing process from OS
             0 MiB allocation reported by mallinfo(arena+hblkhd)
          9884 MiB available memory on the node where the printing process lives
------------------
     ethr =  3.33E-03,  avg # of iterations =  3.0

     total cpu time spent up to now is        9.2 secs

     total energy              =    -827.54245991 Ry
     estimated scf accuracy    <       0.94415648 Ry

     iteration #  3     ecut=    40.00 Ry     beta= 0.70
     Davidson diagonalization with overlap

---- Real-time Memory Report at c_bands before calling an iterative solver
           346 MiB given to the printing process from OS
             0 MiB allocation reported by mallinfo(arena+hblkhd)
          9760 MiB available memory on the node where the printing process lives
------------------
     ethr =  1.18E-03,  avg # of iterations =  2.5

     total cpu time spent up to now is       12.2 secs

     total energy              =    -827.73199483 Ry
     estimated scf accuracy    <       0.00941630 Ry

     iteration #  4     ecut=    40.00 Ry     beta= 0.70
     Davidson diagonalization with overlap

---- Real-time Memory Report at c_bands before calling an iterative solver
           351 MiB given to the printing process from OS
             0 MiB allocation reported by mallinfo(arena+hblkhd)
          9752 MiB available memory on the node where the printing process lives
------------------
     ethr =  1.18E-05,  avg # of iterations =  5.0

     total cpu time spent up to now is       16.3 secs

     total energy              =    -827.73801689 Ry
     estimated scf accuracy    <       0.00455420 Ry

     iteration #  5     ecut=    40.00 Ry     beta= 0.70
     Davidson diagonalization with overlap

---- Real-time Memory Report at c_bands before calling an iterative solver
           352 MiB given to the printing process from OS
             0 MiB allocation reported by mallinfo(arena+hblkhd)
          9752 MiB available memory on the node where the printing process lives
------------------
     ethr =  5.69E-06,  avg # of iterations =  3.2

     total cpu time spent up to now is       19.6 secs

     total energy              =    -827.73948664 Ry
     estimated scf accuracy    <       0.00100337 Ry

     iteration #  6     ecut=    40.00 Ry     beta= 0.70
     Davidson diagonalization with overlap

---- Real-time Memory Report at c_bands before calling an iterative solver
           353 MiB given to the printing process from OS
             0 MiB allocation reported by mallinfo(arena+hblkhd)
          9746 MiB available memory on the node where the printing process lives
------------------
     ethr =  1.25E-06,  avg # of iterations =  2.0

     total cpu time spent up to now is       22.7 secs

     total energy              =    -827.73959862 Ry
     estimated scf accuracy    <       0.00006193 Ry

     iteration #  7     ecut=    40.00 Ry     beta= 0.70
     Davidson diagonalization with overlap

---- Real-time Memory Report at c_bands before calling an iterative solver
           356 MiB given to the printing process from OS
             0 MiB allocation reported by mallinfo(arena+hblkhd)
          9743 MiB available memory on the node where the printing process lives
------------------
     ethr =  7.74E-08,  avg # of iterations =  4.2

     total cpu time spent up to now is       26.3 secs

     total energy              =    -827.73962746 Ry
     estimated scf accuracy    <       0.00000164 Ry

     iteration #  8     ecut=    40.00 Ry     beta= 0.70
     Davidson diagonalization with overlap

---- Real-time Memory Report at c_bands before calling an iterative solver
           358 MiB given to the printing process from OS
             0 MiB allocation reported by mallinfo(arena+hblkhd)
          9740 MiB available memory on the node where the printing process lives
------------------
     ethr =  2.05E-09,  avg # of iterations =  6.1

     total cpu time spent up to now is       31.7 secs

     total energy              =    -827.73962877 Ry
     estimated scf accuracy    <       0.00000090 Ry

     iteration #  9     ecut=    40.00 Ry     beta= 0.70
     Davidson diagonalization with overlap

---- Real-time Memory Report at c_bands before calling an iterative solver
           361 MiB given to the printing process from OS
             0 MiB allocation reported by mallinfo(arena+hblkhd)
          9735 MiB available memory on the node where the printing process lives
------------------
     ethr =  1.13E-09,  avg # of iterations =  3.1

     total cpu time spent up to now is       35.1 secs

     total energy              =    -827.73962899 Ry
     estimated scf accuracy    <       0.00000002 Ry

     iteration # 10     ecut=    40.00 Ry     beta= 0.70
     Davidson diagonalization with overlap

---- Real-time Memory Report at c_bands before calling an iterative solver
           362 MiB given to the printing process from OS
             0 MiB allocation reported by mallinfo(arena+hblkhd)
          9734 MiB available memory on the node where the printing process lives
------------------
     ethr =  2.67E-11,  avg # of iterations =  5.6

     total cpu time spent up to now is       40.0 secs

     End of self-consistent calculation

          k = 0.1667 0.1683 0.1541 (  6138 PWs)   bands (ev):

   -13.3903 -13.3795 -13.3754 -13.3733 -13.3718 -13.3704 -13.3666 -13.3630
   -13.3586 -13.3539 -13.3518 -13.3515 -13.3402 -13.3334 -13.3153 -13.3142
   -13.3071 -13.3068 -13.2956 -13.2887  -5.7995  -5.4885  -4.7281  -4.2997
     0.5405   1.4463   2.3979   2.7313   3.2119   4.4548   4.5837   4.8638
     5.1339   5.2570   5.8300   6.1742   6.4333   6.9013   7.1805   7.4793

     occupation numbers 
     1.0000   1.0000   1.0000   1.0000   1.0000   1.0000   1.0000   1.0000
     1.0000   1.0000   1.0000   1.0000   1.0000   1.0000   1.0000   1.0000
     1.0000   1.0000   1.0000   1.0000   1.0000   1.0000   1.0000   1.0000
     1.0000   1.0000   1.0000   1.0000   1.0000   1.0000   1.0000   1.0000
     1.0000   1.0000   1.0000   1.0000   1.0000   1.0000   1.0000   1.0000

          k = 0.1667 0.1683 0.4622 (  6132 PWs)   bands (ev):

   -13.3887 -13.3789 -13.3753 -13.3744 -13.3718 -13.3715 -13.3673 -13.3641
   -13.3577 -13.3519 -13.3514 -13.3490 -13.3398 -13.3341 -13.3157 -13.3132
   -13.3079 -13.3077 -13.2950 -13.2892  -5.6803  -5.3790  -4.7323  -4.3454
     0.2317   1.2123   1.8245   2.4264   3.3185   4.4900   4.7047   5.2759
     5.4594   5.7918   5.8375   6.2783   6.6372   6.9417   7.3101   7.5382

     occupation numbers 
     1.0000   1.0000   1.0000   1.0000   1.0000   1.0000   1.0000   1.0000
     1.0000   1.0000   1.0000   1.0000   1.0000   1.0000   1.0000   1.0000
     1.0000   1.0000   1.0000   1.0000   1.0000   1.0000   1.0000   1.0000
     1.0000   1.0000   1.0000   1.0000   1.0000   1.0000   1.0000   1.0000
     1.0000   1.0000   1.0000   1.0000   1.0000   1.0000   1.0000   1.0000

          k = 0.1667 0.1683 0.7704 (  6132 PWs)   bands (ev):

   -13.3859 -13.3786 -13.3762 -13.3752 -13.3732 -13.3715 -13.3679 -13.3657
   -13.3562 -13.3524 -13.3472 -13.3453 -13.3397 -13.3355 -13.3153 -13.3121
   -13.3098 -13.3087 -13.2940 -13.2901  -5.4644  -5.1827  -4.7798  -4.4570
    -0.0628   0.7170   1.3790   1.9546   3.6237   4.7202   4.9173   5.5312
     5.8237   5.9291   6.2082   6.3023   6.8107   7.2703   7.3385   7.7803

     occupation numbers 
     1.0000   1.0000   1.0000   1.0000   1.0000   1.0000   1.0000   1.0000
     1.0000   1.0000   1.0000   1.0000   1.0000   1.0000   1.0000   1.0000
     1.0000   1.0000   1.0000   1.0000   1.0000   1.0000   1.0000   1.0000
     1.0000   1.0000   1.0000   1.0000   1.0000   1.0000   1.0000   1.0000
     1.0000   1.0000   1.0000   1.0000   1.0000   1.0000   1.0000   1.0000

          k = 0.1667 0.1683 1.0785 (  6136 PWs)   bands (ev):

   -13.3827 -13.3800 -13.3767 -13.3762 -13.3731 -13.3722 -13.3680 -13.3672
   -13.3547 -13.3533 -13.3432 -13.3418 -13.3403 -13.3379 -13.3140 -13.3121
   -13.3107 -13.3097 -13.2927 -13.2914  -5.2034  -5.0136  -4.8447  -4.6454
    -0.1014   0.1868   1.3064   1.5276   4.0908   4.5919   5.3014   5.5972
     5.8248   5.9672   6.2714   6.5215   7.1025   7.3958   7.5887   7.6695

     occupation numbers 
     1.0000   1.0000   1.0000   1.0000   1.0000   1.0000   1.0000   1.0000
     1.0000   1.0000   1.0000   1.0000   1.0000   1.0000   1.0000   1.0000
     1.0000   1.0000   1.0000   1.0000   1.0000   1.0000   1.0000   1.0000
     1.0000   1.0000   1.0000   1.0000   1.0000   1.0000   1.0000   1.0000
     1.0000   1.0000   1.0000   1.0000   1.0000   1.0000   1.0000   1.0000

          k = 0.1667 0.5048 0.1541 (  6156 PWs)   bands (ev):

   -13.3843 -13.3779 -13.3759 -13.3728 -13.3704 -13.3701 -13.3685 -13.3663
   -13.3590 -13.3538 -13.3503 -13.3493 -13.3378 -13.3345 -13.3169 -13.3132
   -13.3104 -13.3051 -13.2955 -13.2903  -5.6357  -5.3481  -4.6662  -4.3099
     0.4017   1.2083   2.0445   2.1759   3.3259   4.3111   4.6329   4.9817
     5.2791   5.4405   5.8677   6.2279   6.4128   7.0707   7.3558   7.4838

     occupation numbers 
     1.0000   1.0000   1.0000   1.0000   1.0000   1.0000   1.0000   1.0000
     1.0000   1.0000   1.0000   1.0000   1.0000   1.0000   1.0000   1.0000
     1.0000   1.0000   1.0000   1.0000   1.0000   1.0000   1.0000   1.0000
     1.0000   1.0000   1.0000   1.0000   1.0000   1.0000   1.0000   1.0000
     1.0000   1.0000   1.0000   1.0000   1.0000   1.0000   1.0000   1.0000

          k = 0.1667 0.5048 0.4622 (  6155 PWs)   bands (ev):

   -13.3842 -13.3780 -13.3773 -13.3734 -13.3707 -13.3701 -13.3681 -13.3674
   -13.3583 -13.3540 -13.3480 -13.3470 -13.3381 -13.3345 -13.3165 -13.3131
   -13.3107 -13.3061 -13.2950 -13.2906  -5.5223  -5.2453  -4.6672  -4.3430
     0.2469   1.1561   1.6848   2.0582   3.4608   3.9099   4.2235   5.1170
     5.3064   5.8572   5.9864   6.2201   6.8191   6.9720   7.3404   7.5209

     occupation numbers 
     1.0000   1.0000   1.0000   1.0000   1.0000   1.0000   1.0000   1.0000
     1.0000   1.0000   1.0000   1.0000   1.0000   1.0000   1.0000   1.0000
     1.0000   1.0000   1.0000   1.0000   1.0000   1.0000   1.0000   1.0000
     1.0000   1.0000   1.0000   1.0000   1.0000   1.0000   1.0000   1.0000
     1.0000   1.0000   1.0000   1.0000   1.0000   1.0000   1.0000   1.0000

          k = 0.1667 0.5048 0.7704 (  6148 PWs)   bands (ev):

   -13.3842 -13.3800 -13.3775 -13.3746 -13.3717 -13.3694 -13.3692 -13.3672
   -13.3571 -13.3545 -13.3443 -13.3434 -13.3383 -13.3351 -13.3158 -13.3132
   -13.3108 -13.3076 -13.2941 -13.2911  -5.3194  -5.0632  -4.7048  -4.4299
     0.0824   0.8272   1.4122   1.8346   3.7162   3.8641   4.1743   5.0032
     5.1335   5.8417   5.9401   6.4714   6.7055   6.9911   7.2063   7.5320

     occupation numbers 
     1.0000   1.0000   1.0000   1.0000   1.0000   1.0000   1.0000   1.0000
     1.0000   1.0000   1.0000   1.0000   1.0000   1.0000   1.0000   1.0000
     1.0000   1.0000   1.0000   1.0000   1.0000   1.0000   1.0000   1.0000
     1.0000   1.0000   1.0000   1.0000   1.0000   1.0000   1.0000   1.0000
     1.0000   1.0000   1.0000   1.0000   1.0000   1.0000   1.0000   1.0000

          k = 0.1667 0.5048 1.0785 (  6140 PWs)   bands (ev):

   -13.3837 -13.3823 -13.3769 -13.3760 -13.3717 -13.3707 -13.3682 -13.3674
   -13.3561 -13.3552 -13.3411 -13.3398 -13.3390 -13.3368 -13.3147 -13.3137
   -13.3103 -13.3091 -13.2930 -13.2919  -5.0787  -4.9083  -4.7592  -4.5860
     0.0930   0.3654   1.4083   1.5741   4.0321   4.1017   4.3926   4.6875
     5.0172   5.3283   6.0021   6.2843   6.6950   6.9592   7.2433   7.4440

     occupation numbers 
     1.0000   1.0000   1.0000   1.0000   1.0000   1.0000   1.0000   1.0000
     1.0000   1.0000   1.0000   1.0000   1.0000   1.0000   1.0000   1.0000
     1.0000   1.0000   1.0000   1.0000   1.0000   1.0000   1.0000   1.0000
     1.0000   1.0000   1.0000   1.0000   1.0000   1.0000   1.0000   1.0000
     1.0000   1.0000   1.0000   1.0000   1.0000   1.0000   1.0000   1.0000

          k = 0.1667 0.8413 0.1541 (  6174 PWs)   bands (ev):

   -13.3822 -13.3799 -13.3785 -13.3776 -13.3677 -13.3659 -13.3645 -13.3628
   -13.3575 -13.3555 -13.3483 -13.3448 -13.3376 -13.3344 -13.3214 -13.3198
   -13.3068 -13.3021 -13.2954 -13.2928  -5.3354  -5.1031  -4.6045  -4.3919
     0.2194   0.9146   1.2416   1.6493   3.6677   4.4254   4.8063   5.1913
     5.5078   5.6131   5.9927   6.1824   6.5195   7.0381   7.1581   7.5561

     occupation numbers 
     1.0000   1.0000   1.0000   1.0000   1.0000   1.0000   1.0000   1.0000
     1.0000   1.0000   1.0000   1.0000   1.0000   1.0000   1.0000   1.0000
     1.0000   1.0000   1.0000   1.0000   1.0000   1.0000   1.0000   1.0000
     1.0000   1.0000   1.0000   1.0000   1.0000   1.0000   1.0000   1.0000
     1.0000   1.0000   1.0000   1.0000   1.0000   1.0000   1.0000   1.0000

          k = 0.1667 0.8413 0.4622 (  6161 PWs)   bands (ev):

   -13.3850 -13.3819 -13.3799 -13.3782 -13.3683 -13.3649 -13.3641 -13.3626
   -13.3566 -13.3554 -13.3465 -13.3431 -13.3379 -13.3339 -13.3209 -13.3195
   -13.3069 -13.3029 -13.2949 -13.2927  -5.2364  -5.0155  -4.5952  -4.3973
     0.2598   1.0082   1.2775   1.5506   3.6638   3.7802   4.1658   4.8150
     5.2497   5.7794   5.8384   6.3281   6.4043   6.8559   7.0335   7.3148

     occupation numbers 
     1.0000   1.0000   1.0000   1.0000   1.0000   1.0000   1.0000   1.0000
     1.0000   1.0000   1.0000   1.0000   1.0000   1.0000   1.0000   1.0000
     1.0000   1.0000   1.0000   1.0000   1.0000   1.0000   1.0000   1.0000
     1.0000   1.0000   1.0000   1.0000   1.0000   1.0000   1.0000   1.0000
     1.0000   1.0000   1.0000   1.0000   1.0000   1.0000   1.0000   1.0000

          k = 0.1667 0.8413 0.7704 (  6153 PWs)   bands (ev):

   -13.3879 -13.3854 -13.3814 -13.3800 -13.3679 -13.3643 -13.3636 -13.3624
   -13.3556 -13.3552 -13.3438 -13.3409 -13.3375 -13.3340 -13.3201 -13.3190
   -13.3067 -13.3039 -13.2943 -13.2927  -5.0639  -4.8655  -4.6071  -4.4309
     0.3248   0.9559   1.3434   1.5155   3.2827   3.6385   4.0651   4.3680
     4.7273   5.2488   5.5715   5.9557   6.2700   6.5895   6.8517   7.2895

     occupation numbers 
     1.0000   1.0000   1.0000   1.0000   1.0000   1.0000   1.0000   1.0000
     1.0000   1.0000   1.0000   1.0000   1.0000   1.0000   1.0000   1.0000
     1.0000   1.0000   1.0000   1.0000   1.0000   1.0000   1.0000   1.0000
     1.0000   1.0000   1.0000   1.0000   1.0000   1.0000   1.0000   1.0000
     1.0000   1.0000   1.0000   1.0000   1.0000   1.0000   1.0000   1.0000

          k = 0.1667 0.8413 1.0785 (  6156 PWs)   bands (ev):

   -13.3893 -13.3884 -13.3823 -13.3818 -13.3668 -13.3653 -13.3628 -13.3624
   -13.3550 -13.3550 -13.3414 -13.3401 -13.3362 -13.3348 -13.3193 -13.3189
   -13.3060 -13.3050 -13.2935 -13.2930  -4.8696  -4.7424  -4.6361  -4.5186
     0.4433   0.6724   1.4753   1.5307   3.3020   3.6477   3.7639   4.1310
     4.5348   4.9090   5.3266   5.7097   5.9596   6.2382   6.9436   7.0696

     occupation numbers 
     1.0000   1.0000   1.0000   1.0000   1.0000   1.0000   1.0000   1.0000
     1.0000   1.0000   1.0000   1.0000   1.0000   1.0000   1.0000   1.0000
     1.0000   1.0000   1.0000   1.0000   1.0000   1.0000   1.0000   1.0000
     1.0000   1.0000   1.0000   1.0000   1.0000   1.0000   1.0000   1.0000
     1.0000   1.0000   1.0000   1.0000   1.0000   1.0000   1.0000   1.0000

          k = 0.1667 1.1778 0.1541 (  6165 PWs)   bands (ev):

   -13.3845 -13.3832 -13.3812 -13.3801 -13.3640 -13.3626 -13.3614 -13.3596
   -13.3532 -13.3519 -13.3496 -13.3445 -13.3364 -13.3311 -13.3283 -13.3263
   -13.3014 -13.2988 -13.2963 -13.2962  -4.9614  -4.8315  -4.6432  -4.6140
     0.2139   0.5607   0.8577   1.1409   4.1783   4.6136   5.0178   5.3708
     5.5654   5.5977   6.0263   6.3367   6.6393   6.8849   6.9333   7.1114

     occupation numbers 
     1.0000   1.0000   1.0000   1.0000   1.0000   1.0000   1.0000   1.0000
     1.0000   1.0000   1.0000   1.0000   1.0000   1.0000   1.0000   1.0000
     1.0000   1.0000   1.0000   1.0000   1.0000   1.0000   1.0000   1.0000
     1.0000   1.0000   1.0000   1.0000   1.0000   1.0000   1.0000   1.0000
     1.0000   1.0000   1.0000   1.0000   1.0000   1.0000   1.0000   1.0000

          k = 0.1667 1.1778 0.4622 (  6154 PWs)   bands (ev):

   -13.3874 -13.3861 -13.3827 -13.3818 -13.3645 -13.3628 -13.3602 -13.3591
   -13.3527 -13.3514 -13.3480 -13.3440 -13.3356 -13.3319 -13.3263 -13.3253
   -13.3017 -13.2997 -13.2958 -13.2956  -4.8887  -4.7694  -4.6117  -4.5793
     0.3599   0.6983   0.9757   1.1760   3.9337   4.1198   4.4065   4.6871
     4.9295   5.3588   5.8630   6.0540   6.1791   6.4607   7.0167   7.2601

     occupation numbers 
     1.0000   1.0000   1.0000   1.0000   1.0000   1.0000   1.0000   1.0000
     1.0000   1.0000   1.0000   1.0000   1.0000   1.0000   1.0000   1.0000
     1.0000   1.0000   1.0000   1.0000   1.0000   1.0000   1.0000   1.0000
     1.0000   1.0000   1.0000   1.0000   1.0000   1.0000   1.0000   1.0000
     1.0000   1.0000   1.0000   1.0000   1.0000   1.0000   1.0000   1.0000

          k = 0.1667 1.1778 0.7704 (  6165 PWs)   bands (ev):

   -13.3911 -13.3901 -13.3849 -13.3843 -13.3646 -13.3632 -13.3590 -13.3584
   -13.3519 -13.3508 -13.3461 -13.3434 -13.3343 -13.3322 -13.3243 -13.3239
   -13.3018 -13.3005 -13.2952 -13.2950  -4.7705  -4.6715  -4.5756  -4.5365
     0.6082   0.9121   1.1562   1.2228   3.2920   3.7476   3.8595   4.1545
     4.5101   4.8252   5.2176   5.6746   5.7884   6.0406   6.8937   7.0247

     occupation numbers 
     1.0000   1.0000   1.0000   1.0000   1.0000   1.0000   1.0000   1.0000
     1.0000   1.0000   1.0000   1.0000   1.0000   1.0000   1.0000   1.0000
     1.0000   1.0000   1.0000   1.0000   1.0000   1.0000   1.0000   1.0000
     1.0000   1.0000   1.0000   1.0000   1.0000   1.0000   1.0000   1.0000
     1.0000   1.0000   1.0000   1.0000   1.0000   1.0000   1.0000   1.0000

          k = 0.1667 1.1778 1.0785 (  6186 PWs)   bands (ev):

   -13.3934 -13.3931 -13.3864 -13.3862 -13.3644 -13.3638 -13.3583 -13.3581
   -13.3510 -13.3506 -13.3445 -13.3435 -13.3330 -13.3323 -13.3231 -13.3229
   -13.3016 -13.3012 -13.2948 -13.2947  -4.6549  -4.5987  -4.5593  -4.5246
     0.8554   0.9910   1.2901   1.3276   3.0404   3.2465   3.6462   3.7687
     4.3391   4.3525   4.8755   5.2048   5.7526   5.9390   6.7406   6.7944

     occupation numbers 
     1.0000   1.0000   1.0000   1.0000   1.0000   1.0000   1.0000   1.0000
     1.0000   1.0000   1.0000   1.0000   1.0000   1.0000   1.0000   1.0000
     1.0000   1.0000   1.0000   1.0000   1.0000   1.0000   1.0000   1.0000
     1.0000   1.0000   1.0000   1.0000   1.0000   1.0000   1.0000   1.0000
     1.0000   1.0000   1.0000   1.0000   1.0000   1.0000   1.0000   1.0000

          k =-0.5000 0.1683 0.1541 (  6140 PWs)   bands (ev):

   -13.3854 -13.3854 -13.3735 -13.3735 -13.3723 -13.3723 -13.3643 -13.3643
   -13.3554 -13.3554 -13.3528 -13.3528 -13.3364 -13.3364 -13.3144 -13.3144
   -13.3072 -13.3072 -13.2920 -13.2920  -5.6722  -5.6722  -4.4856  -4.4856
     0.8603   0.8603   2.6540   2.6540   3.9058   3.9058   4.7773   4.7773
     5.2972   5.2972   5.9137   5.9137   6.2710   6.2710   7.3964   7.3964

     occupation numbers 
     1.0000   1.0000   1.0000   1.0000   1.0000   1.0000   1.0000   1.0000
     1.0000   1.0000   1.0000   1.0000   1.0000   1.0000   1.0000   1.0000
     1.0000   1.0000   1.0000   1.0000   1.0000   1.0000   1.0000   1.0000
     1.0000   1.0000   1.0000   1.0000   1.0000   1.0000   1.0000   1.0000
     1.0000   1.0000   1.0000   1.0000   1.0000   1.0000   1.0000   1.0000

          k =-0.5000 0.1683 0.4622 (  6148 PWs)   bands (ev):

   -13.3844 -13.3844 -13.3737 -13.3737 -13.3727 -13.3727 -13.3655 -13.3655
   -13.3548 -13.3548 -13.3503 -13.3503 -13.3367 -13.3367 -13.3141 -13.3141
   -13.3081 -13.3081 -13.2920 -13.2920  -5.5581  -5.5581  -4.5103  -4.5103
     0.5833   0.5833   2.1836   2.1836   4.1508   4.1508   4.8531   4.8531
     5.5433   5.5433   6.0675   6.0675   6.7082   6.7082   7.3103   7.3103

     occupation numbers 
     1.0000   1.0000   1.0000   1.0000   1.0000   1.0000   1.0000   1.0000
     1.0000   1.0000   1.0000   1.0000   1.0000   1.0000   1.0000   1.0000
     1.0000   1.0000   1.0000   1.0000   1.0000   1.0000   1.0000   1.0000
     1.0000   1.0000   1.0000   1.0000   1.0000   1.0000   1.0000   1.0000
     1.0000   1.0000   1.0000   1.0000   1.0000   1.0000   1.0000   1.0000

          k =-0.5000 0.1683 0.7704 (  6130 PWs)   bands (ev):

   -13.3827 -13.3827 -13.3753 -13.3753 -13.3723 -13.3723 -13.3672 -13.3672
   -13.3541 -13.3541 -13.3464 -13.3464 -13.3375 -13.3375 -13.3135 -13.3135
   -13.3093 -13.3093 -13.2920 -13.2920  -5.3544  -5.3544  -4.5878  -4.5878
     0.2663   0.2663   1.6360   1.6360   4.4750   4.4750   5.1386   5.1386
     5.6809   5.6809   6.2738   6.2738   6.9235   6.9235   7.4650   7.4650

     occupation numbers 
     1.0000   1.0000   1.0000   1.0000   1.0000   1.0000   1.0000   1.0000
     1.0000   1.0000   1.0000   1.0000   1.0000   1.0000   1.0000   1.0000
     1.0000   1.0000   1.0000   1.0000   1.0000   1.0000   1.0000   1.0000
     1.0000   1.0000   1.0000   1.0000   1.0000   1.0000   1.0000   1.0000
     1.0000   1.0000   1.0000   1.0000   1.0000   1.0000   1.0000   1.0000

          k =-0.5000 0.1683 1.0785 (  6122 PWs)   bands (ev):

   -13.3812 -13.3812 -13.3766 -13.3766 -13.3723 -13.3723 -13.3683 -13.3683
   -13.3536 -13.3536 -13.3427 -13.3427 -13.3389 -13.3389 -13.3128 -13.3128
   -13.3105 -13.3105 -13.2920 -13.2920  -5.1313  -5.1313  -4.7233  -4.7233
     0.0918   0.0918   1.2755   1.2755   4.8842   4.8842   5.4395   5.4395
     5.5236   5.5236   6.1298   6.1298   7.2812   7.2812   7.5682   7.5682

     occupation numbers 
     1.0000   1.0000   1.0000   1.0000   1.0000   1.0000   1.0000   1.0000
     1.0000   1.0000   1.0000   1.0000   1.0000   1.0000   1.0000   1.0000
     1.0000   1.0000   1.0000   1.0000   1.0000   1.0000   1.0000   1.0000
     1.0000   1.0000   1.0000   1.0000   1.0000   1.0000   1.0000   1.0000
     1.0000   1.0000   1.0000   1.0000   1.0000   1.0000   1.0000   1.0000

          k =-0.5000 0.5048 0.1541 (  6146 PWs)   bands (ev):

   -13.3811 -13.3811 -13.3748 -13.3748 -13.3701 -13.3701 -13.3674 -13.3674
   -13.3564 -13.3564 -13.3498 -13.3498 -13.3361 -13.3361 -13.3154 -13.3154
   -13.3074 -13.3074 -13.2928 -13.2928  -5.5172  -5.5172  -4.4619  -4.4619
     0.7040   0.7040   2.1492   2.1492   4.0311   4.0311   4.6781   4.6781
     5.5904   5.5904   5.7891   5.7891   6.4495   6.4495   7.5070   7.5070

     occupation numbers 
     1.0000   1.0000   1.0000   1.0000   1.0000   1.0000   1.0000   1.0000
     1.0000   1.0000   1.0000   1.0000   1.0000   1.0000   1.0000   1.0000
     1.0000   1.0000   1.0000   1.0000   1.0000   1.0000   1.0000   1.0000
     1.0000   1.0000   1.0000   1.0000   1.0000   1.0000   1.0000   1.0000
     1.0000   1.0000   1.0000   1.0000   1.0000   1.0000   1.0000   1.0000

          k =-0.5000 0.5048 0.4622 (  6164 PWs)   bands (ev):

   -13.3813 -13.3813 -13.3758 -13.3758 -13.3702 -13.3702 -13.3675 -13.3675
   -13.3561 -13.3561 -13.3474 -13.3474 -13.3364 -13.3364 -13.3152 -13.3152
   -13.3080 -13.3080 -13.2926 -13.2926  -5.4092  -5.4092  -4.4791  -4.4791
     0.5844   0.5844   1.9182   1.9182   3.9625   3.9625   4.5946   4.5946
     5.2735   5.2735   6.2119   6.2119   6.8161   6.8161   7.4181   7.4181

     occupation numbers 
     1.0000   1.0000   1.0000   1.0000   1.0000   1.0000   1.0000   1.0000
     1.0000   1.0000   1.0000   1.0000   1.0000   1.0000   1.0000   1.0000
     1.0000   1.0000   1.0000   1.0000   1.0000   1.0000   1.0000   1.0000
     1.0000   1.0000   1.0000   1.0000   1.0000   1.0000   1.0000   1.0000
     1.0000   1.0000   1.0000   1.0000   1.0000   1.0000   1.0000   1.0000

          k =-0.5000 0.5048 0.7704 (  6146 PWs)   bands (ev):

   -13.3817 -13.3817 -13.3776 -13.3776 -13.3700 -13.3700 -13.3675 -13.3675
   -13.3558 -13.3558 -13.3438 -13.3438 -13.3369 -13.3369 -13.3149 -13.3149
   -13.3089 -13.3089 -13.2924 -13.2924  -5.2187  -5.2187  -4.5401  -4.5401
     0.3993   0.3993   1.6064   1.6064   3.9506   3.9506   4.7609   4.7609
     5.1145   5.1145   6.3087   6.3087   6.6748   6.6748   7.3703   7.3703

     occupation numbers 
     1.0000   1.0000   1.0000   1.0000   1.0000   1.0000   1.0000   1.0000
     1.0000   1.0000   1.0000   1.0000   1.0000   1.0000   1.0000   1.0000
     1.0000   1.0000   1.0000   1.0000   1.0000   1.0000   1.0000   1.0000
     1.0000   1.0000   1.0000   1.0000   1.0000   1.0000   1.0000   1.0000
     1.0000   1.0000   1.0000   1.0000   1.0000   1.0000   1.0000   1.0000

          k =-0.5000 0.5048 1.0785 (  6138 PWs)   bands (ev):

   -13.3821 -13.3821 -13.3790 -13.3790 -13.3695 -13.3695 -13.3677 -13.3677
   -13.3556 -13.3556 -13.3405 -13.3405 -13.3380 -13.3380 -13.3147 -13.3147
   -13.3096 -13.3096 -13.2922 -13.2922  -5.0137  -5.0137  -4.6532  -4.6532
     0.2714   0.2714   1.3772   1.3772   4.1894   4.1894   4.6094   4.6094
     5.3412   5.3412   5.9444   5.9444   6.6042   6.6042   7.2057   7.2057

     occupation numbers 
     1.0000   1.0000   1.0000   1.0000   1.0000   1.0000   1.0000   1.0000
     1.0000   1.0000   1.0000   1.0000   1.0000   1.0000   1.0000   1.0000
     1.0000   1.0000   1.0000   1.0000   1.0000   1.0000   1.0000   1.0000
     1.0000   1.0000   1.0000   1.0000   1.0000   1.0000   1.0000   1.0000
     1.0000   1.0000   1.0000   1.0000   1.0000   1.0000   1.0000   1.0000

          k =-0.5000 0.8413 0.1541 (  6168 PWs)   bands (ev):

   -13.3816 -13.3816 -13.3774 -13.3774 -13.3663 -13.3663 -13.3647 -13.3647
   -13.3562 -13.3562 -13.3466 -13.3466 -13.3358 -13.3358 -13.3208 -13.3208
   -13.3043 -13.3043 -13.2940 -13.2940  -5.2381  -5.2381  -4.4784  -4.4784
     0.5028   0.5028   1.4424   1.4424   4.3129   4.3129   4.8602   4.8602
     5.7485   5.7485   5.9096   5.9096   6.4488   6.4488   7.3563   7.3563

     occupation numbers 
     1.0000   1.0000   1.0000   1.0000   1.0000   1.0000   1.0000   1.0000
     1.0000   1.0000   1.0000   1.0000   1.0000   1.0000   1.0000   1.0000
     1.0000   1.0000   1.0000   1.0000   1.0000   1.0000   1.0000   1.0000
     1.0000   1.0000   1.0000   1.0000   1.0000   1.0000   1.0000   1.0000
     1.0000   1.0000   1.0000   1.0000   1.0000   1.0000   1.0000   1.0000

          k =-0.5000 0.8413 0.4622 (  6172 PWs)   bands (ev):

   -13.3835 -13.3835 -13.3793 -13.3793 -13.3662 -13.3662 -13.3637 -13.3637
   -13.3558 -13.3558 -13.3450 -13.3450 -13.3356 -13.3356 -13.3206 -13.3206
   -13.3045 -13.3045 -13.2938 -13.2938  -5.1447  -5.1447  -4.4770  -4.4770
     0.5630   0.5630   1.4257   1.4257   3.8420   3.8420   4.6936   4.6936
     5.1718   5.1718   6.1556   6.1556   6.3900   6.3900   7.2594   7.2594

     occupation numbers 
     1.0000   1.0000   1.0000   1.0000   1.0000   1.0000   1.0000   1.0000
     1.0000   1.0000   1.0000   1.0000   1.0000   1.0000   1.0000   1.0000
     1.0000   1.0000   1.0000   1.0000   1.0000   1.0000   1.0000   1.0000
     1.0000   1.0000   1.0000   1.0000   1.0000   1.0000   1.0000   1.0000
     1.0000   1.0000   1.0000   1.0000   1.0000   1.0000   1.0000   1.0000

          k =-0.5000 0.8413 0.7704 (  6142 PWs)   bands (ev):

   -13.3859 -13.3859 -13.3819 -13.3819 -13.3656 -13.3656 -13.3630 -13.3630
   -13.3553 -13.3553 -13.3430 -13.3430 -13.3350 -13.3350 -13.3203 -13.3203
   -13.3048 -13.3048 -13.2935 -13.2935  -4.9845  -4.9845  -4.4993  -4.4993
     0.6044   0.6044   1.4168   1.4168   3.5035   3.5035   4.3504   4.3504
     4.9376   4.9376   5.6421   5.6421   6.3016   6.3016   7.1415   7.1415

     occupation numbers 
     1.0000   1.0000   1.0000   1.0000   1.0000   1.0000   1.0000   1.0000
     1.0000   1.0000   1.0000   1.0000   1.0000   1.0000   1.0000   1.0000
     1.0000   1.0000   1.0000   1.0000   1.0000   1.0000   1.0000   1.0000
     1.0000   1.0000   1.0000   1.0000   1.0000   1.0000   1.0000   1.0000
     1.0000   1.0000   1.0000   1.0000   1.0000   1.0000   1.0000   1.0000

          k =-0.5000 0.8413 1.0785 (  6134 PWs)   bands (ev):

   -13.3876 -13.3876 -13.3838 -13.3838 -13.3650 -13.3650 -13.3629 -13.3629
   -13.3550 -13.3550 -13.3417 -13.3417 -13.3343 -13.3343 -13.3200 -13.3200
   -13.3050 -13.3050 -13.2932 -13.2932  -4.8204  -4.8204  -4.5633  -4.5633
     0.5850   0.5850   1.4400   1.4400   3.5170   3.5170   3.8861   3.8861
     4.9439   4.9439   5.2575   5.2575   6.3005   6.3005   6.8231   6.8231

     occupation numbers 
     1.0000   1.0000   1.0000   1.0000   1.0000   1.0000   1.0000   1.0000
     1.0000   1.0000   1.0000   1.0000   1.0000   1.0000   1.0000   1.0000
     1.0000   1.0000   1.0000   1.0000   1.0000   1.0000   1.0000   1.0000
     1.0000   1.0000   1.0000   1.0000   1.0000   1.0000   1.0000   1.0000
     1.0000   1.0000   1.0000   1.0000   1.0000   1.0000   1.0000   1.0000

          k =-0.5000 1.1778 0.1541 (  6176 PWs)   bands (ev):

   -13.3832 -13.3832 -13.3816 -13.3816 -13.3624 -13.3624 -13.3617 -13.3617
   -13.3520 -13.3520 -13.3472 -13.3472 -13.3332 -13.3332 -13.3276 -13.3276
   -13.3000 -13.3000 -13.2963 -13.2963  -4.9042  -4.9042  -4.6215  -4.6215
     0.4946   0.4946   0.8271   0.8271   4.7727   4.7727   5.1257   5.1257
     5.6302   5.6302   5.8824   5.8824   6.5697   6.5697   6.9539   6.9539

     occupation numbers 
     1.0000   1.0000   1.0000   1.0000   1.0000   1.0000   1.0000   1.0000
     1.0000   1.0000   1.0000   1.0000   1.0000   1.0000   1.0000   1.0000
     1.0000   1.0000   1.0000   1.0000   1.0000   1.0000   1.0000   1.0000
     1.0000   1.0000   1.0000   1.0000   1.0000   1.0000   1.0000   1.0000
     1.0000   1.0000   1.0000   1.0000   1.0000   1.0000   1.0000   1.0000

          k =-0.5000 1.1778 0.4622 (  6152 PWs)   bands (ev):

   -13.3854 -13.3854 -13.3838 -13.3838 -13.3622 -13.3622 -13.3613 -13.3613
   -13.3514 -13.3514 -13.3466 -13.3466 -13.3323 -13.3323 -13.3269 -13.3269
   -13.3000 -13.3000 -13.2962 -13.2962  -4.8365  -4.8365  -4.5885  -4.5885
     0.6258   0.6258   0.9261   0.9261   4.1210   4.1210   4.6595   4.6595
     5.2175   5.2175   5.6599   5.6599   6.4305   6.4305   6.8707   6.8707

     occupation numbers 
     1.0000   1.0000   1.0000   1.0000   1.0000   1.0000   1.0000   1.0000
     1.0000   1.0000   1.0000   1.0000   1.0000   1.0000   1.0000   1.0000
     1.0000   1.0000   1.0000   1.0000   1.0000   1.0000   1.0000   1.0000
     1.0000   1.0000   1.0000   1.0000   1.0000   1.0000   1.0000   1.0000
     1.0000   1.0000   1.0000   1.0000   1.0000   1.0000   1.0000   1.0000

          k =-0.5000 1.1778 0.7704 (  6148 PWs)   bands (ev):

   -13.3885 -13.3885 -13.3870 -13.3870 -13.3621 -13.3621 -13.3609 -13.3609
   -13.3505 -13.3505 -13.3458 -13.3458 -13.3309 -13.3309 -13.3259 -13.3259
   -13.3000 -13.3000 -13.2960 -13.2960  -4.7285  -4.7285  -4.5488  -4.5488
     0.8200   0.8200   1.0947   1.0947   3.5630   3.5630   4.0800   4.0800
     4.6496   4.6496   5.1115   5.1115   6.3658   6.3658   6.7401   6.7401

     occupation numbers 
     1.0000   1.0000   1.0000   1.0000   1.0000   1.0000   1.0000   1.0000
     1.0000   1.0000   1.0000   1.0000   1.0000   1.0000   1.0000   1.0000
     1.0000   1.0000   1.0000   1.0000   1.0000   1.0000   1.0000   1.0000
     1.0000   1.0000   1.0000   1.0000   1.0000   1.0000   1.0000   1.0000
     1.0000   1.0000   1.0000   1.0000   1.0000   1.0000   1.0000   1.0000

          k =-0.5000 1.1778 1.0785 (  6148 PWs)   bands (ev):

   -13.3906 -13.3906 -13.3891 -13.3891 -13.3620 -13.3620 -13.3609 -13.3609
   -13.3499 -13.3499 -13.3452 -13.3452 -13.3298 -13.3298 -13.3251 -13.3251
   -13.3000 -13.3000 -13.2958 -13.2958  -4.6319  -4.6319  -4.5368  -4.5368
     0.9418   0.9418   1.2653   1.2653   3.3788   3.3788   3.6240   3.6240
     4.2993   4.2993   4.5824   4.5824   6.4672   6.4672   6.6565   6.6565

     occupation numbers 
     1.0000   1.0000   1.0000   1.0000   1.0000   1.0000   1.0000   1.0000
     1.0000   1.0000   1.0000   1.0000   1.0000   1.0000   1.0000   1.0000
     1.0000   1.0000   1.0000   1.0000   1.0000   1.0000   1.0000   1.0000
     1.0000   1.0000   1.0000   1.0000   1.0000   1.0000   1.0000   1.0000
     1.0000   1.0000   1.0000   1.0000   1.0000   1.0000   1.0000   1.0000

     highest occupied level (ev):     7.7803

!    total energy              =    -827.73962901 Ry
     estimated scf accuracy    <          2.8E-09 Ry

     The total energy is the sum of the following terms:
     one-electron contribution =    -260.56476767 Ry
     hartree contribution      =     180.51803031 Ry
     xc contribution           =    -309.10859351 Ry
     ewald contribution        =    -438.46218851 Ry
     DFT-D3 Dispersion         =      -0.12210964 Ry

     convergence has been achieved in  10 iterations

     Forces acting on atoms (cartesian axes, Ry/au):

     atom    1 type  2   force =     0.00985835    0.00000000    0.00080573
     atom    2 type  1   force =    -0.01010955    0.00000000   -0.00040902
     atom    3 type  2   force =    -0.00985835    0.00000000    0.00080573
     atom    4 type  1   force =     0.01010955    0.00000000   -0.00040902
     atom    5 type  2   force =     0.00985835    0.00000000   -0.00080573
     atom    6 type  1   force =    -0.01010955    0.00000000    0.00040902
     atom    7 type  2   force =    -0.00985835    0.00000000   -0.00080573
     atom    8 type  1   force =     0.01010955   -0.00000000    0.00040902
     The non-local contrib.  to forces
     atom    1 type  2   force =    -0.10665198    0.00000000    0.11249818
     atom    2 type  1   force =     0.35225064    0.00000000    0.30429521
     atom    3 type  2   force =     0.10665198   -0.00000000    0.11249818
     atom    4 type  1   force =    -0.35225064    0.00000000    0.30429521
     atom    5 type  2   force =    -0.10665198    0.00000000   -0.11249818
     atom    6 type  1   force =     0.35225064    0.00000000   -0.30429521
     atom    7 type  2   force =     0.10665198   -0.00000000   -0.11249818
     atom    8 type  1   force =    -0.35225064    0.00000000   -0.30429521
     The ionic contribution  to forces
     atom    1 type  2   force =     1.35165796   -0.00000000   -1.20579495
     atom    2 type  1   force =    -0.65642209   -0.00000000   -0.61906802
     atom    3 type  2   force =    -1.35165796   -0.00000000   -1.20579495
     atom    4 type  1   force =     0.65642209   -0.00000000   -0.61906802
     atom    5 type  2   force =     1.35165796   -0.00000000    1.20579495
     atom    6 type  1   force =    -0.65642209    0.00000000    0.61906802
     atom    7 type  2   force =    -1.35165796   -0.00000000    1.20579495
     atom    8 type  1   force =     0.65642209   -0.00000000    0.61906802
     The local contribution  to forces
     atom    1 type  2   force =    -1.24593879    0.00000000    1.10513014
     atom    2 type  1   force =     0.29983249   -0.00000000    0.31874702
     atom    3 type  2   force =     1.24593879   -0.00000000    1.10513014
     atom    4 type  1   force =    -0.29983249   -0.00000000    0.31874702
     atom    5 type  2   force =    -1.24593879    0.00000000   -1.10513014
     atom    6 type  1   force =     0.29983249   -0.00000000   -0.31874702
     atom    7 type  2   force =     1.24593879   -0.00000000   -1.10513014
     atom    8 type  1   force =    -0.29983249   -0.00000000   -0.31874702
     The core correction contribution to forces
     atom    1 type  2   force =     0.01163151   -0.00000000   -0.01251525
     atom    2 type  1   force =    -0.00506406    0.00000000   -0.00538145
     atom    3 type  2   force =    -0.01163151    0.00000000   -0.01251525
     atom    4 type  1   force =     0.00506406   -0.00000000   -0.00538145
     atom    5 type  2   force =     0.01163151    0.00000000    0.01251525
     atom    6 type  1   force =    -0.00506406   -0.00000000    0.00538145
     atom    7 type  2   force =    -0.01163151    0.00000000    0.01251525
     atom    8 type  1   force =     0.00506406    0.00000000    0.00538145
     The Hubbard contrib.    to forces
     atom    1 type  2   force =     0.00000000    0.00000000    0.00000000
     atom    2 type  1   force =     0.00000000    0.00000000    0.00000000
     atom    3 type  2   force =     0.00000000    0.00000000    0.00000000
     atom    4 type  1   force =     0.00000000    0.00000000    0.00000000
     atom    5 type  2   force =     0.00000000    0.00000000    0.00000000
     atom    6 type  1   force =     0.00000000    0.00000000    0.00000000
     atom    7 type  2   force =     0.00000000    0.00000000    0.00000000
     atom    8 type  1   force =     0.00000000    0.00000000    0.00000000
     The SCF correction term to forces
     atom    1 type  2   force =    -0.00000368    0.00000000    0.00000328
     atom    2 type  1   force =    -0.00000792   -0.00000000   -0.00000698
     atom    3 type  2   force =     0.00000368   -0.00000000    0.00000328
     atom    4 type  1   force =     0.00000792   -0.00000000   -0.00000698
     atom    5 type  2   force =    -0.00000368   -0.00000000   -0.00000328
     atom    6 type  1   force =    -0.00000792    0.00000000    0.00000698
     atom    7 type  2   force =     0.00000368    0.00000000   -0.00000328
     atom    8 type  1   force =     0.00000792    0.00000000    0.00000698

     DFT-D3 dispersion contribution to forces:
     atom    1 type  2   force =    -0.00083667    0.00000000    0.00148432
     atom    2 type  1   force =    -0.00069860   -0.00000000    0.00100519
     atom    3 type  2   force =     0.00083667   -0.00000000    0.00148432
     atom    4 type  1   force =     0.00069860    0.00000000    0.00100519
     atom    5 type  2   force =    -0.00083667    0.00000000   -0.00148432
     atom    6 type  1   force =    -0.00069860   -0.00000000   -0.00100519
     atom    7 type  2   force =     0.00083667   -0.00000000   -0.00148432
     atom    8 type  1   force =     0.00069860    0.00000000   -0.00100519

     Total force =     0.028299     Total SCF correction =     0.000023

     DFT-D3 dispersion Force =     0.004196

     Writing all to output data dir ./tmp/SnSe_pnma.save/ :
     XML data file, charge density, pseudopotentials, collected wavefunctions
 
     init_run     :      1.63s CPU      1.77s WALL (       1 calls)
     electrons    :     35.87s CPU     37.96s WALL (       1 calls)
     forces       :      0.71s CPU      0.81s WALL (       1 calls)
     force_dftd3  :      0.06s CPU      0.06s WALL (       1 calls)

     Called by init_run:
     wfcinit      :      0.89s CPU      0.92s WALL (       1 calls)
     wfcinit:atom :      0.01s CPU      0.01s WALL (      11 calls)
     wfcinit:wfcr :      0.77s CPU      0.77s WALL (      11 calls)
     potinit      :      0.19s CPU      0.21s WALL (       1 calls)
     hinit0       :      0.17s CPU      0.18s WALL (       1 calls)

     Called by electrons:
     c_bands      :     26.86s CPU     27.10s WALL (      10 calls)
     sum_band     :      5.80s CPU      6.75s WALL (      10 calls)
     v_of_rho     :      1.18s CPU      1.24s WALL (      11 calls)
     v_h          :      0.08s CPU      0.08s WALL (      11 calls)
     v_xc         :      1.20s CPU      1.26s WALL (      12 calls)
     newd         :      2.16s CPU      3.03s WALL (      11 calls)
     mix_rho      :      0.12s CPU      0.13s WALL (      10 calls)
     energy_dftd3 :      0.04s CPU      0.04s WALL (       1 calls)

     Called by c_bands:
     init_us_2    :      0.74s CPU      0.76s WALL (     242 calls)
     cegterg      :     23.42s CPU     23.57s WALL (     110 calls)

     Called by sum_band:
     sum_band:wei :      0.00s CPU      0.00s WALL (      10 calls)
     sum_band:loo :      3.58s CPU      3.60s WALL (      10 calls)
     sum_band:buf :      0.05s CPU      0.05s WALL (     110 calls)
     sum_band:ini :      0.32s CPU      0.32s WALL (     110 calls)
     sum_band:cal :      0.47s CPU      0.47s WALL (     110 calls)
     sum_band:bec :      0.01s CPU      0.01s WALL (     110 calls)
     addusdens    :      1.85s CPU      2.75s WALL (      10 calls)
                                        0.00s GPU  (      10 calls)
     addusd:skk   :      0.01s CPU      0.01s WALL (      20 calls)
                                        0.00s GPU  (      20 calls)

     Called by *egterg:
     cdiaghg      :      0.88s CPU      0.88s WALL (     530 calls)
     cegterg:over :      1.30s CPU      1.30s WALL (     420 calls)
     cegterg:upda :      0.73s CPU      0.73s WALL (     420 calls)
     cegterg:last :      1.81s CPU      1.81s WALL (     298 calls)
     h_psi        :     16.93s CPU     17.07s WALL (     541 calls)
     s_psi        :      1.77s CPU      1.78s WALL (     541 calls)
     g_psi        :      0.07s CPU      0.07s WALL (     420 calls)

     Called by h_psi:
     h_psi:calbec :      1.68s CPU      1.69s WALL (     541 calls)
     vloc_psi     :     13.29s CPU     13.42s WALL (     541 calls)
     add_vuspsi   :      1.81s CPU      1.81s WALL (     541 calls)

     General routines
     calbec       :      2.33s CPU      2.35s WALL (     695 calls)
     fft          :      0.56s CPU      0.58s WALL (     152 calls)
     ffts         :      0.01s CPU      0.01s WALL (      21 calls)
     fftw         :      9.31s CPU      9.40s WALL (   33692 calls)
     interpolate  :      0.06s CPU      0.06s WALL (      11 calls)
 
     Parallel routines
 
     PWSCF        :     38.58s CPU     41.45s WALL

 
   This run was terminated on:  16: 1:22  20May2026            

=------------------------------------------------------------------------------=
   JOB DONE.
=------------------------------------------------------------------------------=
