
     Program PWSCF v.7.3.1 starts on 19May2026 at 21:24:14 

     This program is part of the open-source Quantum ESPRESSO suite
     for quantum simulation of materials; please cite
         "P. Giannozzi et al., J. Phys.:Condens. Matter 21 395502 (2009);
         "P. Giannozzi et al., J. Phys.:Condens. Matter 29 465901 (2017);
         "P. Giannozzi et al., J. Chem. Phys. 152 154105 (2020);
          URL http://www.quantum-espresso.org", 
     in publications or presentations arising from this work. More details at
     http://www.quantum-espresso.org/quote

     Parallel version (MPI & OpenMP), running on       6 processor cores
     Number of MPI processes:                 6
     Threads/MPI process:                     1

     MPI processes distributed on     1 nodes
     12149 MiB available memory on the printing compute node when the environment starts
 
     Waiting for input...
     Reading input from standard input

     Current dimensions of program PWSCF are:
     Max number of different atomic species (ntypx) = 10
     Max number of k-points (npk) =  40000
     Max angular momentum in pseudopotentials (lmaxx) =  4
 
     K-points division:     npool     =       3
     R & G space division:  proc/nbgrp/npool/nimage =       2
     Subspace diagonalization in iterative solution of the eigenvalue problem:
     a serial algorithm will be used

 
     Parallelization info
     --------------------
     sticks:   dense  smooth     PW     G-vecs:    dense   smooth      PW
     Min        2148     858    256                68111    17200    2780
     Max        2149     859    257                68112    17203    2781
     Sum        4297    1717    513               136223    34403    5561
 
     Using Slab Decomposition
 


     bravais-lattice index     =            8
     lattice parameter (alat)  =      22.8657  a.u.
     unit-cell volume          =    1551.6718 (a.u.)^3
     number of atoms/cell      =            8
     number of atomic types    =            2
     number of electrons       =        80.00
     number of Kohn-Sham states=           40
     kinetic-energy cutoff     =      30.0000  Ry
     charge density cutoff     =     300.0000  Ry
     scf convergence threshold =      1.0E-08
     mixing beta               =       0.7000
     number of iterations used =            8  plain     mixing
     Exchange-correlation= SLA  PW   PBE  PBE
                           (   1   4   3   4   0   0   0)

     celldm(1)=  22.865686  celldm(2)=   0.344744  celldm(3)=   0.376488
     celldm(4)=   0.000000  celldm(5)=   0.000000  celldm(6)=   0.000000

     crystal axes: (cart. coord. in units of alat)
               a(1) = (   1.000000   0.000000   0.000000 )  
               a(2) = (   0.000000   0.344744   0.000000 )  
               a(3) = (   0.000000   0.000000   0.376488 )  

     reciprocal axes: (cart. coord. in units 2 pi/alat)
               b(1) = (  1.000000  0.000000  0.000000 )  
               b(2) = (  0.000000  2.900705  0.000000 )  
               b(3) = (  0.000000  0.000000  2.656130 )  


     PseudoPot. # 1 for Sn read from file:
     ../pseudo/Sn_pbe_v1.uspp.F.UPF
     MD5 check sum: 4cf58ce39ec5d5d420df3dd08604eb00
     Pseudo is Ultrasoft + core correction, Zval = 14.0
     Generated by new atomic code, or converted to UPF format
     Using radial grid of  891 points,  6 beta functions with: 
                l(1) =   0
                l(2) =   0
                l(3) =   1
                l(4) =   1
                l(5) =   2
                l(6) =   2
     Q(r) pseudized with  6 coefficients,  rinner =    1.200   1.200   1.200
                                                       1.200   1.200

     PseudoPot. # 2 for Se read from file:
     ../pseudo/Se_pbe_v1.uspp.F.UPF
     MD5 check sum: 1b3568f3a8ae88f9a2a0ad0698632c85
     Pseudo is Ultrasoft + core correction, Zval =  6.0
     Generated by new atomic code, or converted to UPF format
     Using radial grid of  877 points,  6 beta functions with: 
                l(1) =   0
                l(2) =   0
                l(3) =   1
                l(4) =   1
                l(5) =   2
                l(6) =   2
     Q(r) pseudized with  8 coefficients,  rinner =    1.300   1.300   1.300
                                                       1.300   1.300

     atomic species   valence    mass     pseudopotential
     Sn               14.00   118.71000     Sn( 1.00)
     Se                6.00    78.97100     Se( 1.00)

      8 Sym. Ops., with inversion, found ( 6 have fractional translation)


                                    s                        frac. trans.

      isym =  1     identity                                     

 cryst.   s( 1) = (     1          0          0      )
                  (     0          1          0      )
                  (     0          0          1      )

 cart.    s( 1) = (  1.0000000  0.0000000  0.0000000 )
                  (  0.0000000  1.0000000  0.0000000 )
                  (  0.0000000  0.0000000  1.0000000 )


      isym =  2     180 deg rotation - cart. axis [0,0,1]        

 cryst.   s( 2) = (    -1          0          0      )    f =(  0.5000000 )
                  (     0         -1          0      )       (  0.0000000 )
                  (     0          0          1      )       ( -0.5000000 )

 cart.    s( 2) = ( -1.0000000  0.0000000  0.0000000 )    f =(  0.5000000 )
                  (  0.0000000 -1.0000000  0.0000000 )       (  0.0000000 )
                  (  0.0000000  0.0000000  1.0000000 )       ( -0.1882438 )


      isym =  3     180 deg rotation - cart. axis [0,1,0]        

 cryst.   s( 3) = (    -1          0          0      )    f =(  0.0000000 )
                  (     0          1          0      )       ( -0.5000000 )
                  (     0          0         -1      )       (  0.0000000 )

 cart.    s( 3) = ( -1.0000000  0.0000000  0.0000000 )    f =(  0.0000000 )
                  (  0.0000000  1.0000000  0.0000000 )       ( -0.1723719 )
                  (  0.0000000  0.0000000 -1.0000000 )       (  0.0000000 )


      isym =  4     180 deg rotation - cart. axis [1,0,0]        

 cryst.   s( 4) = (     1          0          0      )    f =(  0.5000000 )
                  (     0         -1          0      )       (  0.5000000 )
                  (     0          0         -1      )       ( -0.5000000 )

 cart.    s( 4) = (  1.0000000  0.0000000  0.0000000 )    f =(  0.5000000 )
                  (  0.0000000 -1.0000000  0.0000000 )       (  0.1723719 )
                  (  0.0000000  0.0000000 -1.0000000 )       ( -0.1882438 )


      isym =  5     inversion                                    

 cryst.   s( 5) = (    -1          0          0      )
                  (     0         -1          0      )
                  (     0          0         -1      )

 cart.    s( 5) = ( -1.0000000  0.0000000  0.0000000 )
                  (  0.0000000 -1.0000000  0.0000000 )
                  (  0.0000000  0.0000000 -1.0000000 )


      isym =  6     inv. 180 deg rotation - cart. axis [0,0,1]   

 cryst.   s( 6) = (     1          0          0      )    f =(  0.5000000 )
                  (     0          1          0      )       (  0.0000000 )
                  (     0          0         -1      )       ( -0.5000000 )

 cart.    s( 6) = (  1.0000000  0.0000000  0.0000000 )    f =(  0.5000000 )
                  (  0.0000000  1.0000000  0.0000000 )       (  0.0000000 )
                  (  0.0000000  0.0000000 -1.0000000 )       ( -0.1882438 )


      isym =  7     inv. 180 deg rotation - cart. axis [0,1,0]   

 cryst.   s( 7) = (     1          0          0      )    f =(  0.0000000 )
                  (     0         -1          0      )       (  0.5000000 )
                  (     0          0          1      )       (  0.0000000 )

 cart.    s( 7) = (  1.0000000  0.0000000  0.0000000 )    f =(  0.0000000 )
                  (  0.0000000 -1.0000000  0.0000000 )       (  0.1723719 )
                  (  0.0000000  0.0000000  1.0000000 )       (  0.0000000 )


      isym =  8     inv. 180 deg rotation - cart. axis [1,0,0]   

 cryst.   s( 8) = (    -1          0          0      )    f =(  0.5000000 )
                  (     0          1          0      )       ( -0.5000000 )
                  (     0          0          1      )       ( -0.5000000 )

 cart.    s( 8) = ( -1.0000000  0.0000000  0.0000000 )    f =(  0.5000000 )
                  (  0.0000000  1.0000000  0.0000000 )       ( -0.1723719 )
                  (  0.0000000  0.0000000  1.0000000 )       ( -0.1882438 )


     point group D_2h (mmm) 
     there are  8 classes
     the character table:

       E     C2    C2'   C2''  i     s_v   s_v'  s_v''
A_g    1.00  1.00  1.00  1.00  1.00  1.00  1.00  1.00
B_1g   1.00  1.00 -1.00 -1.00  1.00  1.00 -1.00 -1.00
B_2g   1.00 -1.00  1.00 -1.00  1.00 -1.00  1.00 -1.00
B_3g   1.00 -1.00 -1.00  1.00  1.00 -1.00 -1.00  1.00
A_u    1.00  1.00  1.00  1.00 -1.00 -1.00 -1.00 -1.00
B_1u   1.00  1.00 -1.00 -1.00 -1.00 -1.00  1.00  1.00
B_2u   1.00 -1.00  1.00 -1.00 -1.00  1.00 -1.00  1.00
B_3u   1.00 -1.00 -1.00  1.00 -1.00  1.00  1.00 -1.00

     the symmetry operations in each class and the name of the first element:

     E        1
          identity                                               
     C2       2
          180 deg rotation - cart. axis [0,0,1]                  
     C2'      4
          180 deg rotation - cart. axis [1,0,0]                  
     C2''     3
          180 deg rotation - cart. axis [0,1,0]                  
     i        5
          inversion                                              
     s_v      6
          inv. 180 deg rotation - cart. axis [0,0,1]             
     s_v'     8
          inv. 180 deg rotation - cart. axis [1,0,0]             
     s_v''    7
          inv. 180 deg rotation - cart. axis [0,1,0]             

   Cartesian axes

     site n.     atom                  positions (alat units)
         1        Se     tau(   1) = (   0.8549563   0.0861860   0.1819369  )
         2        Sn     tau(   2) = (   0.1165395   0.0861860   0.0422747  )
         3        Se     tau(   3) = (   0.6450437   0.2585579   0.3701807  )
         4        Sn     tau(   4) = (   0.3834605   0.2585579   0.2305185  )
         5        Se     tau(   5) = (   0.3549563   0.0861860   0.0063069  )
         6        Sn     tau(   6) = (   0.6165395   0.0861860   0.1459691  )
         7        Se     tau(   7) = (   0.1450437   0.2585579   0.1945507  )
         8        Sn     tau(   8) = (   0.8834605   0.2585579   0.3342129  )

     --------------------------------------------
     DFT-D3 Dispersion Correction (3-body terms):
     --------------------------------------------
       Reference C6 values for interpolation: 

         atom   Coordination number   C6
         Se         0.000           427.35
         Se         0.990           427.57
         Se         1.981           421.05
         Sn         0.000          1255.14
         Sn         0.951          1084.09
         Sn         1.950          1010.83
         Sn         2.926           818.29
         Sn         3.912           672.20

       Values used:

         atom   Coordination number  R0_AB[au]  C6      C8
         Se         3.200            3.332    421.05  29958.36
         Sn         3.738            3.957    682.46  85655.72
         Se         3.200            3.332    421.05  29958.36
         Sn         3.738            3.957    682.46  85655.72
         Se         3.200            3.332    421.05  29958.36
         Sn         3.738            3.957    682.46  85655.72
         Se         3.200            3.332    421.05  29958.36
         Sn         3.738            3.957    682.46  85655.72

         Molecular C6 ( Ry / a.u.^6 ) =     34786.59


   Crystallographic axes

     site n.     atom                  positions (cryst. coord.)
         1        Se     tau(   1) = (  0.8549563  0.2500000  0.4832481  )
         2        Sn     tau(   2) = (  0.1165395  0.2500000  0.1122870  )
         3        Se     tau(   3) = (  0.6450437  0.7500000  0.9832481  )
         4        Sn     tau(   4) = (  0.3834605  0.7500000  0.6122870  )
         5        Se     tau(   5) = (  0.3549563  0.2500000  0.0167519  )
         6        Sn     tau(   6) = (  0.6165395  0.2500000  0.3877130  )
         7        Se     tau(   7) = (  0.1450437  0.7500000  0.5167519  )
         8        Sn     tau(   8) = (  0.8834605  0.7500000  0.8877130  )

     number of k points=    32
                       cart. coord. in units 2pi/alat
        k(    1) = (   0.1666667   0.1812940   0.1660081), wk =   0.0833333
        k(    2) = (   0.1666667   0.1812940   0.4980244), wk =   0.0833333
        k(    3) = (   0.1666667   0.1812940   0.8300406), wk =   0.0833333
        k(    4) = (   0.1666667   0.1812940   1.1620569), wk =   0.0833333
        k(    5) = (   0.1666667   0.5438821   0.1660081), wk =   0.0833333
        k(    6) = (   0.1666667   0.5438821   0.4980244), wk =   0.0833333
        k(    7) = (   0.1666667   0.5438821   0.8300406), wk =   0.0833333
        k(    8) = (   0.1666667   0.5438821   1.1620569), wk =   0.0833333
        k(    9) = (   0.1666667   0.9064702   0.1660081), wk =   0.0833333
        k(   10) = (   0.1666667   0.9064702   0.4980244), wk =   0.0833333
        k(   11) = (   0.1666667   0.9064702   0.8300406), wk =   0.0833333
        k(   12) = (   0.1666667   0.9064702   1.1620569), wk =   0.0833333
        k(   13) = (   0.1666667   1.2690583   0.1660081), wk =   0.0833333
        k(   14) = (   0.1666667   1.2690583   0.4980244), wk =   0.0833333
        k(   15) = (   0.1666667   1.2690583   0.8300406), wk =   0.0833333
        k(   16) = (   0.1666667   1.2690583   1.1620569), wk =   0.0833333
        k(   17) = (  -0.5000000   0.1812940   0.1660081), wk =   0.0416667
        k(   18) = (  -0.5000000   0.1812940   0.4980244), wk =   0.0416667
        k(   19) = (  -0.5000000   0.1812940   0.8300406), wk =   0.0416667
        k(   20) = (  -0.5000000   0.1812940   1.1620569), wk =   0.0416667
        k(   21) = (  -0.5000000   0.5438821   0.1660081), wk =   0.0416667
        k(   22) = (  -0.5000000   0.5438821   0.4980244), wk =   0.0416667
        k(   23) = (  -0.5000000   0.5438821   0.8300406), wk =   0.0416667
        k(   24) = (  -0.5000000   0.5438821   1.1620569), wk =   0.0416667
        k(   25) = (  -0.5000000   0.9064702   0.1660081), wk =   0.0416667
        k(   26) = (  -0.5000000   0.9064702   0.4980244), wk =   0.0416667
        k(   27) = (  -0.5000000   0.9064702   0.8300406), wk =   0.0416667
        k(   28) = (  -0.5000000   0.9064702   1.1620569), wk =   0.0416667
        k(   29) = (  -0.5000000   1.2690583   0.1660081), wk =   0.0416667
        k(   30) = (  -0.5000000   1.2690583   0.4980244), wk =   0.0416667
        k(   31) = (  -0.5000000   1.2690583   0.8300406), wk =   0.0416667
        k(   32) = (  -0.5000000   1.2690583   1.1620569), wk =   0.0416667

                       cryst. coord.
        k(    1) = (   0.1666667   0.0625000   0.0625000), wk =   0.0833333
        k(    2) = (   0.1666667   0.0625000   0.1875000), wk =   0.0833333
        k(    3) = (   0.1666667   0.0625000   0.3125000), wk =   0.0833333
        k(    4) = (   0.1666667   0.0625000   0.4375000), wk =   0.0833333
        k(    5) = (   0.1666667   0.1875000   0.0625000), wk =   0.0833333
        k(    6) = (   0.1666667   0.1875000   0.1875000), wk =   0.0833333
        k(    7) = (   0.1666667   0.1875000   0.3125000), wk =   0.0833333
        k(    8) = (   0.1666667   0.1875000   0.4375000), wk =   0.0833333
        k(    9) = (   0.1666667   0.3125000   0.0625000), wk =   0.0833333
        k(   10) = (   0.1666667   0.3125000   0.1875000), wk =   0.0833333
        k(   11) = (   0.1666667   0.3125000   0.3125000), wk =   0.0833333
        k(   12) = (   0.1666667   0.3125000   0.4375000), wk =   0.0833333
        k(   13) = (   0.1666667   0.4375000   0.0625000), wk =   0.0833333
        k(   14) = (   0.1666667   0.4375000   0.1875000), wk =   0.0833333
        k(   15) = (   0.1666667   0.4375000   0.3125000), wk =   0.0833333
        k(   16) = (   0.1666667   0.4375000   0.4375000), wk =   0.0833333
        k(   17) = (  -0.5000000   0.0625000   0.0625000), wk =   0.0416667
        k(   18) = (  -0.5000000   0.0625000   0.1875000), wk =   0.0416667
        k(   19) = (  -0.5000000   0.0625000   0.3125000), wk =   0.0416667
        k(   20) = (  -0.5000000   0.0625000   0.4375000), wk =   0.0416667
        k(   21) = (  -0.5000000   0.1875000   0.0625000), wk =   0.0416667
        k(   22) = (  -0.5000000   0.1875000   0.1875000), wk =   0.0416667
        k(   23) = (  -0.5000000   0.1875000   0.3125000), wk =   0.0416667
        k(   24) = (  -0.5000000   0.1875000   0.4375000), wk =   0.0416667
        k(   25) = (  -0.5000000   0.3125000   0.0625000), wk =   0.0416667
        k(   26) = (  -0.5000000   0.3125000   0.1875000), wk =   0.0416667
        k(   27) = (  -0.5000000   0.3125000   0.3125000), wk =   0.0416667
        k(   28) = (  -0.5000000   0.3125000   0.4375000), wk =   0.0416667
        k(   29) = (  -0.5000000   0.4375000   0.0625000), wk =   0.0416667
        k(   30) = (  -0.5000000   0.4375000   0.1875000), wk =   0.0416667
        k(   31) = (  -0.5000000   0.4375000   0.3125000), wk =   0.0416667
        k(   32) = (  -0.5000000   0.4375000   0.4375000), wk =   0.0416667

     Dense  grid:   136223 G-vectors     FFT dimensions: ( 128,  48,  48)

     Smooth grid:    34403 G-vectors     FFT dimensions: (  80,  30,  32)

     Dynamical RAM for                 wfc:       1.31 MB

     Dynamical RAM for     wfc (w. buffer):      15.77 MB

     Dynamical RAM for           str. fact:       2.08 MB

     Dynamical RAM for           local pot:       0.00 MB

     Dynamical RAM for          nlocal pot:       4.73 MB

     Dynamical RAM for                qrad:       2.78 MB

     Dynamical RAM for          rho,v,vnew:       6.49 MB

     Dynamical RAM for               rhoin:       2.16 MB

     Dynamical RAM for            rho*nmix:      16.63 MB

     Dynamical RAM for           G-vectors:       4.03 MB

     Dynamical RAM for          h,s,v(r/c):       0.29 MB

     Dynamical RAM for          <psi|beta>:       0.09 MB

     Dynamical RAM for                 psi:       2.63 MB

     Dynamical RAM for                hpsi:       2.63 MB

     Dynamical RAM for                spsi:       2.63 MB

     Dynamical RAM for      wfcinit/wfcrot:       3.48 MB

     Dynamical RAM for           addusdens:      66.52 MB

     Dynamical RAM for          addusforce:      68.44 MB

     Estimated static dynamical RAM per process >      46.79 MB

     Estimated max dynamical RAM per process >     131.85 MB

     Estimated total dynamical RAM >     724.61 MB

     Initial potential from superposition of free atoms

     starting charge      75.9995, renormalised to      80.0000
     Starting wfcs are   52 randomized atomic wfcs

     total cpu time spent up to now is        1.5 secs

     Self-consistent Calculation

     iteration #  1     ecut=    30.00 Ry     beta= 0.70
     Davidson diagonalization with overlap

---- Real-time Memory Report at c_bands before calling an iterative solver
           210 MiB given to the printing process from OS
             0 MiB allocation reported by mallinfo(arena+hblkhd)
         11681 MiB available memory on the node where the printing process lives
------------------
     ethr =  1.00E-02,  avg # of iterations =  2.0

     total cpu time spent up to now is        3.9 secs

     total energy              =    -826.57945018 Ry
     estimated scf accuracy    <       2.74931180 Ry

     iteration #  2     ecut=    30.00 Ry     beta= 0.70
     Davidson diagonalization with overlap

---- Real-time Memory Report at c_bands before calling an iterative solver
           262 MiB given to the printing process from OS
             0 MiB allocation reported by mallinfo(arena+hblkhd)
         11183 MiB available memory on the node where the printing process lives
------------------
     ethr =  3.44E-03,  avg # of iterations =  3.0

     total cpu time spent up to now is        6.4 secs

     total energy              =    -827.48843763 Ry
     estimated scf accuracy    <       1.12089264 Ry

     iteration #  3     ecut=    30.00 Ry     beta= 0.70
     Davidson diagonalization with overlap

---- Real-time Memory Report at c_bands before calling an iterative solver
           284 MiB given to the printing process from OS
             0 MiB allocation reported by mallinfo(arena+hblkhd)
         11086 MiB available memory on the node where the printing process lives
------------------
     ethr =  1.40E-03,  avg # of iterations =  2.8

     total cpu time spent up to now is        8.8 secs

     total energy              =    -827.72238356 Ry
     estimated scf accuracy    <       0.01362338 Ry

     iteration #  4     ecut=    30.00 Ry     beta= 0.70
     Davidson diagonalization with overlap

---- Real-time Memory Report at c_bands before calling an iterative solver
           288 MiB given to the printing process from OS
             0 MiB allocation reported by mallinfo(arena+hblkhd)
         11077 MiB available memory on the node where the printing process lives
------------------
     ethr =  1.70E-05,  avg # of iterations =  4.9

     total cpu time spent up to now is       11.5 secs

     total energy              =    -827.73019114 Ry
     estimated scf accuracy    <       0.00617209 Ry

     iteration #  5     ecut=    30.00 Ry     beta= 0.70
     Davidson diagonalization with overlap

---- Real-time Memory Report at c_bands before calling an iterative solver
           289 MiB given to the printing process from OS
             0 MiB allocation reported by mallinfo(arena+hblkhd)
         11066 MiB available memory on the node where the printing process lives
------------------
     ethr =  7.72E-06,  avg # of iterations =  2.2

     total cpu time spent up to now is       13.3 secs

     total energy              =    -827.73121686 Ry
     estimated scf accuracy    <       0.00069389 Ry

     iteration #  6     ecut=    30.00 Ry     beta= 0.70
     Davidson diagonalization with overlap

---- Real-time Memory Report at c_bands before calling an iterative solver
           291 MiB given to the printing process from OS
             0 MiB allocation reported by mallinfo(arena+hblkhd)
         11065 MiB available memory on the node where the printing process lives
------------------
     ethr =  8.67E-07,  avg # of iterations =  4.4

     total cpu time spent up to now is       15.8 secs

     total energy              =    -827.73132892 Ry
     estimated scf accuracy    <       0.00112489 Ry

     iteration #  7     ecut=    30.00 Ry     beta= 0.70
     Davidson diagonalization with overlap

---- Real-time Memory Report at c_bands before calling an iterative solver
           292 MiB given to the printing process from OS
             0 MiB allocation reported by mallinfo(arena+hblkhd)
         11067 MiB available memory on the node where the printing process lives
------------------
     ethr =  8.67E-07,  avg # of iterations =  3.0

     total cpu time spent up to now is       18.1 secs

     total energy              =    -827.73148440 Ry
     estimated scf accuracy    <       0.00002707 Ry

     iteration #  8     ecut=    30.00 Ry     beta= 0.70
     Davidson diagonalization with overlap

---- Real-time Memory Report at c_bands before calling an iterative solver
           295 MiB given to the printing process from OS
             0 MiB allocation reported by mallinfo(arena+hblkhd)
         11064 MiB available memory on the node where the printing process lives
------------------
     ethr =  3.38E-08,  avg # of iterations =  4.9

     total cpu time spent up to now is       20.9 secs

     total energy              =    -827.73150621 Ry
     estimated scf accuracy    <       0.00002476 Ry

     iteration #  9     ecut=    30.00 Ry     beta= 0.70
     Davidson diagonalization with overlap

---- Real-time Memory Report at c_bands before calling an iterative solver
           298 MiB given to the printing process from OS
             0 MiB allocation reported by mallinfo(arena+hblkhd)
         11062 MiB available memory on the node where the printing process lives
------------------
     ethr =  3.09E-08,  avg # of iterations =  2.0

     total cpu time spent up to now is       22.7 secs

     total energy              =    -827.73150850 Ry
     estimated scf accuracy    <       0.00000154 Ry

     iteration # 10     ecut=    30.00 Ry     beta= 0.70
     Davidson diagonalization with overlap

---- Real-time Memory Report at c_bands before calling an iterative solver
           299 MiB given to the printing process from OS
             0 MiB allocation reported by mallinfo(arena+hblkhd)
         11060 MiB available memory on the node where the printing process lives
------------------
     ethr =  1.93E-09,  avg # of iterations =  4.4

     total cpu time spent up to now is       25.1 secs

     total energy              =    -827.73150918 Ry
     estimated scf accuracy    <       0.00000012 Ry

     iteration # 11     ecut=    30.00 Ry     beta= 0.70
     Davidson diagonalization with overlap

---- Real-time Memory Report at c_bands before calling an iterative solver
           300 MiB given to the printing process from OS
             0 MiB allocation reported by mallinfo(arena+hblkhd)
         11060 MiB available memory on the node where the printing process lives
------------------
     ethr =  1.51E-10,  avg # of iterations =  4.4

     total cpu time spent up to now is       27.1 secs

     total energy              =    -827.73150917 Ry
     estimated scf accuracy    <       0.00000006 Ry

     iteration # 12     ecut=    30.00 Ry     beta= 0.70
     Davidson diagonalization with overlap

---- Real-time Memory Report at c_bands before calling an iterative solver
           301 MiB given to the printing process from OS
             0 MiB allocation reported by mallinfo(arena+hblkhd)
         11059 MiB available memory on the node where the printing process lives
------------------
     ethr =  8.10E-11,  avg # of iterations =  3.1

     total cpu time spent up to now is       29.1 secs

     End of self-consistent calculation

          k = 0.1667 0.1813 0.1660 (  4305 PWs)   bands (ev):

   -14.3603 -14.3527 -14.3486 -14.3445 -14.3415 -14.3400 -14.3394 -14.3388
   -14.3311 -14.3241 -14.3217 -14.3208 -14.3186 -14.3149 -14.3026 -14.2987
   -14.2947 -14.2916 -14.2883 -14.2850  -6.2933  -6.0650  -5.4961  -5.1971
     0.0775   0.7956   1.4402   1.8726   2.6936   3.8377   4.0133   4.2306
     4.4405   4.5047   4.9696   5.2271   5.4302   5.6912   6.3171   6.6012

     occupation numbers 
     1.0000   1.0000   1.0000   1.0000   1.0000   1.0000   1.0000   1.0000
     1.0000   1.0000   1.0000   1.0000   1.0000   1.0000   1.0000   1.0000
     1.0000   1.0000   1.0000   1.0000   1.0000   1.0000   1.0000   1.0000
     1.0000   1.0000   1.0000   1.0000   1.0000   1.0000   1.0000   1.0000
     1.0000   1.0000   1.0000   1.0000   1.0000   1.0000   1.0000   1.0000

          k = 0.1667 0.1813 0.4980 (  4297 PWs)   bands (ev):

   -14.3593 -14.3526 -14.3487 -14.3448 -14.3414 -14.3410 -14.3396 -14.3394
   -14.3293 -14.3233 -14.3216 -14.3211 -14.3171 -14.3135 -14.3029 -14.2994
   -14.2944 -14.2917 -14.2882 -14.2854  -6.1861  -5.9672  -5.4805  -5.2096
    -0.2497   0.4887   0.9865   1.5034   2.7699   3.9082   4.1169   4.5097
     4.7676   4.9924   5.0295   5.3288   5.7994   6.1061   6.2368   6.5529

     occupation numbers 
     1.0000   1.0000   1.0000   1.0000   1.0000   1.0000   1.0000   1.0000
     1.0000   1.0000   1.0000   1.0000   1.0000   1.0000   1.0000   1.0000
     1.0000   1.0000   1.0000   1.0000   1.0000   1.0000   1.0000   1.0000
     1.0000   1.0000   1.0000   1.0000   1.0000   1.0000   1.0000   1.0000
     1.0000   1.0000   1.0000   1.0000   1.0000   1.0000   1.0000   1.0000

          k = 0.1667 0.1813 0.8300 (  4293 PWs)   bands (ev):

   -14.3576 -14.3527 -14.3487 -14.3457 -14.3420 -14.3415 -14.3406 -14.3398
   -14.3266 -14.3228 -14.3220 -14.3215 -14.3141 -14.3115 -14.3030 -14.3006
   -14.2937 -14.2919 -14.2880 -14.2861  -5.9965  -5.7954  -5.4872  -5.2609
    -0.5918  -0.0255   0.5617   1.0021   3.0627   4.1407   4.3524   4.8616
     4.9094   5.1502   5.3377   5.5696   5.9507   6.3898   6.4507   6.7938

     occupation numbers 
     1.0000   1.0000   1.0000   1.0000   1.0000   1.0000   1.0000   1.0000
     1.0000   1.0000   1.0000   1.0000   1.0000   1.0000   1.0000   1.0000
     1.0000   1.0000   1.0000   1.0000   1.0000   1.0000   1.0000   1.0000
     1.0000   1.0000   1.0000   1.0000   1.0000   1.0000   1.0000   1.0000
     1.0000   1.0000   1.0000   1.0000   1.0000   1.0000   1.0000   1.0000

          k = 0.1667 0.1813 1.1621 (  4282 PWs)   bands (ev):

   -14.3555 -14.3537 -14.3481 -14.3470 -14.3425 -14.3423 -14.3406 -14.3403
   -14.3243 -14.3233 -14.3220 -14.3216 -14.3114 -14.3104 -14.3027 -14.3018
   -14.2929 -14.2923 -14.2875 -14.2868  -5.7784  -5.6391  -5.5236  -5.3784
    -0.7029  -0.4932   0.4240   0.5919   3.5350   4.0521   4.6990   4.9020
     5.0883   5.1694   5.3319   5.6647   6.2374   6.5964   6.7287   6.8138

     occupation numbers 
     1.0000   1.0000   1.0000   1.0000   1.0000   1.0000   1.0000   1.0000
     1.0000   1.0000   1.0000   1.0000   1.0000   1.0000   1.0000   1.0000
     1.0000   1.0000   1.0000   1.0000   1.0000   1.0000   1.0000   1.0000
     1.0000   1.0000   1.0000   1.0000   1.0000   1.0000   1.0000   1.0000
     1.0000   1.0000   1.0000   1.0000   1.0000   1.0000   1.0000   1.0000

          k = 0.1667 0.5439 0.1660 (  4305 PWs)   bands (ev):

   -14.3551 -14.3496 -14.3456 -14.3436 -14.3427 -14.3419 -14.3400 -14.3393
   -14.3314 -14.3259 -14.3257 -14.3242 -14.3157 -14.3118 -14.2998 -14.2970
   -14.2958 -14.2946 -14.2878 -14.2853  -6.1409  -5.9315  -5.4203  -5.1663
    -0.0952   0.5147   1.1247   1.2774   2.8055   3.7499   4.0119   4.2441
     4.5796   4.8358   4.9688   5.2462   5.5825   6.1035   6.3519   6.4753

     occupation numbers 
     1.0000   1.0000   1.0000   1.0000   1.0000   1.0000   1.0000   1.0000
     1.0000   1.0000   1.0000   1.0000   1.0000   1.0000   1.0000   1.0000
     1.0000   1.0000   1.0000   1.0000   1.0000   1.0000   1.0000   1.0000
     1.0000   1.0000   1.0000   1.0000   1.0000   1.0000   1.0000   1.0000
     1.0000   1.0000   1.0000   1.0000   1.0000   1.0000   1.0000   1.0000

          k = 0.1667 0.5439 0.4980 (  4315 PWs)   bands (ev):

   -14.3546 -14.3495 -14.3462 -14.3450 -14.3430 -14.3423 -14.3400 -14.3396
   -14.3303 -14.3262 -14.3252 -14.3234 -14.3142 -14.3107 -14.3000 -14.2972
   -14.2959 -14.2945 -14.2877 -14.2856  -6.0393  -5.8395  -5.4037  -5.1727
    -0.2612   0.4136   0.8292   1.1726   2.9354   3.3547   3.5920   4.2284
     4.4381   4.9553   5.3569   5.4397   6.0663   6.1710   6.3835   6.5486

     occupation numbers 
     1.0000   1.0000   1.0000   1.0000   1.0000   1.0000   1.0000   1.0000
     1.0000   1.0000   1.0000   1.0000   1.0000   1.0000   1.0000   1.0000
     1.0000   1.0000   1.0000   1.0000   1.0000   1.0000   1.0000   1.0000
     1.0000   1.0000   1.0000   1.0000   1.0000   1.0000   1.0000   1.0000
     1.0000   1.0000   1.0000   1.0000   1.0000   1.0000   1.0000   1.0000

          k = 0.1667 0.5439 0.8300 (  4299 PWs)   bands (ev):

   -14.3536 -14.3493 -14.3477 -14.3466 -14.3434 -14.3429 -14.3402 -14.3400
   -14.3289 -14.3267 -14.3242 -14.3225 -14.3115 -14.3091 -14.3001 -14.2981
   -14.2954 -14.2944 -14.2875 -14.2861  -5.8617  -5.6798  -5.4054  -5.2104
    -0.4626   0.0736   0.5902   0.9306   3.1908   3.3053   3.5395   4.1936
     4.2703   5.0439   5.1700   5.7223   5.9205   6.1292   6.3029   6.5114

     occupation numbers 
     1.0000   1.0000   1.0000   1.0000   1.0000   1.0000   1.0000   1.0000
     1.0000   1.0000   1.0000   1.0000   1.0000   1.0000   1.0000   1.0000
     1.0000   1.0000   1.0000   1.0000   1.0000   1.0000   1.0000   1.0000
     1.0000   1.0000   1.0000   1.0000   1.0000   1.0000   1.0000   1.0000
     1.0000   1.0000   1.0000   1.0000   1.0000   1.0000   1.0000   1.0000

          k = 0.1667 0.5439 1.1621 (  4291 PWs)   bands (ev):

   -14.3522 -14.3502 -14.3487 -14.3478 -14.3436 -14.3434 -14.3405 -14.3403
   -14.3279 -14.3273 -14.3230 -14.3223 -14.3091 -14.3082 -14.2999 -14.2992
   -14.2948 -14.2944 -14.2871 -14.2866  -5.6612  -5.5366  -5.4346  -5.3077
    -0.5158  -0.3192   0.5381   0.6701   3.4961   3.5484   3.7723   4.0119
     4.2474   4.6121   5.2069   5.4950   5.7840   6.0065   6.2171   6.3839

     occupation numbers 
     1.0000   1.0000   1.0000   1.0000   1.0000   1.0000   1.0000   1.0000
     1.0000   1.0000   1.0000   1.0000   1.0000   1.0000   1.0000   1.0000
     1.0000   1.0000   1.0000   1.0000   1.0000   1.0000   1.0000   1.0000
     1.0000   1.0000   1.0000   1.0000   1.0000   1.0000   1.0000   1.0000
     1.0000   1.0000   1.0000   1.0000   1.0000   1.0000   1.0000   1.0000

          k = 0.1667 0.9065 0.1660 (  4309 PWs)   bands (ev):

   -14.3493 -14.3476 -14.3454 -14.3451 -14.3444 -14.3405 -14.3377 -14.3372
   -14.3326 -14.3300 -14.3294 -14.3257 -14.3124 -14.3089 -14.3000 -14.2999
   -14.2950 -14.2924 -14.2865 -14.2853  -5.8683  -5.7029  -5.3275  -5.1665
    -0.3417   0.1293   0.4710   0.6398   3.1352   3.8739   4.2134   4.4520
     4.8820   4.9642   5.1398   5.3189   5.7505   6.1620   6.2364   6.5207

     occupation numbers 
     1.0000   1.0000   1.0000   1.0000   1.0000   1.0000   1.0000   1.0000
     1.0000   1.0000   1.0000   1.0000   1.0000   1.0000   1.0000   1.0000
     1.0000   1.0000   1.0000   1.0000   1.0000   1.0000   1.0000   1.0000
     1.0000   1.0000   1.0000   1.0000   1.0000   1.0000   1.0000   1.0000
     1.0000   1.0000   1.0000   1.0000   1.0000   1.0000   1.0000   1.0000

          k = 0.1667 0.9065 0.4980 (  4312 PWs)   bands (ev):

   -14.3512 -14.3480 -14.3464 -14.3457 -14.3451 -14.3409 -14.3377 -14.3371
   -14.3320 -14.3302 -14.3281 -14.3251 -14.3110 -14.3080 -14.2995 -14.2995
   -14.2951 -14.2929 -14.2864 -14.2854  -5.7799  -5.6240  -5.3059  -5.1576
    -0.3068   0.2179   0.4797   0.6307   3.1314   3.2559   3.5361   4.0071
     4.4125   5.0154   5.2052   5.5415   5.6818   5.8501   6.1520   6.3403

     occupation numbers 
     1.0000   1.0000   1.0000   1.0000   1.0000   1.0000   1.0000   1.0000
     1.0000   1.0000   1.0000   1.0000   1.0000   1.0000   1.0000   1.0000
     1.0000   1.0000   1.0000   1.0000   1.0000   1.0000   1.0000   1.0000
     1.0000   1.0000   1.0000   1.0000   1.0000   1.0000   1.0000   1.0000
     1.0000   1.0000   1.0000   1.0000   1.0000   1.0000   1.0000   1.0000

          k = 0.1667 0.9065 0.8300 (  4315 PWs)   bands (ev):

   -14.3530 -14.3504 -14.3477 -14.3472 -14.3446 -14.3416 -14.3378 -14.3373
   -14.3311 -14.3302 -14.3265 -14.3244 -14.3088 -14.3067 -14.2988 -14.2987
   -14.2950 -14.2936 -14.2863 -14.2856  -5.6297  -5.4913  -5.2930  -5.1640
    -0.2607   0.1855   0.5213   0.6786   2.7336   3.0279   3.4763   3.6650
     3.8639   4.6007   4.8938   5.1778   5.4615   5.5715   5.7601   6.2389

     occupation numbers 
     1.0000   1.0000   1.0000   1.0000   1.0000   1.0000   1.0000   1.0000
     1.0000   1.0000   1.0000   1.0000   1.0000   1.0000   1.0000   1.0000
     1.0000   1.0000   1.0000   1.0000   1.0000   1.0000   1.0000   1.0000
     1.0000   1.0000   1.0000   1.0000   1.0000   1.0000   1.0000   1.0000
     1.0000   1.0000   1.0000   1.0000   1.0000   1.0000   1.0000   1.0000

          k = 0.1667 0.9065 1.1621 (  4297 PWs)   bands (ev):

   -14.3537 -14.3527 -14.3485 -14.3483 -14.3437 -14.3426 -14.3379 -14.3377
   -14.3304 -14.3302 -14.3252 -14.3244 -14.3067 -14.3060 -14.2982 -14.2981
   -14.2947 -14.2942 -14.2861 -14.2858  -5.4687  -5.3767  -5.3039  -5.2165
    -0.1850  -0.0233   0.6415   0.6975   2.7394   3.0543   3.0877   3.4376
     3.8883   4.2989   4.5124   4.9194   5.0574   5.2765   5.7911   5.9544

     occupation numbers 
     1.0000   1.0000   1.0000   1.0000   1.0000   1.0000   1.0000   1.0000
     1.0000   1.0000   1.0000   1.0000   1.0000   1.0000   1.0000   1.0000
     1.0000   1.0000   1.0000   1.0000   1.0000   1.0000   1.0000   1.0000
     1.0000   1.0000   1.0000   1.0000   1.0000   1.0000   1.0000   1.0000
     1.0000   1.0000   1.0000   1.0000   1.0000   1.0000   1.0000   1.0000

          k = 0.1667 1.2691 0.1660 (  4334 PWs)   bands (ev):

   -14.3497 -14.3484 -14.3474 -14.3467 -14.3402 -14.3373 -14.3369 -14.3356
   -14.3331 -14.3319 -14.3303 -14.3282 -14.3090 -14.3064 -14.3049 -14.3034
   -14.2900 -14.2884 -14.2865 -14.2862  -5.5474  -5.4622  -5.3198  -5.2860
    -0.4259  -0.1518  -0.0362   0.1652   3.6596   4.1176   4.4378   4.6870
     4.8591   4.9414   5.2858   5.4985   5.8848   6.0085   6.0992   6.2338

     occupation numbers 
     1.0000   1.0000   1.0000   1.0000   1.0000   1.0000   1.0000   1.0000
     1.0000   1.0000   1.0000   1.0000   1.0000   1.0000   1.0000   1.0000
     1.0000   1.0000   1.0000   1.0000   1.0000   1.0000   1.0000   1.0000
     1.0000   1.0000   1.0000   1.0000   1.0000   1.0000   1.0000   1.0000
     1.0000   1.0000   1.0000   1.0000   1.0000   1.0000   1.0000   1.0000

          k = 0.1667 1.2691 0.4980 (  4330 PWs)   bands (ev):

   -14.3516 -14.3500 -14.3492 -14.3483 -14.3401 -14.3375 -14.3367 -14.3358
   -14.3322 -14.3315 -14.3292 -14.3275 -14.3081 -14.3062 -14.3035 -14.3025
   -14.2901 -14.2888 -14.2864 -14.2862  -5.4822  -5.4042  -5.2843  -5.2508
    -0.2819  -0.0141   0.1022   0.2433   3.4049   3.6134   3.8373   4.1328
     4.1927   4.7004   5.0332   5.2030   5.3202   5.6082   5.8917   6.2058

     occupation numbers 
     1.0000   1.0000   1.0000   1.0000   1.0000   1.0000   1.0000   1.0000
     1.0000   1.0000   1.0000   1.0000   1.0000   1.0000   1.0000   1.0000
     1.0000   1.0000   1.0000   1.0000   1.0000   1.0000   1.0000   1.0000
     1.0000   1.0000   1.0000   1.0000   1.0000   1.0000   1.0000   1.0000
     1.0000   1.0000   1.0000   1.0000   1.0000   1.0000   1.0000   1.0000

          k = 0.1667 1.2691 0.8300 (  4312 PWs)   bands (ev):

   -14.3540 -14.3527 -14.3514 -14.3507 -14.3400 -14.3382 -14.3366 -14.3359
   -14.3313 -14.3310 -14.3280 -14.3269 -14.3066 -14.3055 -14.3017 -14.3012
   -14.2901 -14.2893 -14.2862 -14.2862  -5.3783  -5.3136  -5.2397  -5.2055
    -0.0401   0.1944   0.3283   0.3773   2.7551   3.1679   3.2602   3.6717
     3.7205   4.1578   4.3361   4.8048   4.8805   5.1795   5.7490   5.9097

     occupation numbers 
     1.0000   1.0000   1.0000   1.0000   1.0000   1.0000   1.0000   1.0000
     1.0000   1.0000   1.0000   1.0000   1.0000   1.0000   1.0000   1.0000
     1.0000   1.0000   1.0000   1.0000   1.0000   1.0000   1.0000   1.0000
     1.0000   1.0000   1.0000   1.0000   1.0000   1.0000   1.0000   1.0000
     1.0000   1.0000   1.0000   1.0000   1.0000   1.0000   1.0000   1.0000

          k = 0.1667 1.2691 1.1621 (  4293 PWs)   bands (ev):

   -14.3554 -14.3549 -14.3527 -14.3524 -14.3397 -14.3390 -14.3363 -14.3361
   -14.3307 -14.3306 -14.3271 -14.3267 -14.3052 -14.3048 -14.3004 -14.3002
   -14.2900 -14.2897 -14.2861 -14.2861  -5.2816  -5.2428  -5.2159  -5.1881
     0.1886   0.2830   0.5269   0.5474   2.4895   2.6852   3.0092   3.2339
     3.4469   3.6022   4.0222   4.3159   4.8816   5.0833   5.6796   5.7146

     occupation numbers 
     1.0000   1.0000   1.0000   1.0000   1.0000   1.0000   1.0000   1.0000
     1.0000   1.0000   1.0000   1.0000   1.0000   1.0000   1.0000   1.0000
     1.0000   1.0000   1.0000   1.0000   1.0000   1.0000   1.0000   1.0000
     1.0000   1.0000   1.0000   1.0000   1.0000   1.0000   1.0000   1.0000
     1.0000   1.0000   1.0000   1.0000   1.0000   1.0000   1.0000   1.0000

          k =-0.5000 0.1813 0.1660 (  4306 PWs)   bands (ev):

   -14.3573 -14.3573 -14.3459 -14.3459 -14.3406 -14.3406 -14.3392 -14.3392
   -14.3279 -14.3279 -14.3212 -14.3212 -14.3164 -14.3164 -14.3010 -14.3010
   -14.2928 -14.2928 -14.2866 -14.2866  -6.1988  -6.1988  -5.3271  -5.3271
     0.3299   0.3299   1.7623   1.7623   3.2380   3.2380   4.1513   4.1513
     4.5204   4.5204   5.0423   5.0423   5.3751   5.3751   6.4971   6.4971

     occupation numbers 
     1.0000   1.0000   1.0000   1.0000   1.0000   1.0000   1.0000   1.0000
     1.0000   1.0000   1.0000   1.0000   1.0000   1.0000   1.0000   1.0000
     1.0000   1.0000   1.0000   1.0000   1.0000   1.0000   1.0000   1.0000
     1.0000   1.0000   1.0000   1.0000   1.0000   1.0000   1.0000   1.0000
     1.0000   1.0000   1.0000   1.0000   1.0000   1.0000   1.0000   1.0000

          k =-0.5000 0.1813 0.4980 (  4286 PWs)   bands (ev):

   -14.3566 -14.3566 -14.3462 -14.3462 -14.3408 -14.3408 -14.3399 -14.3399
   -14.3265 -14.3265 -14.3214 -14.3214 -14.3149 -14.3149 -14.3013 -14.3013
   -14.2928 -14.2928 -14.2867 -14.2867  -6.0962  -6.0962  -5.3255  -5.3255
     0.0162   0.0162   1.3227   1.3227   3.4060   3.4060   4.1991   4.1991
     4.8670   4.8670   5.2053   5.2053   5.8711   5.8711   6.3696   6.3696

     occupation numbers 
     1.0000   1.0000   1.0000   1.0000   1.0000   1.0000   1.0000   1.0000
     1.0000   1.0000   1.0000   1.0000   1.0000   1.0000   1.0000   1.0000
     1.0000   1.0000   1.0000   1.0000   1.0000   1.0000   1.0000   1.0000
     1.0000   1.0000   1.0000   1.0000   1.0000   1.0000   1.0000   1.0000
     1.0000   1.0000   1.0000   1.0000   1.0000   1.0000   1.0000   1.0000

          k =-0.5000 0.1813 0.8300 (  4298 PWs)   bands (ev):

   -14.3556 -14.3556 -14.3469 -14.3469 -14.3414 -14.3414 -14.3406 -14.3406
   -14.3245 -14.3245 -14.3220 -14.3220 -14.3127 -14.3127 -14.3018 -14.3018
   -14.2928 -14.2928 -14.2869 -14.2869  -5.9169  -5.9169  -5.3532  -5.3532
    -0.3572  -0.3572   0.7957   0.7957   3.7110   3.7110   4.4721   4.4721
     5.0052   5.0052   5.4620   5.4620   6.0900   6.0900   6.5956   6.5956

     occupation numbers 
     1.0000   1.0000   1.0000   1.0000   1.0000   1.0000   1.0000   1.0000
     1.0000   1.0000   1.0000   1.0000   1.0000   1.0000   1.0000   1.0000
     1.0000   1.0000   1.0000   1.0000   1.0000   1.0000   1.0000   1.0000
     1.0000   1.0000   1.0000   1.0000   1.0000   1.0000   1.0000   1.0000
     1.0000   1.0000   1.0000   1.0000   1.0000   1.0000   1.0000   1.0000

          k =-0.5000 0.1813 1.1621 (  4300 PWs)   bands (ev):

   -14.3546 -14.3546 -14.3476 -14.3476 -14.3419 -14.3419 -14.3410 -14.3410
   -14.3231 -14.3231 -14.3225 -14.3225 -14.3110 -14.3110 -14.3022 -14.3022
   -14.2927 -14.2927 -14.2871 -14.2871  -5.7265  -5.7265  -5.4336  -5.4336
    -0.5799  -0.5799   0.4538   0.4538   4.1213   4.1213   4.7720   4.7720
     4.8396   4.8396   5.2978   5.2978   6.5017   6.5017   6.7692   6.7692

     occupation numbers 
     1.0000   1.0000   1.0000   1.0000   1.0000   1.0000   1.0000   1.0000
     1.0000   1.0000   1.0000   1.0000   1.0000   1.0000   1.0000   1.0000
     1.0000   1.0000   1.0000   1.0000   1.0000   1.0000   1.0000   1.0000
     1.0000   1.0000   1.0000   1.0000   1.0000   1.0000   1.0000   1.0000
     1.0000   1.0000   1.0000   1.0000   1.0000   1.0000   1.0000   1.0000

          k =-0.5000 0.5439 0.1660 (  4316 PWs)   bands (ev):

   -14.3528 -14.3528 -14.3443 -14.3443 -14.3423 -14.3423 -14.3398 -14.3398
   -14.3281 -14.3281 -14.3257 -14.3257 -14.3134 -14.3134 -14.2985 -14.2985
   -14.2951 -14.2951 -14.2865 -14.2865  -6.0537  -6.0537  -5.2756  -5.2756
     0.1351   0.1351   1.2593   1.2593   3.3660   3.3660   4.0113   4.0113
     4.8219   4.8219   4.9904   4.9904   5.6650   5.6650   6.5008   6.5008

     occupation numbers 
     1.0000   1.0000   1.0000   1.0000   1.0000   1.0000   1.0000   1.0000
     1.0000   1.0000   1.0000   1.0000   1.0000   1.0000   1.0000   1.0000
     1.0000   1.0000   1.0000   1.0000   1.0000   1.0000   1.0000   1.0000
     1.0000   1.0000   1.0000   1.0000   1.0000   1.0000   1.0000   1.0000
     1.0000   1.0000   1.0000   1.0000   1.0000   1.0000   1.0000   1.0000

          k =-0.5000 0.5439 0.4980 (  4302 PWs)   bands (ev):

   -14.3525 -14.3525 -14.3453 -14.3453 -14.3425 -14.3425 -14.3399 -14.3399
   -14.3270 -14.3270 -14.3256 -14.3256 -14.3121 -14.3121 -14.2987 -14.2987
   -14.2952 -14.2952 -14.2865 -14.2865  -5.9568  -5.9568  -5.2706  -5.2706
    -0.0109  -0.0109   1.0646   1.0646   3.3424   3.3424   3.8050   3.8050
     4.4491   4.4491   5.5095   5.5095   6.0749   6.0749   6.4662   6.4662

     occupation numbers 
     1.0000   1.0000   1.0000   1.0000   1.0000   1.0000   1.0000   1.0000
     1.0000   1.0000   1.0000   1.0000   1.0000   1.0000   1.0000   1.0000
     1.0000   1.0000   1.0000   1.0000   1.0000   1.0000   1.0000   1.0000
     1.0000   1.0000   1.0000   1.0000   1.0000   1.0000   1.0000   1.0000
     1.0000   1.0000   1.0000   1.0000   1.0000   1.0000   1.0000   1.0000

          k =-0.5000 0.5439 0.8300 (  4304 PWs)   bands (ev):

   -14.3518 -14.3518 -14.3471 -14.3471 -14.3430 -14.3430 -14.3400 -14.3400
   -14.3263 -14.3263 -14.3250 -14.3250 -14.3101 -14.3101 -14.2991 -14.2991
   -14.2951 -14.2951 -14.2866 -14.2866  -5.7893  -5.7893  -5.2894  -5.2894
    -0.2385  -0.2385   0.7774   0.7774   3.3422   3.3422   3.9724   3.9724
     4.3307   4.3307   5.5229   5.5229   5.9441   5.9441   6.4317   6.4317

     occupation numbers 
     1.0000   1.0000   1.0000   1.0000   1.0000   1.0000   1.0000   1.0000
     1.0000   1.0000   1.0000   1.0000   1.0000   1.0000   1.0000   1.0000
     1.0000   1.0000   1.0000   1.0000   1.0000   1.0000   1.0000   1.0000
     1.0000   1.0000   1.0000   1.0000   1.0000   1.0000   1.0000   1.0000
     1.0000   1.0000   1.0000   1.0000   1.0000   1.0000   1.0000   1.0000

          k =-0.5000 0.5439 1.1621 (  4306 PWs)   bands (ev):

   -14.3508 -14.3508 -14.3490 -14.3490 -14.3434 -14.3434 -14.3401 -14.3401
   -14.3265 -14.3265 -14.3239 -14.3239 -14.3085 -14.3085 -14.2993 -14.2993
   -14.2951 -14.2951 -14.2866 -14.2866  -5.6146  -5.6146  -5.3557  -5.3557
    -0.4019  -0.4019   0.5607   0.5607   3.5764   3.5764   3.9356   3.9356
     4.5957   4.5957   5.0914   5.0914   5.7679   5.7679   6.2374   6.2374

     occupation numbers 
     1.0000   1.0000   1.0000   1.0000   1.0000   1.0000   1.0000   1.0000
     1.0000   1.0000   1.0000   1.0000   1.0000   1.0000   1.0000   1.0000
     1.0000   1.0000   1.0000   1.0000   1.0000   1.0000   1.0000   1.0000
     1.0000   1.0000   1.0000   1.0000   1.0000   1.0000   1.0000   1.0000
     1.0000   1.0000   1.0000   1.0000   1.0000   1.0000   1.0000   1.0000

          k =-0.5000 0.9065 0.1660 (  4338 PWs)   bands (ev):

   -14.3488 -14.3488 -14.3450 -14.3450 -14.3426 -14.3426 -14.3379 -14.3379
   -14.3301 -14.3301 -14.3285 -14.3285 -14.3104 -14.3104 -14.3000 -14.3000
   -14.2937 -14.2937 -14.2859 -14.2859  -5.7984  -5.7984  -5.2338  -5.2338
    -0.1444  -0.1444   0.5700   0.5700   3.6572   3.6572   4.1858   4.1858
     4.9891   4.9891   5.2009   5.2009   5.7309   5.7309   6.4002   6.4002

     occupation numbers 
     1.0000   1.0000   1.0000   1.0000   1.0000   1.0000   1.0000   1.0000
     1.0000   1.0000   1.0000   1.0000   1.0000   1.0000   1.0000   1.0000
     1.0000   1.0000   1.0000   1.0000   1.0000   1.0000   1.0000   1.0000
     1.0000   1.0000   1.0000   1.0000   1.0000   1.0000   1.0000   1.0000
     1.0000   1.0000   1.0000   1.0000   1.0000   1.0000   1.0000   1.0000

          k =-0.5000 0.9065 0.4980 (  4316 PWs)   bands (ev):

   -14.3500 -14.3500 -14.3460 -14.3460 -14.3429 -14.3429 -14.3375 -14.3375
   -14.3297 -14.3297 -14.3279 -14.3279 -14.3092 -14.3092 -14.2996 -14.2996
   -14.2939 -14.2939 -14.2859 -14.2859  -5.7146  -5.7146  -5.2189  -5.2189
    -0.0948  -0.0948   0.5843   0.5843   3.2488   3.2488   3.9346   3.9346
     4.3966   4.3966   5.4507   5.4507   5.6353   5.6353   6.2999   6.2999

     occupation numbers 
     1.0000   1.0000   1.0000   1.0000   1.0000   1.0000   1.0000   1.0000
     1.0000   1.0000   1.0000   1.0000   1.0000   1.0000   1.0000   1.0000
     1.0000   1.0000   1.0000   1.0000   1.0000   1.0000   1.0000   1.0000
     1.0000   1.0000   1.0000   1.0000   1.0000   1.0000   1.0000   1.0000
     1.0000   1.0000   1.0000   1.0000   1.0000   1.0000   1.0000   1.0000

          k =-0.5000 0.9065 0.8300 (  4302 PWs)   bands (ev):

   -14.3517 -14.3517 -14.3476 -14.3476 -14.3434 -14.3434 -14.3373 -14.3373
   -14.3294 -14.3294 -14.3268 -14.3268 -14.3074 -14.3074 -14.2990 -14.2990
   -14.2943 -14.2943 -14.2859 -14.2859  -5.5738  -5.5738  -5.2152  -5.2152
    -0.0684  -0.0684   0.6132   0.6132   2.8851   2.8851   3.6070   3.6070
     4.2827   4.2827   4.9177   4.9177   5.3839   5.3839   6.0736   6.0736

     occupation numbers 
     1.0000   1.0000   1.0000   1.0000   1.0000   1.0000   1.0000   1.0000
     1.0000   1.0000   1.0000   1.0000   1.0000   1.0000   1.0000   1.0000
     1.0000   1.0000   1.0000   1.0000   1.0000   1.0000   1.0000   1.0000
     1.0000   1.0000   1.0000   1.0000   1.0000   1.0000   1.0000   1.0000
     1.0000   1.0000   1.0000   1.0000   1.0000   1.0000   1.0000   1.0000

          k =-0.5000 0.9065 1.1621 (  4306 PWs)   bands (ev):

   -14.3529 -14.3529 -14.3488 -14.3488 -14.3437 -14.3437 -14.3372 -14.3372
   -14.3294 -14.3294 -14.3259 -14.3259 -14.3059 -14.3059 -14.2985 -14.2985
   -14.2945 -14.2945 -14.2859 -14.2859  -5.4339  -5.4339  -5.2491  -5.2491
    -0.0940  -0.0940   0.6462   0.6462   2.8911   2.8911   3.2198   3.2198
     4.2645   4.2645   4.6006   4.6006   5.2509   5.2509   5.7085   5.7085

     occupation numbers 
     1.0000   1.0000   1.0000   1.0000   1.0000   1.0000   1.0000   1.0000
     1.0000   1.0000   1.0000   1.0000   1.0000   1.0000   1.0000   1.0000
     1.0000   1.0000   1.0000   1.0000   1.0000   1.0000   1.0000   1.0000
     1.0000   1.0000   1.0000   1.0000   1.0000   1.0000   1.0000   1.0000
     1.0000   1.0000   1.0000   1.0000   1.0000   1.0000   1.0000   1.0000

          k =-0.5000 1.2691 0.1660 (  4318 PWs)   bands (ev):

   -14.3487 -14.3487 -14.3475 -14.3475 -14.3384 -14.3384 -14.3368 -14.3368
   -14.3313 -14.3313 -14.3300 -14.3300 -14.3075 -14.3075 -14.3042 -14.3042
   -14.2892 -14.2892 -14.2863 -14.2863  -5.5099  -5.5099  -5.2980  -5.2980
    -0.2496  -0.2496   0.0017   0.0017   4.1296   4.1296   4.4697   4.4697
     4.9465   4.9465   5.1519   5.1519   5.8416   5.8416   6.1380   6.1380

     occupation numbers 
     1.0000   1.0000   1.0000   1.0000   1.0000   1.0000   1.0000   1.0000
     1.0000   1.0000   1.0000   1.0000   1.0000   1.0000   1.0000   1.0000
     1.0000   1.0000   1.0000   1.0000   1.0000   1.0000   1.0000   1.0000
     1.0000   1.0000   1.0000   1.0000   1.0000   1.0000   1.0000   1.0000
     1.0000   1.0000   1.0000   1.0000   1.0000   1.0000   1.0000   1.0000

          k =-0.5000 1.2691 0.4980 (  4328 PWs)   bands (ev):

   -14.3505 -14.3505 -14.3491 -14.3491 -14.3387 -14.3387 -14.3367 -14.3367
   -14.3305 -14.3305 -14.3294 -14.3294 -14.3065 -14.3065 -14.3035 -14.3035
   -14.2893 -14.2893 -14.2864 -14.2864  -5.4481  -5.4481  -5.2628  -5.2628
    -0.1136  -0.1136   0.1191   0.1191   3.5415   3.5415   4.0258   4.0258
     4.5389   4.5389   4.9763   4.9763   5.4467   5.4467   5.8719   5.8719

     occupation numbers 
     1.0000   1.0000   1.0000   1.0000   1.0000   1.0000   1.0000   1.0000
     1.0000   1.0000   1.0000   1.0000   1.0000   1.0000   1.0000   1.0000
     1.0000   1.0000   1.0000   1.0000   1.0000   1.0000   1.0000   1.0000
     1.0000   1.0000   1.0000   1.0000   1.0000   1.0000   1.0000   1.0000
     1.0000   1.0000   1.0000   1.0000   1.0000   1.0000   1.0000   1.0000

          k =-0.5000 1.2691 0.8300 (  4312 PWs)   bands (ev):

   -14.3529 -14.3529 -14.3513 -14.3513 -14.3393 -14.3393 -14.3368 -14.3368
   -14.3296 -14.3296 -14.3285 -14.3285 -14.3050 -14.3050 -14.3024 -14.3024
   -14.2894 -14.2894 -14.2864 -14.2864  -5.3510  -5.3510  -5.2177  -5.2177
     0.0948   0.0948   0.3230   0.3230   2.9531   2.9531   3.4442   3.4442
     3.9895   3.9895   4.4353   4.4353   5.2829   5.2829   5.6480   5.6480

     occupation numbers 
     1.0000   1.0000   1.0000   1.0000   1.0000   1.0000   1.0000   1.0000
     1.0000   1.0000   1.0000   1.0000   1.0000   1.0000   1.0000   1.0000
     1.0000   1.0000   1.0000   1.0000   1.0000   1.0000   1.0000   1.0000
     1.0000   1.0000   1.0000   1.0000   1.0000   1.0000   1.0000   1.0000
     1.0000   1.0000   1.0000   1.0000   1.0000   1.0000   1.0000   1.0000

          k =-0.5000 1.2691 1.1621 (  4294 PWs)   bands (ev):

   -14.3546 -14.3546 -14.3529 -14.3529 -14.3397 -14.3397 -14.3370 -14.3370
   -14.3291 -14.3291 -14.3278 -14.3278 -14.3038 -14.3038 -14.3015 -14.3015
   -14.2894 -14.2894 -14.2864 -14.2864  -5.2663  -5.2663  -5.1979  -5.1979
     0.2429   0.2429   0.5223   0.5223   2.7226   2.7226   2.9724   2.9724
     3.5922   3.5922   3.9210   3.9210   5.3815   5.3815   5.5594   5.5594

     occupation numbers 
     1.0000   1.0000   1.0000   1.0000   1.0000   1.0000   1.0000   1.0000
     1.0000   1.0000   1.0000   1.0000   1.0000   1.0000   1.0000   1.0000
     1.0000   1.0000   1.0000   1.0000   1.0000   1.0000   1.0000   1.0000
     1.0000   1.0000   1.0000   1.0000   1.0000   1.0000   1.0000   1.0000
     1.0000   1.0000   1.0000   1.0000   1.0000   1.0000   1.0000   1.0000

     highest occupied level (ev):     6.8138

!    total energy              =    -827.73150918 Ry
     estimated scf accuracy    <          1.7E-09 Ry

     The total energy is the sum of the following terms:
     one-electron contribution =    -276.69243719 Ry
     hartree contribution      =     185.85190584 Ry
     xc contribution           =    -308.81472526 Ry
     ewald contribution        =    -427.95958909 Ry
     DFT-D3 Dispersion         =      -0.11666349 Ry

     convergence has been achieved in  12 iterations

     Forces acting on atoms (cartesian axes, Ry/au):

     atom    1 type  2   force =    -0.01001284    0.00000000   -0.00012050
     atom    2 type  1   force =     0.01147274   -0.00000000    0.00232319
     atom    3 type  2   force =     0.01001284    0.00000000   -0.00012050
     atom    4 type  1   force =    -0.01147274   -0.00000000    0.00232319
     atom    5 type  2   force =    -0.01001284    0.00000000    0.00012050
     atom    6 type  1   force =     0.01147274   -0.00000000   -0.00232319
     atom    7 type  2   force =     0.01001284   -0.00000000    0.00012050
     atom    8 type  1   force =    -0.01147274    0.00000000   -0.00232319
     The non-local contrib.  to forces
     atom    1 type  2   force =    -0.09135943    0.00000000    0.11834218
     atom    2 type  1   force =     0.33250073    0.00000000    0.30226581
     atom    3 type  2   force =     0.09135943    0.00000000    0.11834218
     atom    4 type  1   force =    -0.33250073    0.00000000    0.30226581
     atom    5 type  2   force =    -0.09135943    0.00000000   -0.11834218
     atom    6 type  1   force =     0.33250073    0.00000000   -0.30226581
     atom    7 type  2   force =     0.09135943    0.00000000   -0.11834218
     atom    8 type  1   force =    -0.33250073    0.00000000   -0.30226581
     The ionic contribution  to forces
     atom    1 type  2   force =     0.83145889   -0.00000000   -1.46447513
     atom    2 type  1   force =    -0.56540279   -0.00000000   -0.94227006
     atom    3 type  2   force =    -0.83145889    0.00000000   -1.46447513
     atom    4 type  1   force =     0.56540279   -0.00000000   -0.94227006
     atom    5 type  2   force =     0.83145889    0.00000000    1.46447513
     atom    6 type  1   force =    -0.56540279   -0.00000000    0.94227006
     atom    7 type  2   force =    -0.83145889   -0.00000000    1.46447513
     atom    8 type  1   force =     0.56540279   -0.00000000    0.94227006
     The local contribution  to forces
     atom    1 type  2   force =    -0.76062797    0.00000000    1.35703665
     atom    2 type  1   force =     0.25197535   -0.00000000    0.64533342
     atom    3 type  2   force =     0.76062797    0.00000000    1.35703665
     atom    4 type  1   force =    -0.25197535    0.00000000    0.64533342
     atom    5 type  2   force =    -0.76062797    0.00000000   -1.35703665
     atom    6 type  1   force =     0.25197535   -0.00000000   -0.64533342
     atom    7 type  2   force =     0.76062797    0.00000000   -1.35703665
     atom    8 type  1   force =    -0.25197535    0.00000000   -0.64533342
     The core correction contribution to forces
     atom    1 type  2   force =     0.01070694    0.00000000   -0.01325638
     atom    2 type  1   force =    -0.00771662   -0.00000000   -0.00457803
     atom    3 type  2   force =    -0.01070694   -0.00000000   -0.01325638
     atom    4 type  1   force =     0.00771662    0.00000000   -0.00457803
     atom    5 type  2   force =     0.01070694   -0.00000000    0.01325638
     atom    6 type  1   force =    -0.00771662    0.00000000    0.00457803
     atom    7 type  2   force =    -0.01070694   -0.00000000    0.01325638
     atom    8 type  1   force =     0.00771662    0.00000000    0.00457803
     The Hubbard contrib.    to forces
     atom    1 type  2   force =     0.00000000    0.00000000    0.00000000
     atom    2 type  1   force =     0.00000000    0.00000000    0.00000000
     atom    3 type  2   force =     0.00000000    0.00000000    0.00000000
     atom    4 type  1   force =     0.00000000    0.00000000    0.00000000
     atom    5 type  2   force =     0.00000000    0.00000000    0.00000000
     atom    6 type  1   force =     0.00000000    0.00000000    0.00000000
     atom    7 type  2   force =     0.00000000    0.00000000    0.00000000
     atom    8 type  1   force =     0.00000000    0.00000000    0.00000000
     The SCF correction term to forces
     atom    1 type  2   force =    -0.00000060   -0.00000000   -0.00000185
     atom    2 type  1   force =     0.00002459   -0.00000000    0.00001563
     atom    3 type  2   force =     0.00000060    0.00000000   -0.00000185
     atom    4 type  1   force =    -0.00002459    0.00000000    0.00001563
     atom    5 type  2   force =    -0.00000060    0.00000000    0.00000185
     atom    6 type  1   force =     0.00002459   -0.00000000   -0.00001563
     atom    7 type  2   force =     0.00000060   -0.00000000    0.00000185
     atom    8 type  1   force =    -0.00002459    0.00000000   -0.00001563

     DFT-D3 dispersion contribution to forces:
     atom    1 type  2   force =    -0.00019068   -0.00000000    0.00223402
     atom    2 type  1   force =     0.00009148    0.00000000    0.00155641
     atom    3 type  2   force =     0.00019068   -0.00000000    0.00223402
     atom    4 type  1   force =    -0.00009148    0.00000000    0.00155641
     atom    5 type  2   force =    -0.00019068   -0.00000000   -0.00223402
     atom    6 type  1   force =     0.00009148    0.00000000   -0.00155641
     atom    7 type  2   force =     0.00019068    0.00000000   -0.00223402
     atom    8 type  1   force =    -0.00009148   -0.00000000   -0.00155641

     Total force =     0.030809     Total SCF correction =     0.000058

     DFT-D3 dispersion Force =     0.005462

     Writing all to output data dir ./tmp/SnSe_pnma.save/ :
     XML data file, charge density, pseudopotentials, collected wavefunctions
 
     init_run     :      1.19s CPU      1.35s WALL (       1 calls)
     electrons    :     25.54s CPU     27.64s WALL (       1 calls)
     forces       :      0.50s CPU      0.57s WALL (       1 calls)
     force_dftd3  :      0.04s CPU      0.05s WALL (       1 calls)

     Called by init_run:
     wfcinit      :      0.68s CPU      0.73s WALL (       1 calls)
     wfcinit:atom :      0.01s CPU      0.01s WALL (      11 calls)
     wfcinit:wfcr :      0.61s CPU      0.64s WALL (      11 calls)
     potinit      :      0.09s CPU      0.11s WALL (       1 calls)
     hinit0       :      0.19s CPU      0.20s WALL (       1 calls)

     Called by electrons:
     c_bands      :     18.63s CPU     19.00s WALL (      12 calls)
     sum_band     :      4.48s CPU      5.31s WALL (      12 calls)
     v_of_rho     :      0.80s CPU      0.83s WALL (      13 calls)
     v_h          :      0.05s CPU      0.05s WALL (      13 calls)
     v_xc         :      0.80s CPU      0.84s WALL (      14 calls)
     newd         :      1.67s CPU      2.57s WALL (      13 calls)
     mix_rho      :      0.09s CPU      0.09s WALL (      12 calls)
     energy_dftd3 :      0.05s CPU      0.05s WALL (       1 calls)

     Called by c_bands:
     init_us_2    :      0.57s CPU      0.60s WALL (     286 calls)
     cegterg      :     16.17s CPU     16.44s WALL (     132 calls)

     Called by sum_band:
     sum_band:wei :      0.00s CPU      0.00s WALL (      12 calls)
     sum_band:loo :      2.53s CPU      2.56s WALL (      12 calls)
     sum_band:buf :      0.04s CPU      0.04s WALL (     132 calls)
     sum_band:ini :      0.26s CPU      0.26s WALL (     132 calls)
     sum_band:cal :      0.38s CPU      0.39s WALL (     132 calls)
     sum_band:bec :      0.01s CPU      0.01s WALL (     132 calls)
     addusdens    :      1.65s CPU      2.37s WALL (      12 calls)
                                        0.00s GPU  (      12 calls)
     addusd:skk   :      0.01s CPU      0.01s WALL (      24 calls)
                                        0.00s GPU  (      24 calls)

     Called by *egterg:
     cdiaghg      :      0.95s CPU      0.95s WALL (     602 calls)
     cegterg:over :      0.94s CPU      0.95s WALL (     470 calls)
     cegterg:upda :      0.51s CPU      0.51s WALL (     470 calls)
     cegterg:last :      1.18s CPU      1.19s WALL (     313 calls)
     h_psi        :     11.31s CPU     11.55s WALL (     613 calls)
     s_psi        :      1.23s CPU      1.23s WALL (     613 calls)
     g_psi        :      0.05s CPU      0.05s WALL (     470 calls)

     Called by h_psi:
     h_psi:calbec :      1.25s CPU      1.26s WALL (     613 calls)
     vloc_psi     :      8.68s CPU      8.89s WALL (     613 calls)
     add_vuspsi   :      1.28s CPU      1.29s WALL (     613 calls)

     General routines
     calbec       :      1.75s CPU      1.78s WALL (     789 calls)
     fft          :      0.36s CPU      0.38s WALL (     178 calls)
     ffts         :      0.01s CPU      0.01s WALL (      25 calls)
     fftw         :      7.20s CPU      7.37s WALL (   36170 calls)
     interpolate  :      0.04s CPU      0.04s WALL (      13 calls)
 
     Parallel routines
 
     PWSCF        :     27.42s CPU     30.18s WALL

 
   This run was terminated on:  21:24:44  19May2026            

=------------------------------------------------------------------------------=
   JOB DONE.
=------------------------------------------------------------------------------=
