
     Program PWSCF v.7.3.1 starts on 20May2026 at 14:56:44 

     This program is part of the open-source Quantum ESPRESSO suite
     for quantum simulation of materials; please cite
         "P. Giannozzi et al., J. Phys.:Condens. Matter 21 395502 (2009);
         "P. Giannozzi et al., J. Phys.:Condens. Matter 29 465901 (2017);
         "P. Giannozzi et al., J. Chem. Phys. 152 154105 (2020);
          URL http://www.quantum-espresso.org", 
     in publications or presentations arising from this work. More details at
     http://www.quantum-espresso.org/quote

     Parallel version (MPI & OpenMP), running on       6 processor cores
     Number of MPI processes:                 6
     Threads/MPI process:                     1

     MPI processes distributed on     1 nodes
     10806 MiB available memory on the printing compute node when the environment starts
 
     Waiting for input...
     Reading input from standard input

     Current dimensions of program PWSCF are:
     Max number of different atomic species (ntypx) = 10
     Max number of k-points (npk) =  40000
     Max angular momentum in pseudopotentials (lmaxx) =  4
 
     K-points division:     npool     =       3
     R & G space division:  proc/nbgrp/npool/nimage =       2
     Subspace diagonalization in iterative solution of the eigenvalue problem:
     a serial algorithm will be used

 
     Parallelization info
     --------------------
     sticks:   dense  smooth     PW     G-vecs:    dense   smooth      PW
     Min        1987     791    237                62968    15890    2563
     Max        1988     792    238                62969    15891    2564
     Sum        3975    1583    475               125937    31781    5127
 
     Using Slab Decomposition
 


     bravais-lattice index     =            8
     lattice parameter (alat)  =      21.1271  a.u.
     unit-cell volume          =    1433.6934 (a.u.)^3
     number of atoms/cell      =            8
     number of atomic types    =            2
     number of electrons       =        80.00
     number of Kohn-Sham states=           40
     kinetic-energy cutoff     =      30.0000  Ry
     charge density cutoff     =     300.0000  Ry
     scf convergence threshold =      1.0E-08
     mixing beta               =       0.7000
     number of iterations used =            8  plain     mixing
     Exchange-correlation= SLA  PW   PBE  PBE
                           (   1   4   3   4   0   0   0)

     celldm(1)=  21.127138  celldm(2)=   0.373113  celldm(3)=   0.407469
     celldm(4)=   0.000000  celldm(5)=   0.000000  celldm(6)=   0.000000

     crystal axes: (cart. coord. in units of alat)
               a(1) = (   1.000000   0.000000   0.000000 )  
               a(2) = (   0.000000   0.373113   0.000000 )  
               a(3) = (   0.000000   0.000000   0.407469 )  

     reciprocal axes: (cart. coord. in units 2 pi/alat)
               b(1) = (  1.000000  0.000000  0.000000 )  
               b(2) = (  0.000000  2.680155  0.000000 )  
               b(3) = (  0.000000  0.000000  2.454176 )  


     PseudoPot. # 1 for Sn read from file:
     ../pseudo/Sn_pbe_v1.uspp.F.UPF
     MD5 check sum: 4cf58ce39ec5d5d420df3dd08604eb00
     Pseudo is Ultrasoft + core correction, Zval = 14.0
     Generated by new atomic code, or converted to UPF format
     Using radial grid of  891 points,  6 beta functions with: 
                l(1) =   0
                l(2) =   0
                l(3) =   1
                l(4) =   1
                l(5) =   2
                l(6) =   2
     Q(r) pseudized with  6 coefficients,  rinner =    1.200   1.200   1.200
                                                       1.200   1.200

     PseudoPot. # 2 for Se read from file:
     ../pseudo/Se_pbe_v1.uspp.F.UPF
     MD5 check sum: 1b3568f3a8ae88f9a2a0ad0698632c85
     Pseudo is Ultrasoft + core correction, Zval =  6.0
     Generated by new atomic code, or converted to UPF format
     Using radial grid of  877 points,  6 beta functions with: 
                l(1) =   0
                l(2) =   0
                l(3) =   1
                l(4) =   1
                l(5) =   2
                l(6) =   2
     Q(r) pseudized with  8 coefficients,  rinner =    1.300   1.300   1.300
                                                       1.300   1.300

     atomic species   valence    mass     pseudopotential
     Sn               14.00   118.71000     Sn( 1.00)
     Se                6.00    78.97100     Se( 1.00)

      8 Sym. Ops., with inversion, found ( 6 have fractional translation)


                                    s                        frac. trans.

      isym =  1     identity                                     

 cryst.   s( 1) = (     1          0          0      )
                  (     0          1          0      )
                  (     0          0          1      )

 cart.    s( 1) = (  1.0000000  0.0000000  0.0000000 )
                  (  0.0000000  1.0000000  0.0000000 )
                  (  0.0000000  0.0000000  1.0000000 )


      isym =  2     180 deg rotation - cart. axis [0,0,1]        

 cryst.   s( 2) = (    -1          0          0      )    f =(  0.5000000 )
                  (     0         -1          0      )       (  0.0000000 )
                  (     0          0          1      )       (  0.5000000 )

 cart.    s( 2) = ( -1.0000000  0.0000000  0.0000000 )    f =(  0.5000000 )
                  (  0.0000000 -1.0000000  0.0000000 )       (  0.0000000 )
                  (  0.0000000  0.0000000  1.0000000 )       (  0.2037343 )


      isym =  3     180 deg rotation - cart. axis [0,1,0]        

 cryst.   s( 3) = (    -1          0          0      )    f =(  0.0000000 )
                  (     0          1          0      )       (  0.5000000 )
                  (     0          0         -1      )       (  0.0000000 )

 cart.    s( 3) = ( -1.0000000  0.0000000  0.0000000 )    f =(  0.0000000 )
                  (  0.0000000  1.0000000  0.0000000 )       (  0.1865564 )
                  (  0.0000000  0.0000000 -1.0000000 )       (  0.0000000 )


      isym =  4     180 deg rotation - cart. axis [1,0,0]        

 cryst.   s( 4) = (     1          0          0      )    f =(  0.5000000 )
                  (     0         -1          0      )       ( -0.5000000 )
                  (     0          0         -1      )       ( -0.5000000 )

 cart.    s( 4) = (  1.0000000  0.0000000  0.0000000 )    f =(  0.5000000 )
                  (  0.0000000 -1.0000000  0.0000000 )       ( -0.1865564 )
                  (  0.0000000  0.0000000 -1.0000000 )       ( -0.2037343 )


      isym =  5     inversion                                    

 cryst.   s( 5) = (    -1          0          0      )
                  (     0         -1          0      )
                  (     0          0         -1      )

 cart.    s( 5) = ( -1.0000000  0.0000000  0.0000000 )
                  (  0.0000000 -1.0000000  0.0000000 )
                  (  0.0000000  0.0000000 -1.0000000 )


      isym =  6     inv. 180 deg rotation - cart. axis [0,0,1]   

 cryst.   s( 6) = (     1          0          0      )    f =(  0.5000000 )
                  (     0          1          0      )       (  0.0000000 )
                  (     0          0         -1      )       ( -0.5000000 )

 cart.    s( 6) = (  1.0000000  0.0000000  0.0000000 )    f =(  0.5000000 )
                  (  0.0000000  1.0000000  0.0000000 )       (  0.0000000 )
                  (  0.0000000  0.0000000 -1.0000000 )       ( -0.2037343 )


      isym =  7     inv. 180 deg rotation - cart. axis [0,1,0]   

 cryst.   s( 7) = (     1          0          0      )    f =(  0.0000000 )
                  (     0         -1          0      )       ( -0.5000000 )
                  (     0          0          1      )       (  0.0000000 )

 cart.    s( 7) = (  1.0000000  0.0000000  0.0000000 )    f =(  0.0000000 )
                  (  0.0000000 -1.0000000  0.0000000 )       ( -0.1865564 )
                  (  0.0000000  0.0000000  1.0000000 )       (  0.0000000 )


      isym =  8     inv. 180 deg rotation - cart. axis [1,0,0]   

 cryst.   s( 8) = (    -1          0          0      )    f =(  0.5000000 )
                  (     0          1          0      )       (  0.5000000 )
                  (     0          0          1      )       (  0.5000000 )

 cart.    s( 8) = ( -1.0000000  0.0000000  0.0000000 )    f =(  0.5000000 )
                  (  0.0000000  1.0000000  0.0000000 )       (  0.1865564 )
                  (  0.0000000  0.0000000  1.0000000 )       (  0.2037343 )


     point group D_2h (mmm) 
     there are  8 classes
     the character table:

       E     C2    C2'   C2''  i     s_v   s_v'  s_v''
A_g    1.00  1.00  1.00  1.00  1.00  1.00  1.00  1.00
B_1g   1.00  1.00 -1.00 -1.00  1.00  1.00 -1.00 -1.00
B_2g   1.00 -1.00  1.00 -1.00  1.00 -1.00  1.00 -1.00
B_3g   1.00 -1.00 -1.00  1.00  1.00 -1.00 -1.00  1.00
A_u    1.00  1.00  1.00  1.00 -1.00 -1.00 -1.00 -1.00
B_1u   1.00  1.00 -1.00 -1.00 -1.00 -1.00  1.00  1.00
B_2u   1.00 -1.00  1.00 -1.00 -1.00  1.00 -1.00  1.00
B_3u   1.00 -1.00 -1.00  1.00 -1.00  1.00  1.00 -1.00

     the symmetry operations in each class and the name of the first element:

     E        1
          identity                                               
     C2       2
          180 deg rotation - cart. axis [0,0,1]                  
     C2'      4
          180 deg rotation - cart. axis [1,0,0]                  
     C2''     3
          180 deg rotation - cart. axis [0,1,0]                  
     i        5
          inversion                                              
     s_v      6
          inv. 180 deg rotation - cart. axis [0,0,1]             
     s_v'     8
          inv. 180 deg rotation - cart. axis [1,0,0]             
     s_v''    7
          inv. 180 deg rotation - cart. axis [0,1,0]             

   Cartesian axes

     site n.     atom                  positions (alat units)
         1        Se     tau(   1) = (   0.8549563   0.0932782   0.1969085  )
         2        Sn     tau(   2) = (   0.1165395   0.0932782   0.0457534  )
         3        Se     tau(   3) = (   0.6450437   0.2798345   0.4006428  )
         4        Sn     tau(   4) = (   0.3834605   0.2798345   0.2494878  )
         5        Se     tau(   5) = (   0.3549563   0.0932782   0.0068259  )
         6        Sn     tau(   6) = (   0.6165395   0.0932782   0.1579809  )
         7        Se     tau(   7) = (   0.1450437   0.2798345   0.2105602  )
         8        Sn     tau(   8) = (   0.8834605   0.2798345   0.3617152  )

     --------------------------------------------
     DFT-D3 Dispersion Correction (3-body terms):
     --------------------------------------------
       Reference C6 values for interpolation: 

         atom   Coordination number   C6
         Se         0.000           427.35
         Se         0.990           427.57
         Se         1.981           421.05
         Sn         0.000          1255.14
         Sn         0.951          1084.09
         Sn         1.950          1010.83
         Sn         2.926           818.29
         Sn         3.912           672.20

       Values used:

         atom   Coordination number  R0_AB[au]  C6      C8
         Se         3.550            3.332    421.05  29958.36
         Sn         4.370            3.957    672.28  84378.50
         Se         3.550            3.332    421.05  29958.36
         Sn         4.370            3.957    672.28  84378.50
         Se         3.550            3.332    421.05  29958.36
         Sn         4.370            3.957    672.28  84378.50
         Se         3.550            3.332    421.05  29958.36
         Sn         4.370            3.957    672.28  84378.50

         Molecular C6 ( Ry / a.u.^6 ) =     34498.36


   Crystallographic axes

     site n.     atom                  positions (cryst. coord.)
         1        Se     tau(   1) = (  0.8549563  0.2500000  0.4832481  )
         2        Sn     tau(   2) = (  0.1165395  0.2500000  0.1122870  )
         3        Se     tau(   3) = (  0.6450437  0.7500000  0.9832481  )
         4        Sn     tau(   4) = (  0.3834605  0.7500000  0.6122870  )
         5        Se     tau(   5) = (  0.3549563  0.2500000  0.0167519  )
         6        Sn     tau(   6) = (  0.6165395  0.2500000  0.3877130  )
         7        Se     tau(   7) = (  0.1450437  0.7500000  0.5167519  )
         8        Sn     tau(   8) = (  0.8834605  0.7500000  0.8877130  )

     number of k points=    32
                       cart. coord. in units 2pi/alat
        k(    1) = (   0.1666667   0.1675097   0.1533860), wk =   0.0833333
        k(    2) = (   0.1666667   0.1675097   0.4601581), wk =   0.0833333
        k(    3) = (   0.1666667   0.1675097   0.7669301), wk =   0.0833333
        k(    4) = (   0.1666667   0.1675097   1.0737021), wk =   0.0833333
        k(    5) = (   0.1666667   0.5025291   0.1533860), wk =   0.0833333
        k(    6) = (   0.1666667   0.5025291   0.4601581), wk =   0.0833333
        k(    7) = (   0.1666667   0.5025291   0.7669301), wk =   0.0833333
        k(    8) = (   0.1666667   0.5025291   1.0737021), wk =   0.0833333
        k(    9) = (   0.1666667   0.8375485   0.1533860), wk =   0.0833333
        k(   10) = (   0.1666667   0.8375485   0.4601581), wk =   0.0833333
        k(   11) = (   0.1666667   0.8375485   0.7669301), wk =   0.0833333
        k(   12) = (   0.1666667   0.8375485   1.0737021), wk =   0.0833333
        k(   13) = (   0.1666667   1.1725680   0.1533860), wk =   0.0833333
        k(   14) = (   0.1666667   1.1725680   0.4601581), wk =   0.0833333
        k(   15) = (   0.1666667   1.1725680   0.7669301), wk =   0.0833333
        k(   16) = (   0.1666667   1.1725680   1.0737021), wk =   0.0833333
        k(   17) = (  -0.5000000   0.1675097   0.1533860), wk =   0.0416667
        k(   18) = (  -0.5000000   0.1675097   0.4601581), wk =   0.0416667
        k(   19) = (  -0.5000000   0.1675097   0.7669301), wk =   0.0416667
        k(   20) = (  -0.5000000   0.1675097   1.0737021), wk =   0.0416667
        k(   21) = (  -0.5000000   0.5025291   0.1533860), wk =   0.0416667
        k(   22) = (  -0.5000000   0.5025291   0.4601581), wk =   0.0416667
        k(   23) = (  -0.5000000   0.5025291   0.7669301), wk =   0.0416667
        k(   24) = (  -0.5000000   0.5025291   1.0737021), wk =   0.0416667
        k(   25) = (  -0.5000000   0.8375485   0.1533860), wk =   0.0416667
        k(   26) = (  -0.5000000   0.8375485   0.4601581), wk =   0.0416667
        k(   27) = (  -0.5000000   0.8375485   0.7669301), wk =   0.0416667
        k(   28) = (  -0.5000000   0.8375485   1.0737021), wk =   0.0416667
        k(   29) = (  -0.5000000   1.1725680   0.1533860), wk =   0.0416667
        k(   30) = (  -0.5000000   1.1725680   0.4601581), wk =   0.0416667
        k(   31) = (  -0.5000000   1.1725680   0.7669301), wk =   0.0416667
        k(   32) = (  -0.5000000   1.1725680   1.0737021), wk =   0.0416667

                       cryst. coord.
        k(    1) = (   0.1666667   0.0625000   0.0625000), wk =   0.0833333
        k(    2) = (   0.1666667   0.0625000   0.1875000), wk =   0.0833333
        k(    3) = (   0.1666667   0.0625000   0.3125000), wk =   0.0833333
        k(    4) = (   0.1666667   0.0625000   0.4375000), wk =   0.0833333
        k(    5) = (   0.1666667   0.1875000   0.0625000), wk =   0.0833333
        k(    6) = (   0.1666667   0.1875000   0.1875000), wk =   0.0833333
        k(    7) = (   0.1666667   0.1875000   0.3125000), wk =   0.0833333
        k(    8) = (   0.1666667   0.1875000   0.4375000), wk =   0.0833333
        k(    9) = (   0.1666667   0.3125000   0.0625000), wk =   0.0833333
        k(   10) = (   0.1666667   0.3125000   0.1875000), wk =   0.0833333
        k(   11) = (   0.1666667   0.3125000   0.3125000), wk =   0.0833333
        k(   12) = (   0.1666667   0.3125000   0.4375000), wk =   0.0833333
        k(   13) = (   0.1666667   0.4375000   0.0625000), wk =   0.0833333
        k(   14) = (   0.1666667   0.4375000   0.1875000), wk =   0.0833333
        k(   15) = (   0.1666667   0.4375000   0.3125000), wk =   0.0833333
        k(   16) = (   0.1666667   0.4375000   0.4375000), wk =   0.0833333
        k(   17) = (  -0.5000000   0.0625000   0.0625000), wk =   0.0416667
        k(   18) = (  -0.5000000   0.0625000   0.1875000), wk =   0.0416667
        k(   19) = (  -0.5000000   0.0625000   0.3125000), wk =   0.0416667
        k(   20) = (  -0.5000000   0.0625000   0.4375000), wk =   0.0416667
        k(   21) = (  -0.5000000   0.1875000   0.0625000), wk =   0.0416667
        k(   22) = (  -0.5000000   0.1875000   0.1875000), wk =   0.0416667
        k(   23) = (  -0.5000000   0.1875000   0.3125000), wk =   0.0416667
        k(   24) = (  -0.5000000   0.1875000   0.4375000), wk =   0.0416667
        k(   25) = (  -0.5000000   0.3125000   0.0625000), wk =   0.0416667
        k(   26) = (  -0.5000000   0.3125000   0.1875000), wk =   0.0416667
        k(   27) = (  -0.5000000   0.3125000   0.3125000), wk =   0.0416667
        k(   28) = (  -0.5000000   0.3125000   0.4375000), wk =   0.0416667
        k(   29) = (  -0.5000000   0.4375000   0.0625000), wk =   0.0416667
        k(   30) = (  -0.5000000   0.4375000   0.1875000), wk =   0.0416667
        k(   31) = (  -0.5000000   0.4375000   0.3125000), wk =   0.0416667
        k(   32) = (  -0.5000000   0.4375000   0.4375000), wk =   0.0416667

     Dense  grid:   125937 G-vectors     FFT dimensions: ( 120,  48,  48)

     Smooth grid:    31781 G-vectors     FFT dimensions: (  80,  30,  32)

     Dynamical RAM for                 wfc:       1.21 MB

     Dynamical RAM for     wfc (w. buffer):      14.57 MB

     Dynamical RAM for           str. fact:       1.92 MB

     Dynamical RAM for           local pot:       0.00 MB

     Dynamical RAM for          nlocal pot:       4.37 MB

     Dynamical RAM for                qrad:       2.78 MB

     Dynamical RAM for          rho,v,vnew:       6.05 MB

     Dynamical RAM for               rhoin:       2.02 MB

     Dynamical RAM for            rho*nmix:      15.37 MB

     Dynamical RAM for           G-vectors:       3.72 MB

     Dynamical RAM for          h,s,v(r/c):       0.29 MB

     Dynamical RAM for          <psi|beta>:       0.09 MB

     Dynamical RAM for                 psi:       2.43 MB

     Dynamical RAM for                hpsi:       2.43 MB

     Dynamical RAM for                spsi:       2.43 MB

     Dynamical RAM for      wfcinit/wfcrot:       3.22 MB

     Dynamical RAM for           addusdens:      61.49 MB

     Dynamical RAM for          addusforce:      63.27 MB

     Estimated static dynamical RAM per process >      43.58 MB

     Estimated max dynamical RAM per process >     122.23 MB

     Estimated total dynamical RAM >     671.86 MB

     Initial potential from superposition of free atoms

     starting charge      75.9995, renormalised to      80.0000
     Starting wfcs are   52 randomized atomic wfcs

     total cpu time spent up to now is        1.5 secs

     Self-consistent Calculation

     iteration #  1     ecut=    30.00 Ry     beta= 0.70
     Davidson diagonalization with overlap

---- Real-time Memory Report at c_bands before calling an iterative solver
           208 MiB given to the printing process from OS
             0 MiB allocation reported by mallinfo(arena+hblkhd)
         10362 MiB available memory on the node where the printing process lives
------------------
     ethr =  1.00E-02,  avg # of iterations =  2.0

     total cpu time spent up to now is        3.6 secs

     total energy              =    -826.61765485 Ry
     estimated scf accuracy    <       2.67603460 Ry

     iteration #  2     ecut=    30.00 Ry     beta= 0.70
     Davidson diagonalization with overlap

---- Real-time Memory Report at c_bands before calling an iterative solver
           254 MiB given to the printing process from OS
             0 MiB allocation reported by mallinfo(arena+hblkhd)
          9889 MiB available memory on the node where the printing process lives
------------------
     ethr =  3.35E-03,  avg # of iterations =  3.0

     total cpu time spent up to now is        5.7 secs

     total energy              =    -827.53414282 Ry
     estimated scf accuracy    <       0.95117224 Ry

     iteration #  3     ecut=    30.00 Ry     beta= 0.70
     Davidson diagonalization with overlap

---- Real-time Memory Report at c_bands before calling an iterative solver
           278 MiB given to the printing process from OS
             0 MiB allocation reported by mallinfo(arena+hblkhd)
          9790 MiB available memory on the node where the printing process lives
------------------
     ethr =  1.19E-03,  avg # of iterations =  2.5

     total cpu time spent up to now is        7.5 secs

     total energy              =    -827.72627623 Ry
     estimated scf accuracy    <       0.00882928 Ry

     iteration #  4     ecut=    30.00 Ry     beta= 0.70
     Davidson diagonalization with overlap

---- Real-time Memory Report at c_bands before calling an iterative solver
           280 MiB given to the printing process from OS
             0 MiB allocation reported by mallinfo(arena+hblkhd)
          9787 MiB available memory on the node where the printing process lives
------------------
     ethr =  1.10E-05,  avg # of iterations =  5.0

     total cpu time spent up to now is       10.0 secs

     total energy              =    -827.73195659 Ry
     estimated scf accuracy    <       0.00451897 Ry

     iteration #  5     ecut=    30.00 Ry     beta= 0.70
     Davidson diagonalization with overlap

---- Real-time Memory Report at c_bands before calling an iterative solver
           281 MiB given to the printing process from OS
             0 MiB allocation reported by mallinfo(arena+hblkhd)
          9787 MiB available memory on the node where the printing process lives
------------------
     ethr =  5.65E-06,  avg # of iterations =  3.2

     total cpu time spent up to now is       12.0 secs

     total energy              =    -827.73340667 Ry
     estimated scf accuracy    <       0.00096955 Ry

     iteration #  6     ecut=    30.00 Ry     beta= 0.70
     Davidson diagonalization with overlap

---- Real-time Memory Report at c_bands before calling an iterative solver
           283 MiB given to the printing process from OS
             0 MiB allocation reported by mallinfo(arena+hblkhd)
          9786 MiB available memory on the node where the printing process lives
------------------
     ethr =  1.21E-06,  avg # of iterations =  2.1

     total cpu time spent up to now is       13.8 secs

     total energy              =    -827.73351640 Ry
     estimated scf accuracy    <       0.00005189 Ry

     iteration #  7     ecut=    30.00 Ry     beta= 0.70
     Davidson diagonalization with overlap

---- Real-time Memory Report at c_bands before calling an iterative solver
           285 MiB given to the printing process from OS
             0 MiB allocation reported by mallinfo(arena+hblkhd)
          9784 MiB available memory on the node where the printing process lives
------------------
     ethr =  6.49E-08,  avg # of iterations =  4.1

     total cpu time spent up to now is       16.1 secs

     total energy              =    -827.73355100 Ry
     estimated scf accuracy    <       0.00000840 Ry

     iteration #  8     ecut=    30.00 Ry     beta= 0.70
     Davidson diagonalization with overlap

---- Real-time Memory Report at c_bands before calling an iterative solver
           287 MiB given to the printing process from OS
             0 MiB allocation reported by mallinfo(arena+hblkhd)
          9782 MiB available memory on the node where the printing process lives
------------------
     ethr =  1.05E-08,  avg # of iterations =  2.0

     total cpu time spent up to now is       17.9 secs

     total energy              =    -827.73355045 Ry
     estimated scf accuracy    <       0.00000245 Ry

     iteration #  9     ecut=    30.00 Ry     beta= 0.70
     Davidson diagonalization with overlap

---- Real-time Memory Report at c_bands before calling an iterative solver
           288 MiB given to the printing process from OS
             0 MiB allocation reported by mallinfo(arena+hblkhd)
          9782 MiB available memory on the node where the printing process lives
------------------
     ethr =  3.07E-09,  avg # of iterations =  3.0

     total cpu time spent up to now is       19.7 secs

     total energy              =    -827.73355111 Ry
     estimated scf accuracy    <       0.00000001 Ry

     iteration # 10     ecut=    30.00 Ry     beta= 0.70
     Davidson diagonalization with overlap

---- Real-time Memory Report at c_bands before calling an iterative solver
           290 MiB given to the printing process from OS
             0 MiB allocation reported by mallinfo(arena+hblkhd)
          9781 MiB available memory on the node where the printing process lives
------------------
     ethr =  1.77E-11,  avg # of iterations =  6.6

     total cpu time spent up to now is       23.2 secs

     End of self-consistent calculation

          k = 0.1667 0.1675 0.1534 (  3981 PWs)   bands (ev):

   -13.3306 -13.3193 -13.3151 -13.3133 -13.3114 -13.3103 -13.3066 -13.3031
   -13.2979 -13.2941 -13.2913 -13.2911 -13.2797 -13.2724 -13.2541 -13.2531
   -13.2458 -13.2453 -13.2337 -13.2267  -5.7695  -5.4531  -4.6800  -4.2430
     0.5669   1.4851   2.4570   2.7828   3.2468   4.4918   4.6192   4.9001
     5.1738   5.3102   5.8836   6.2342   6.4968   6.9786   7.2383   7.5356

     occupation numbers 
     1.0000   1.0000   1.0000   1.0000   1.0000   1.0000   1.0000   1.0000
     1.0000   1.0000   1.0000   1.0000   1.0000   1.0000   1.0000   1.0000
     1.0000   1.0000   1.0000   1.0000   1.0000   1.0000   1.0000   1.0000
     1.0000   1.0000   1.0000   1.0000   1.0000   1.0000   1.0000   1.0000
     1.0000   1.0000   1.0000   1.0000   1.0000   1.0000   1.0000   1.0000

          k = 0.1667 0.1675 0.4602 (  3965 PWs)   bands (ev):

   -13.3289 -13.3187 -13.3150 -13.3143 -13.3116 -13.3111 -13.3073 -13.3041
   -13.2970 -13.2915 -13.2912 -13.2888 -13.2794 -13.2732 -13.2544 -13.2520
   -13.2464 -13.2464 -13.2331 -13.2272  -5.6495  -5.3428  -4.6855  -4.2910
     0.2597   1.2562   1.8749   2.4827   3.3553   4.5252   4.7408   5.3188
     5.4974   5.8483   5.8922   6.3368   6.6909   6.9955   7.3777   7.6049

     occupation numbers 
     1.0000   1.0000   1.0000   1.0000   1.0000   1.0000   1.0000   1.0000
     1.0000   1.0000   1.0000   1.0000   1.0000   1.0000   1.0000   1.0000
     1.0000   1.0000   1.0000   1.0000   1.0000   1.0000   1.0000   1.0000
     1.0000   1.0000   1.0000   1.0000   1.0000   1.0000   1.0000   1.0000
     1.0000   1.0000   1.0000   1.0000   1.0000   1.0000   1.0000   1.0000

          k = 0.1667 0.1675 0.7669 (  3966 PWs)   bands (ev):

   -13.3260 -13.3184 -13.3161 -13.3150 -13.3131 -13.3112 -13.3079 -13.3057
   -13.2955 -13.2917 -13.2873 -13.2850 -13.2793 -13.2748 -13.2540 -13.2509
   -13.2483 -13.2474 -13.2321 -13.2281  -5.4319  -5.1450  -4.7358  -4.4067
    -0.0314   0.7627   1.4282   2.0129   3.6610   4.7553   4.9519   5.5726
     5.8762   5.9781   6.2622   6.3541   6.8649   7.3222   7.3999   7.8436

     occupation numbers 
     1.0000   1.0000   1.0000   1.0000   1.0000   1.0000   1.0000   1.0000
     1.0000   1.0000   1.0000   1.0000   1.0000   1.0000   1.0000   1.0000
     1.0000   1.0000   1.0000   1.0000   1.0000   1.0000   1.0000   1.0000
     1.0000   1.0000   1.0000   1.0000   1.0000   1.0000   1.0000   1.0000
     1.0000   1.0000   1.0000   1.0000   1.0000   1.0000   1.0000   1.0000

          k = 0.1667 0.1675 1.0737 (  3970 PWs)   bands (ev):

   -13.3227 -13.3199 -13.3166 -13.3161 -13.3129 -13.3119 -13.3080 -13.3072
   -13.2940 -13.2926 -13.2831 -13.2815 -13.2799 -13.2774 -13.2527 -13.2508
   -13.2495 -13.2485 -13.2308 -13.2294  -5.1681  -4.9751  -4.8027  -4.5998
    -0.0650   0.2284   1.3603   1.5850   4.1273   4.6264   5.3383   5.6401
     5.8704   6.0162   6.3299   6.5735   7.1573   7.4470   7.6442   7.7249

     occupation numbers 
     1.0000   1.0000   1.0000   1.0000   1.0000   1.0000   1.0000   1.0000
     1.0000   1.0000   1.0000   1.0000   1.0000   1.0000   1.0000   1.0000
     1.0000   1.0000   1.0000   1.0000   1.0000   1.0000   1.0000   1.0000
     1.0000   1.0000   1.0000   1.0000   1.0000   1.0000   1.0000   1.0000
     1.0000   1.0000   1.0000   1.0000   1.0000   1.0000   1.0000   1.0000

          k = 0.1667 0.5025 0.1534 (  3968 PWs)   bands (ev):

   -13.3246 -13.3178 -13.3159 -13.3128 -13.3103 -13.3099 -13.3082 -13.3062
   -13.2984 -13.2931 -13.2903 -13.2889 -13.2774 -13.2736 -13.2559 -13.2520
   -13.2491 -13.2436 -13.2337 -13.2284  -5.6049  -5.3123  -4.6190  -4.2561
     0.4303   1.2506   2.0961   2.2357   3.3603   4.3455   4.6712   5.0243
     5.3201   5.4833   5.9249   6.2889   6.4654   7.1283   7.4184   7.5571

     occupation numbers 
     1.0000   1.0000   1.0000   1.0000   1.0000   1.0000   1.0000   1.0000
     1.0000   1.0000   1.0000   1.0000   1.0000   1.0000   1.0000   1.0000
     1.0000   1.0000   1.0000   1.0000   1.0000   1.0000   1.0000   1.0000
     1.0000   1.0000   1.0000   1.0000   1.0000   1.0000   1.0000   1.0000
     1.0000   1.0000   1.0000   1.0000   1.0000   1.0000   1.0000   1.0000

          k = 0.1667 0.5025 0.4602 (  3990 PWs)   bands (ev):

   -13.3245 -13.3180 -13.3172 -13.3135 -13.3105 -13.3099 -13.3080 -13.3072
   -13.2977 -13.2933 -13.2880 -13.2865 -13.2776 -13.2737 -13.2555 -13.2520
   -13.2494 -13.2446 -13.2332 -13.2286  -5.4908  -5.2087  -4.6212  -4.2910
     0.2765   1.2014   1.7363   2.1124   3.4956   3.9441   4.2630   5.1724
     5.3602   5.9092   6.0254   6.2725   6.8660   7.0237   7.4035   7.5846

     occupation numbers 
     1.0000   1.0000   1.0000   1.0000   1.0000   1.0000   1.0000   1.0000
     1.0000   1.0000   1.0000   1.0000   1.0000   1.0000   1.0000   1.0000
     1.0000   1.0000   1.0000   1.0000   1.0000   1.0000   1.0000   1.0000
     1.0000   1.0000   1.0000   1.0000   1.0000   1.0000   1.0000   1.0000
     1.0000   1.0000   1.0000   1.0000   1.0000   1.0000   1.0000   1.0000

          k = 0.1667 0.5025 0.7669 (  3968 PWs)   bands (ev):

   -13.3243 -13.3200 -13.3175 -13.3148 -13.3115 -13.3093 -13.3089 -13.3068
   -13.2965 -13.2938 -13.2842 -13.2829 -13.2779 -13.2744 -13.2547 -13.2521
   -13.2495 -13.2461 -13.2322 -13.2292  -5.2863  -5.0252  -4.6612  -4.3811
     0.1147   0.8735   1.4618   1.8894   3.7502   3.8988   4.2141   5.0531
     5.1870   5.8864   5.9930   6.5188   6.7557   7.0474   7.2652   7.5981

     occupation numbers 
     1.0000   1.0000   1.0000   1.0000   1.0000   1.0000   1.0000   1.0000
     1.0000   1.0000   1.0000   1.0000   1.0000   1.0000   1.0000   1.0000
     1.0000   1.0000   1.0000   1.0000   1.0000   1.0000   1.0000   1.0000
     1.0000   1.0000   1.0000   1.0000   1.0000   1.0000   1.0000   1.0000
     1.0000   1.0000   1.0000   1.0000   1.0000   1.0000   1.0000   1.0000

          k = 0.1667 0.5025 1.0737 (  3970 PWs)   bands (ev):

   -13.3238 -13.3224 -13.3170 -13.3161 -13.3116 -13.3105 -13.3078 -13.3070
   -13.2954 -13.2945 -13.2808 -13.2793 -13.2787 -13.2762 -13.2537 -13.2527
   -13.2489 -13.2477 -13.2311 -13.2300  -5.0430  -4.8696  -4.7174  -4.5412
     0.1297   0.4072   1.4611   1.6291   4.0653   4.1362   4.4309   4.7292
     5.0656   5.3743   6.0532   6.3347   6.7535   7.0211   7.3087   7.5121

     occupation numbers 
     1.0000   1.0000   1.0000   1.0000   1.0000   1.0000   1.0000   1.0000
     1.0000   1.0000   1.0000   1.0000   1.0000   1.0000   1.0000   1.0000
     1.0000   1.0000   1.0000   1.0000   1.0000   1.0000   1.0000   1.0000
     1.0000   1.0000   1.0000   1.0000   1.0000   1.0000   1.0000   1.0000
     1.0000   1.0000   1.0000   1.0000   1.0000   1.0000   1.0000   1.0000

          k = 0.1667 0.8375 0.1534 (  3994 PWs)   bands (ev):

   -13.3223 -13.3200 -13.3186 -13.3177 -13.3075 -13.3057 -13.3042 -13.3025
   -13.2971 -13.2948 -13.2876 -13.2846 -13.2769 -13.2739 -13.2606 -13.2588
   -13.2454 -13.2406 -13.2337 -13.2310  -5.3029  -5.0661  -4.5593  -4.3437
     0.2521   0.9635   1.2877   1.7126   3.7025   4.4591   4.8426   5.2345
     5.5454   5.6574   6.0453   6.2372   6.5682   7.0949   7.2165   7.6197

     occupation numbers 
     1.0000   1.0000   1.0000   1.0000   1.0000   1.0000   1.0000   1.0000
     1.0000   1.0000   1.0000   1.0000   1.0000   1.0000   1.0000   1.0000
     1.0000   1.0000   1.0000   1.0000   1.0000   1.0000   1.0000   1.0000
     1.0000   1.0000   1.0000   1.0000   1.0000   1.0000   1.0000   1.0000
     1.0000   1.0000   1.0000   1.0000   1.0000   1.0000   1.0000   1.0000

          k = 0.1667 0.8375 0.4602 (  3990 PWs)   bands (ev):

   -13.3252 -13.3220 -13.3201 -13.3183 -13.3079 -13.3047 -13.3037 -13.3023
   -13.2962 -13.2947 -13.2858 -13.2829 -13.2773 -13.2734 -13.2601 -13.2585
   -13.2454 -13.2414 -13.2333 -13.2309  -5.2031  -4.9780  -4.5508  -4.3500
     0.2930   1.0569   1.3249   1.6081   3.6967   3.8137   4.2055   4.8652
     5.2998   5.8260   5.8813   6.3765   6.4499   6.9207   7.0894   7.3803

     occupation numbers 
     1.0000   1.0000   1.0000   1.0000   1.0000   1.0000   1.0000   1.0000
     1.0000   1.0000   1.0000   1.0000   1.0000   1.0000   1.0000   1.0000
     1.0000   1.0000   1.0000   1.0000   1.0000   1.0000   1.0000   1.0000
     1.0000   1.0000   1.0000   1.0000   1.0000   1.0000   1.0000   1.0000
     1.0000   1.0000   1.0000   1.0000   1.0000   1.0000   1.0000   1.0000

          k = 0.1667 0.8375 0.7669 (  3988 PWs)   bands (ev):

   -13.3282 -13.3256 -13.3215 -13.3202 -13.3075 -13.3040 -13.3034 -13.3021
   -13.2951 -13.2946 -13.2831 -13.2805 -13.2771 -13.2735 -13.2592 -13.2581
   -13.2452 -13.2425 -13.2325 -13.2309  -5.0293  -4.8268  -4.5645  -4.3854
     0.3594   1.0027   1.3931   1.5662   3.3165   3.6753   4.1017   4.4118
     4.7815   5.2915   5.6168   6.0055   6.3228   6.6522   6.9252   7.3556

     occupation numbers 
     1.0000   1.0000   1.0000   1.0000   1.0000   1.0000   1.0000   1.0000
     1.0000   1.0000   1.0000   1.0000   1.0000   1.0000   1.0000   1.0000
     1.0000   1.0000   1.0000   1.0000   1.0000   1.0000   1.0000   1.0000
     1.0000   1.0000   1.0000   1.0000   1.0000   1.0000   1.0000   1.0000
     1.0000   1.0000   1.0000   1.0000   1.0000   1.0000   1.0000   1.0000

          k = 0.1667 0.8375 1.0737 (  3977 PWs)   bands (ev):

   -13.3296 -13.3286 -13.3224 -13.3219 -13.3064 -13.3050 -13.3025 -13.3021
   -13.2944 -13.2944 -13.2807 -13.2795 -13.2759 -13.2744 -13.2584 -13.2580
   -13.2446 -13.2436 -13.2318 -13.2312  -4.8327  -4.7031  -4.5947  -4.4753
     0.4809   0.7145   1.5254   1.5806   3.3364   3.6825   3.8063   4.1694
     4.5816   4.9486   5.3806   5.7617   6.0179   6.3003   7.0183   7.1416

     occupation numbers 
     1.0000   1.0000   1.0000   1.0000   1.0000   1.0000   1.0000   1.0000
     1.0000   1.0000   1.0000   1.0000   1.0000   1.0000   1.0000   1.0000
     1.0000   1.0000   1.0000   1.0000   1.0000   1.0000   1.0000   1.0000
     1.0000   1.0000   1.0000   1.0000   1.0000   1.0000   1.0000   1.0000
     1.0000   1.0000   1.0000   1.0000   1.0000   1.0000   1.0000   1.0000

          k = 0.1667 1.1726 0.1534 (  4000 PWs)   bands (ev):

   -13.3247 -13.3234 -13.3213 -13.3201 -13.3036 -13.3022 -13.3011 -13.2993
   -13.2926 -13.2915 -13.2889 -13.2841 -13.2760 -13.2705 -13.2676 -13.2657
   -13.2399 -13.2373 -13.2347 -13.2346  -4.9255  -4.7924  -4.6011  -4.5726
     0.2516   0.6032   0.9139   1.2023   4.2118   4.6446   5.0534   5.4128
     5.6092   5.6386   6.0708   6.3900   6.6865   6.9404   6.9871   7.1672

     occupation numbers 
     1.0000   1.0000   1.0000   1.0000   1.0000   1.0000   1.0000   1.0000
     1.0000   1.0000   1.0000   1.0000   1.0000   1.0000   1.0000   1.0000
     1.0000   1.0000   1.0000   1.0000   1.0000   1.0000   1.0000   1.0000
     1.0000   1.0000   1.0000   1.0000   1.0000   1.0000   1.0000   1.0000
     1.0000   1.0000   1.0000   1.0000   1.0000   1.0000   1.0000   1.0000

          k = 0.1667 1.1726 0.4602 (  3996 PWs)   bands (ev):

   -13.3277 -13.3264 -13.3227 -13.3218 -13.3041 -13.3024 -13.2998 -13.2987
   -13.2921 -13.2908 -13.2874 -13.2835 -13.2753 -13.2714 -13.2656 -13.2646
   -13.2402 -13.2382 -13.2342 -13.2339  -4.8523  -4.7300  -4.5698  -4.5379
     0.3978   0.7406   1.0302   1.2342   3.9661   4.1511   4.4414   4.7213
     4.9759   5.4022   5.9166   6.1082   6.2345   6.5151   7.0862   7.3268

     occupation numbers 
     1.0000   1.0000   1.0000   1.0000   1.0000   1.0000   1.0000   1.0000
     1.0000   1.0000   1.0000   1.0000   1.0000   1.0000   1.0000   1.0000
     1.0000   1.0000   1.0000   1.0000   1.0000   1.0000   1.0000   1.0000
     1.0000   1.0000   1.0000   1.0000   1.0000   1.0000   1.0000   1.0000
     1.0000   1.0000   1.0000   1.0000   1.0000   1.0000   1.0000   1.0000

          k = 0.1667 1.1726 0.7669 (  3984 PWs)   bands (ev):

   -13.3314 -13.3305 -13.3249 -13.3243 -13.3043 -13.3028 -13.2986 -13.2980
   -13.2912 -13.2901 -13.2854 -13.2828 -13.2740 -13.2718 -13.2636 -13.2632
   -13.2403 -13.2391 -13.2336 -13.2333  -4.7331  -4.6317  -4.5343  -4.4951
     0.6465   0.9544   1.2072   1.2746   3.3251   3.7818   3.8961   4.1840
     4.5609   4.8697   5.2744   5.7300   5.8474   6.0973   6.9684   7.0969

     occupation numbers 
     1.0000   1.0000   1.0000   1.0000   1.0000   1.0000   1.0000   1.0000
     1.0000   1.0000   1.0000   1.0000   1.0000   1.0000   1.0000   1.0000
     1.0000   1.0000   1.0000   1.0000   1.0000   1.0000   1.0000   1.0000
     1.0000   1.0000   1.0000   1.0000   1.0000   1.0000   1.0000   1.0000
     1.0000   1.0000   1.0000   1.0000   1.0000   1.0000   1.0000   1.0000

          k = 0.1667 1.1726 1.0737 (  3975 PWs)   bands (ev):

   -13.3338 -13.3334 -13.3264 -13.3262 -13.3040 -13.3034 -13.2979 -13.2977
   -13.2904 -13.2899 -13.2838 -13.2828 -13.2726 -13.2720 -13.2624 -13.2623
   -13.2402 -13.2397 -13.2331 -13.2330  -4.6161  -4.5588  -4.5185  -4.4835
     0.8949   1.0331   1.3361   1.3744   3.0743   3.2809   3.6830   3.8011
     4.3906   4.4077   4.9304   5.2611   5.8108   5.9965   6.8105   6.8656

     occupation numbers 
     1.0000   1.0000   1.0000   1.0000   1.0000   1.0000   1.0000   1.0000
     1.0000   1.0000   1.0000   1.0000   1.0000   1.0000   1.0000   1.0000
     1.0000   1.0000   1.0000   1.0000   1.0000   1.0000   1.0000   1.0000
     1.0000   1.0000   1.0000   1.0000   1.0000   1.0000   1.0000   1.0000
     1.0000   1.0000   1.0000   1.0000   1.0000   1.0000   1.0000   1.0000

          k =-0.5000 0.1675 0.1534 (  3982 PWs)   bands (ev):

   -13.3255 -13.3255 -13.3132 -13.3132 -13.3122 -13.3122 -13.3042 -13.3042
   -13.2948 -13.2948 -13.2929 -13.2929 -13.2756 -13.2756 -13.2532 -13.2532
   -13.2459 -13.2459 -13.2300 -13.2300  -5.6401  -5.6401  -4.4326  -4.4326
     0.8911   0.8911   2.7069   2.7069   3.9484   3.9484   4.8153   4.8153
     5.3500   5.3500   5.9677   5.9677   6.3275   6.3275   7.4547   7.4547

     occupation numbers 
     1.0000   1.0000   1.0000   1.0000   1.0000   1.0000   1.0000   1.0000
     1.0000   1.0000   1.0000   1.0000   1.0000   1.0000   1.0000   1.0000
     1.0000   1.0000   1.0000   1.0000   1.0000   1.0000   1.0000   1.0000
     1.0000   1.0000   1.0000   1.0000   1.0000   1.0000   1.0000   1.0000
     1.0000   1.0000   1.0000   1.0000   1.0000   1.0000   1.0000   1.0000

          k =-0.5000 0.1675 0.4602 (  3962 PWs)   bands (ev):

   -13.3244 -13.3244 -13.3135 -13.3135 -13.3125 -13.3125 -13.3055 -13.3055
   -13.2941 -13.2941 -13.2903 -13.2903 -13.2760 -13.2760 -13.2529 -13.2529
   -13.2467 -13.2467 -13.2300 -13.2300  -5.5252  -5.5252  -4.4591  -4.4591
     0.6170   0.6170   2.2346   2.2346   4.1984   4.1984   4.8945   4.8945
     5.5859   5.5859   6.1227   6.1227   6.7615   6.7615   7.3707   7.3707

     occupation numbers 
     1.0000   1.0000   1.0000   1.0000   1.0000   1.0000   1.0000   1.0000
     1.0000   1.0000   1.0000   1.0000   1.0000   1.0000   1.0000   1.0000
     1.0000   1.0000   1.0000   1.0000   1.0000   1.0000   1.0000   1.0000
     1.0000   1.0000   1.0000   1.0000   1.0000   1.0000   1.0000   1.0000
     1.0000   1.0000   1.0000   1.0000   1.0000   1.0000   1.0000   1.0000

          k =-0.5000 0.1675 0.7669 (  3978 PWs)   bands (ev):

   -13.3226 -13.3226 -13.3152 -13.3152 -13.3121 -13.3121 -13.3072 -13.3072
   -13.2934 -13.2934 -13.2864 -13.2864 -13.2769 -13.2769 -13.2523 -13.2523
   -13.2480 -13.2480 -13.2300 -13.2300  -5.3199  -5.3199  -4.5401  -4.5401
     0.3043   0.3043   1.6857   1.6857   4.5239   4.5239   5.1814   5.1814
     5.7226   5.7226   6.3253   6.3253   6.9775   6.9775   7.5193   7.5193

     occupation numbers 
     1.0000   1.0000   1.0000   1.0000   1.0000   1.0000   1.0000   1.0000
     1.0000   1.0000   1.0000   1.0000   1.0000   1.0000   1.0000   1.0000
     1.0000   1.0000   1.0000   1.0000   1.0000   1.0000   1.0000   1.0000
     1.0000   1.0000   1.0000   1.0000   1.0000   1.0000   1.0000   1.0000
     1.0000   1.0000   1.0000   1.0000   1.0000   1.0000   1.0000   1.0000

          k =-0.5000 0.1675 1.0737 (  3954 PWs)   bands (ev):

   -13.3211 -13.3211 -13.3165 -13.3165 -13.3120 -13.3120 -13.3084 -13.3084
   -13.2929 -13.2929 -13.2826 -13.2826 -13.2784 -13.2784 -13.2514 -13.2514
   -13.2493 -13.2493 -13.2300 -13.2300  -5.0947  -5.0947  -4.6793  -4.6793
     0.1335   0.1335   1.3239   1.3239   4.9330   4.9330   5.4823   5.4823
     5.5668   5.5668   6.1825   6.1825   7.3294   7.3294   7.6184   7.6184

     occupation numbers 
     1.0000   1.0000   1.0000   1.0000   1.0000   1.0000   1.0000   1.0000
     1.0000   1.0000   1.0000   1.0000   1.0000   1.0000   1.0000   1.0000
     1.0000   1.0000   1.0000   1.0000   1.0000   1.0000   1.0000   1.0000
     1.0000   1.0000   1.0000   1.0000   1.0000   1.0000   1.0000   1.0000
     1.0000   1.0000   1.0000   1.0000   1.0000   1.0000   1.0000   1.0000

          k =-0.5000 0.5025 0.1534 (  3990 PWs)   bands (ev):

   -13.3212 -13.3212 -13.3148 -13.3148 -13.3098 -13.3098 -13.3073 -13.3073
   -13.2958 -13.2958 -13.2897 -13.2897 -13.2754 -13.2754 -13.2543 -13.2543
   -13.2459 -13.2459 -13.2309 -13.2309  -5.4844  -5.4844  -4.4108  -4.4108
     0.7374   0.7374   2.2028   2.2028   4.0731   4.0731   4.7204   4.7204
     5.6390   5.6390   5.8402   5.8402   6.4990   6.4990   7.5719   7.5719

     occupation numbers 
     1.0000   1.0000   1.0000   1.0000   1.0000   1.0000   1.0000   1.0000
     1.0000   1.0000   1.0000   1.0000   1.0000   1.0000   1.0000   1.0000
     1.0000   1.0000   1.0000   1.0000   1.0000   1.0000   1.0000   1.0000
     1.0000   1.0000   1.0000   1.0000   1.0000   1.0000   1.0000   1.0000
     1.0000   1.0000   1.0000   1.0000   1.0000   1.0000   1.0000   1.0000

          k =-0.5000 0.5025 0.4602 (  3978 PWs)   bands (ev):

   -13.3214 -13.3214 -13.3159 -13.3159 -13.3100 -13.3100 -13.3073 -13.3073
   -13.2955 -13.2955 -13.2873 -13.2873 -13.2757 -13.2757 -13.2541 -13.2541
   -13.2466 -13.2466 -13.2307 -13.2307  -5.3757  -5.3757  -4.4296  -4.4296
     0.6198   0.6198   1.9690   1.9690   4.0020   4.0020   4.6456   4.6456
     5.3246   5.3246   6.2570   6.2570   6.8624   6.8624   7.4797   7.4797

     occupation numbers 
     1.0000   1.0000   1.0000   1.0000   1.0000   1.0000   1.0000   1.0000
     1.0000   1.0000   1.0000   1.0000   1.0000   1.0000   1.0000   1.0000
     1.0000   1.0000   1.0000   1.0000   1.0000   1.0000   1.0000   1.0000
     1.0000   1.0000   1.0000   1.0000   1.0000   1.0000   1.0000   1.0000
     1.0000   1.0000   1.0000   1.0000   1.0000   1.0000   1.0000   1.0000

          k =-0.5000 0.5025 0.7669 (  3972 PWs)   bands (ev):

   -13.3217 -13.3217 -13.3177 -13.3177 -13.3098 -13.3098 -13.3072 -13.3072
   -13.2952 -13.2952 -13.2836 -13.2836 -13.2763 -13.2763 -13.2539 -13.2539
   -13.2475 -13.2475 -13.2305 -13.2305  -5.1837  -5.1837  -4.4934  -4.4934
     0.4380   0.4380   1.6554   1.6554   3.9891   3.9891   4.8104   4.8104
     5.1641   5.1641   6.3595   6.3595   6.7215   6.7215   7.4306   7.4306

     occupation numbers 
     1.0000   1.0000   1.0000   1.0000   1.0000   1.0000   1.0000   1.0000
     1.0000   1.0000   1.0000   1.0000   1.0000   1.0000   1.0000   1.0000
     1.0000   1.0000   1.0000   1.0000   1.0000   1.0000   1.0000   1.0000
     1.0000   1.0000   1.0000   1.0000   1.0000   1.0000   1.0000   1.0000
     1.0000   1.0000   1.0000   1.0000   1.0000   1.0000   1.0000   1.0000

          k =-0.5000 0.5025 1.0737 (  3960 PWs)   bands (ev):

   -13.3220 -13.3220 -13.3191 -13.3191 -13.3093 -13.3093 -13.3074 -13.3074
   -13.2950 -13.2950 -13.2801 -13.2801 -13.2776 -13.2776 -13.2536 -13.2536
   -13.2482 -13.2482 -13.2303 -13.2303  -4.9768  -4.9768  -4.6096  -4.6096
     0.3129   0.3129   1.4252   1.4252   4.2278   4.2278   4.6508   4.6508
     5.3875   5.3875   6.0021   6.0021   6.6584   6.6584   7.2671   7.2671

     occupation numbers 
     1.0000   1.0000   1.0000   1.0000   1.0000   1.0000   1.0000   1.0000
     1.0000   1.0000   1.0000   1.0000   1.0000   1.0000   1.0000   1.0000
     1.0000   1.0000   1.0000   1.0000   1.0000   1.0000   1.0000   1.0000
     1.0000   1.0000   1.0000   1.0000   1.0000   1.0000   1.0000   1.0000
     1.0000   1.0000   1.0000   1.0000   1.0000   1.0000   1.0000   1.0000

          k =-0.5000 0.8375 0.1534 (  3976 PWs)   bands (ev):

   -13.3217 -13.3217 -13.3175 -13.3175 -13.3060 -13.3060 -13.3044 -13.3044
   -13.2956 -13.2956 -13.2863 -13.2863 -13.2752 -13.2752 -13.2599 -13.2599
   -13.2428 -13.2428 -13.2323 -13.2323  -5.2038  -5.2038  -4.4313  -4.4313
     0.5414   0.5414   1.4953   1.4953   4.3540   4.3540   4.9035   4.9035
     5.7948   5.7948   5.9563   5.9563   6.4945   6.4945   7.4155   7.4155

     occupation numbers 
     1.0000   1.0000   1.0000   1.0000   1.0000   1.0000   1.0000   1.0000
     1.0000   1.0000   1.0000   1.0000   1.0000   1.0000   1.0000   1.0000
     1.0000   1.0000   1.0000   1.0000   1.0000   1.0000   1.0000   1.0000
     1.0000   1.0000   1.0000   1.0000   1.0000   1.0000   1.0000   1.0000
     1.0000   1.0000   1.0000   1.0000   1.0000   1.0000   1.0000   1.0000

          k =-0.5000 0.8375 0.4602 (  3988 PWs)   bands (ev):

   -13.3236 -13.3236 -13.3194 -13.3194 -13.3059 -13.3059 -13.3034 -13.3034
   -13.2953 -13.2953 -13.2846 -13.2846 -13.2751 -13.2751 -13.2597 -13.2597
   -13.2431 -13.2431 -13.2321 -13.2321  -5.1097  -5.1097  -4.4308  -4.4308
     0.6024   0.6024   1.4763   1.4763   3.8795   3.8795   4.7417   4.7417
     5.2199   5.2199   6.2006   6.2006   6.4384   6.4384   7.3212   7.3212

     occupation numbers 
     1.0000   1.0000   1.0000   1.0000   1.0000   1.0000   1.0000   1.0000
     1.0000   1.0000   1.0000   1.0000   1.0000   1.0000   1.0000   1.0000
     1.0000   1.0000   1.0000   1.0000   1.0000   1.0000   1.0000   1.0000
     1.0000   1.0000   1.0000   1.0000   1.0000   1.0000   1.0000   1.0000
     1.0000   1.0000   1.0000   1.0000   1.0000   1.0000   1.0000   1.0000

          k =-0.5000 0.8375 0.7669 (  3978 PWs)   bands (ev):

   -13.3260 -13.3260 -13.3221 -13.3221 -13.3052 -13.3052 -13.3027 -13.3027
   -13.2948 -13.2948 -13.2824 -13.2824 -13.2746 -13.2746 -13.2594 -13.2594
   -13.2433 -13.2433 -13.2317 -13.2317  -4.9483  -4.9483  -4.4548  -4.4548
     0.6450   0.6450   1.4644   1.4644   3.5425   3.5425   4.3961   4.3961
     4.9787   4.9787   5.6891   5.6891   6.3629   6.3629   7.2103   7.2103

     occupation numbers 
     1.0000   1.0000   1.0000   1.0000   1.0000   1.0000   1.0000   1.0000
     1.0000   1.0000   1.0000   1.0000   1.0000   1.0000   1.0000   1.0000
     1.0000   1.0000   1.0000   1.0000   1.0000   1.0000   1.0000   1.0000
     1.0000   1.0000   1.0000   1.0000   1.0000   1.0000   1.0000   1.0000
     1.0000   1.0000   1.0000   1.0000   1.0000   1.0000   1.0000   1.0000

          k =-0.5000 0.8375 1.0737 (  3968 PWs)   bands (ev):

   -13.3277 -13.3277 -13.3241 -13.3241 -13.3045 -13.3045 -13.3026 -13.3026
   -13.2945 -13.2945 -13.2810 -13.2810 -13.2740 -13.2740 -13.2592 -13.2592
   -13.2435 -13.2435 -13.2314 -13.2314  -4.7826  -4.7826  -4.5207  -4.5207
     0.6264   0.6264   1.4865   1.4865   3.5559   3.5559   3.9271   3.9271
     4.9859   4.9859   5.3021   5.3021   6.3701   6.3701   6.8952   6.8952

     occupation numbers 
     1.0000   1.0000   1.0000   1.0000   1.0000   1.0000   1.0000   1.0000
     1.0000   1.0000   1.0000   1.0000   1.0000   1.0000   1.0000   1.0000
     1.0000   1.0000   1.0000   1.0000   1.0000   1.0000   1.0000   1.0000
     1.0000   1.0000   1.0000   1.0000   1.0000   1.0000   1.0000   1.0000
     1.0000   1.0000   1.0000   1.0000   1.0000   1.0000   1.0000   1.0000

          k =-0.5000 1.1726 0.1534 (  4004 PWs)   bands (ev):

   -13.3233 -13.3233 -13.3217 -13.3217 -13.3020 -13.3020 -13.3014 -13.3014
   -13.2915 -13.2915 -13.2866 -13.2866 -13.2727 -13.2727 -13.2670 -13.2670
   -13.2385 -13.2385 -13.2347 -13.2347  -4.8669  -4.8669  -4.5796  -4.5796
     0.5397   0.5397   0.8773   0.8773   4.8131   4.8131   5.1674   5.1674
     5.6742   5.6742   5.9285   5.9285   6.6151   6.6151   7.0043   7.0043

     occupation numbers 
     1.0000   1.0000   1.0000   1.0000   1.0000   1.0000   1.0000   1.0000
     1.0000   1.0000   1.0000   1.0000   1.0000   1.0000   1.0000   1.0000
     1.0000   1.0000   1.0000   1.0000   1.0000   1.0000   1.0000   1.0000
     1.0000   1.0000   1.0000   1.0000   1.0000   1.0000   1.0000   1.0000
     1.0000   1.0000   1.0000   1.0000   1.0000   1.0000   1.0000   1.0000

          k =-0.5000 1.1726 0.4602 (  3998 PWs)   bands (ev):

   -13.3256 -13.3256 -13.3240 -13.3240 -13.3018 -13.3018 -13.3009 -13.3009
   -13.2908 -13.2908 -13.2860 -13.2860 -13.2719 -13.2719 -13.2663 -13.2663
   -13.2385 -13.2385 -13.2346 -13.2346  -4.7988  -4.7988  -4.5467  -4.5467
     0.6705   0.6705   0.9749   0.9749   4.1571   4.1571   4.6982   4.6982
     5.2620   5.2620   5.7045   5.7045   6.4926   6.4926   6.9342   6.9342

     occupation numbers 
     1.0000   1.0000   1.0000   1.0000   1.0000   1.0000   1.0000   1.0000
     1.0000   1.0000   1.0000   1.0000   1.0000   1.0000   1.0000   1.0000
     1.0000   1.0000   1.0000   1.0000   1.0000   1.0000   1.0000   1.0000
     1.0000   1.0000   1.0000   1.0000   1.0000   1.0000   1.0000   1.0000
     1.0000   1.0000   1.0000   1.0000   1.0000   1.0000   1.0000   1.0000

          k =-0.5000 1.1726 0.7669 (  3976 PWs)   bands (ev):

   -13.3287 -13.3287 -13.3272 -13.3272 -13.3017 -13.3017 -13.3005 -13.3005
   -13.2899 -13.2899 -13.2851 -13.2851 -13.2705 -13.2705 -13.2653 -13.2653
   -13.2385 -13.2385 -13.2343 -13.2343  -4.6901  -4.6901  -4.5073  -4.5073
     0.8636   0.8636   1.1409   1.1409   3.6011   3.6011   4.1186   4.1186
     4.6920   4.6920   5.1550   5.1550   6.4366   6.4366   6.8117   6.8117

     occupation numbers 
     1.0000   1.0000   1.0000   1.0000   1.0000   1.0000   1.0000   1.0000
     1.0000   1.0000   1.0000   1.0000   1.0000   1.0000   1.0000   1.0000
     1.0000   1.0000   1.0000   1.0000   1.0000   1.0000   1.0000   1.0000
     1.0000   1.0000   1.0000   1.0000   1.0000   1.0000   1.0000   1.0000
     1.0000   1.0000   1.0000   1.0000   1.0000   1.0000   1.0000   1.0000

          k =-0.5000 1.1726 1.0737 (  3966 PWs)   bands (ev):

   -13.3308 -13.3308 -13.3294 -13.3294 -13.3016 -13.3016 -13.3005 -13.3005
   -13.2893 -13.2893 -13.2845 -13.2845 -13.2694 -13.2694 -13.2645 -13.2645
   -13.2384 -13.2384 -13.2341 -13.2341  -4.5927  -4.5927  -4.4959  -4.4959
     0.9836   0.9836   1.3090   1.3090   3.4198   3.4198   3.6646   3.6646
     4.3435   4.3435   4.6241   4.6241   6.5398   6.5398   6.7296   6.7296

     occupation numbers 
     1.0000   1.0000   1.0000   1.0000   1.0000   1.0000   1.0000   1.0000
     1.0000   1.0000   1.0000   1.0000   1.0000   1.0000   1.0000   1.0000
     1.0000   1.0000   1.0000   1.0000   1.0000   1.0000   1.0000   1.0000
     1.0000   1.0000   1.0000   1.0000   1.0000   1.0000   1.0000   1.0000
     1.0000   1.0000   1.0000   1.0000   1.0000   1.0000   1.0000   1.0000

     highest occupied level (ev):     7.8436

!    total energy              =    -827.73355114 Ry
     estimated scf accuracy    <          1.1E-09 Ry

     The total energy is the sum of the following terms:
     one-electron contribution =    -259.62678280 Ry
     hartree contribution      =     180.22296286 Ry
     xc contribution           =    -309.13583803 Ry
     ewald contribution        =    -439.07140100 Ry
     DFT-D3 Dispersion         =      -0.12249216 Ry

     convergence has been achieved in  10 iterations

     Forces acting on atoms (cartesian axes, Ry/au):

     atom    1 type  2   force =     0.01177713    0.00000000    0.00102612
     atom    2 type  1   force =    -0.01208512    0.00000000   -0.00046454
     atom    3 type  2   force =    -0.01177713    0.00000000    0.00102612
     atom    4 type  1   force =     0.01208512   -0.00000000   -0.00046454
     atom    5 type  2   force =     0.01177713    0.00000000   -0.00102612
     atom    6 type  1   force =    -0.01208512    0.00000000    0.00046454
     atom    7 type  2   force =    -0.01177713    0.00000000   -0.00102612
     atom    8 type  1   force =     0.01208512   -0.00000000    0.00046454
     The non-local contrib.  to forces
     atom    1 type  2   force =    -0.10780381    0.00000000    0.11333717
     atom    2 type  1   force =     0.35312170    0.00000000    0.30439699
     atom    3 type  2   force =     0.10780381    0.00000000    0.11333717
     atom    4 type  1   force =    -0.35312170    0.00000000    0.30439699
     atom    5 type  2   force =    -0.10780381    0.00000000   -0.11333717
     atom    6 type  1   force =     0.35312170    0.00000000   -0.30439699
     atom    7 type  2   force =     0.10780381    0.00000000   -0.11333717
     atom    8 type  1   force =    -0.35312170    0.00000000   -0.30439699
     The ionic contribution  to forces
     atom    1 type  2   force =     1.38548125   -0.00000000   -1.18796558
     atom    2 type  1   force =    -0.66557366    0.00000000   -0.59818750
     atom    3 type  2   force =    -1.38548125    0.00000000   -1.18796558
     atom    4 type  1   force =     0.66557366    0.00000000   -0.59818750
     atom    5 type  2   force =     1.38548125    0.00000000    1.18796558
     atom    6 type  1   force =    -0.66557366    0.00000000    0.59818750
     atom    7 type  2   force =    -1.38548125    0.00000000    1.18796558
     atom    8 type  1   force =     0.66557366    0.00000000    0.59818750
     The local contribution  to forces
     atom    1 type  2   force =    -1.27690630    0.00000000    1.08700881
     atom    2 type  1   force =     0.30596726    0.00000000    0.29775551
     atom    3 type  2   force =     1.27690630    0.00000000    1.08700881
     atom    4 type  1   force =    -0.30596726    0.00000000    0.29775551
     atom    5 type  2   force =    -1.27690630    0.00000000   -1.08700881
     atom    6 type  1   force =     0.30596726    0.00000000   -0.29775551
     atom    7 type  2   force =     1.27690630    0.00000000   -1.08700881
     atom    8 type  1   force =    -0.30596726    0.00000000   -0.29775551
     The core correction contribution to forces
     atom    1 type  2   force =     0.01185678   -0.00000000   -0.01281334
     atom    2 type  1   force =    -0.00485596    0.00000000   -0.00544820
     atom    3 type  2   force =    -0.01185678   -0.00000000   -0.01281334
     atom    4 type  1   force =     0.00485596    0.00000000   -0.00544820
     atom    5 type  2   force =     0.01185678   -0.00000000    0.01281334
     atom    6 type  1   force =    -0.00485596   -0.00000000    0.00544820
     atom    7 type  2   force =    -0.01185678   -0.00000000    0.01281334
     atom    8 type  1   force =     0.00485596   -0.00000000    0.00544820
     The Hubbard contrib.    to forces
     atom    1 type  2   force =     0.00000000    0.00000000    0.00000000
     atom    2 type  1   force =     0.00000000    0.00000000    0.00000000
     atom    3 type  2   force =     0.00000000    0.00000000    0.00000000
     atom    4 type  1   force =     0.00000000    0.00000000    0.00000000
     atom    5 type  2   force =     0.00000000    0.00000000    0.00000000
     atom    6 type  1   force =     0.00000000    0.00000000    0.00000000
     atom    7 type  2   force =     0.00000000    0.00000000    0.00000000
     atom    8 type  1   force =     0.00000000    0.00000000    0.00000000
     The SCF correction term to forces
     atom    1 type  2   force =     0.00001011    0.00000000    0.00000130
     atom    2 type  1   force =    -0.00004641    0.00000000    0.00000210
     atom    3 type  2   force =    -0.00001011    0.00000000    0.00000130
     atom    4 type  1   force =     0.00004641   -0.00000000    0.00000210
     atom    5 type  2   force =     0.00001011   -0.00000000   -0.00000130
     atom    6 type  1   force =    -0.00004641    0.00000000   -0.00000210
     atom    7 type  2   force =    -0.00001011    0.00000000   -0.00000130
     atom    8 type  1   force =     0.00004641   -0.00000000   -0.00000210

     DFT-D3 dispersion contribution to forces:
     atom    1 type  2   force =    -0.00086090    0.00000000    0.00145776
     atom    2 type  1   force =    -0.00069805    0.00000000    0.00101657
     atom    3 type  2   force =     0.00086090   -0.00000000    0.00145776
     atom    4 type  1   force =     0.00069805   -0.00000000    0.00101657
     atom    5 type  2   force =    -0.00086090   -0.00000000   -0.00145776
     atom    6 type  1   force =    -0.00069805    0.00000000   -0.00101657
     atom    7 type  2   force =     0.00086090   -0.00000000   -0.00145776
     atom    8 type  1   force =     0.00069805   -0.00000000   -0.00101657

     Total force =     0.033824     Total SCF correction =     0.000095

     DFT-D3 dispersion Force =     0.004189

     Writing all to output data dir ./tmp/SnSe_pnma.save/ :
     XML data file, charge density, pseudopotentials, collected wavefunctions
 
     init_run     :      1.16s CPU      1.28s WALL (       1 calls)
     electrons    :     20.21s CPU     21.73s WALL (       1 calls)
     forces       :      0.55s CPU      0.65s WALL (       1 calls)
     force_dftd3  :      0.05s CPU      0.06s WALL (       1 calls)

     Called by init_run:
     wfcinit      :      0.68s CPU      0.70s WALL (       1 calls)
     wfcinit:atom :      0.01s CPU      0.01s WALL (      11 calls)
     wfcinit:wfcr :      0.58s CPU      0.59s WALL (      11 calls)
     potinit      :      0.08s CPU      0.10s WALL (       1 calls)
     hinit0       :      0.19s CPU      0.20s WALL (       1 calls)

     Called by electrons:
     c_bands      :     15.18s CPU     15.41s WALL (      10 calls)
     sum_band     :      3.22s CPU      3.83s WALL (      10 calls)
     v_of_rho     :      0.60s CPU      0.65s WALL (      11 calls)
     v_h          :      0.04s CPU      0.05s WALL (      11 calls)
     v_xc         :      0.63s CPU      0.67s WALL (      12 calls)
     newd         :      1.22s CPU      1.89s WALL (      11 calls)
     mix_rho      :      0.08s CPU      0.08s WALL (      10 calls)
     energy_dftd3 :      0.05s CPU      0.05s WALL (       1 calls)

     Called by c_bands:
     init_us_2    :      0.45s CPU      0.47s WALL (     242 calls)
     cegterg      :     13.11s CPU     13.28s WALL (     110 calls)

     Called by sum_band:
     sum_band:wei :      0.00s CPU      0.00s WALL (      10 calls)
     sum_band:loo :      1.92s CPU      1.93s WALL (      10 calls)
     sum_band:buf :      0.03s CPU      0.03s WALL (     110 calls)
     sum_band:ini :      0.20s CPU      0.20s WALL (     110 calls)
     sum_band:cal :      0.29s CPU      0.29s WALL (     110 calls)
     sum_band:bec :      0.01s CPU      0.01s WALL (     110 calls)
     addusdens    :      1.16s CPU      1.72s WALL (      10 calls)
                                        0.00s GPU  (      10 calls)
     addusd:skk   :      0.01s CPU      0.01s WALL (      20 calls)
                                        0.00s GPU  (      20 calls)

     Called by *egterg:
     cdiaghg      :      0.79s CPU      0.79s WALL (     490 calls)
     cegterg:over :      0.75s CPU      0.75s WALL (     380 calls)
     cegterg:upda :      0.40s CPU      0.41s WALL (     380 calls)
     cegterg:last :      0.96s CPU      0.97s WALL (     280 calls)
     h_psi        :      9.31s CPU      9.43s WALL (     501 calls)
     s_psi        :      1.02s CPU      1.03s WALL (     501 calls)
     g_psi        :      0.04s CPU      0.04s WALL (     380 calls)

     Called by h_psi:
     h_psi:calbec :      0.99s CPU      1.01s WALL (     501 calls)
     vloc_psi     :      7.16s CPU      7.25s WALL (     501 calls)
     add_vuspsi   :      1.07s CPU      1.08s WALL (     501 calls)

     General routines
     calbec       :      1.45s CPU      1.47s WALL (     655 calls)
     fft          :      0.30s CPU      0.31s WALL (     152 calls)
     ffts         :      0.01s CPU      0.01s WALL (      21 calls)
     fftw         :      5.79s CPU      5.86s WALL (   32442 calls)
     interpolate  :      0.03s CPU      0.03s WALL (      11 calls)
 
     Parallel routines
 
     PWSCF        :     22.16s CPU     24.27s WALL

 
   This run was terminated on:  14:57: 8  20May2026            

=------------------------------------------------------------------------------=
   JOB DONE.
=------------------------------------------------------------------------------=
