
     Program PWSCF v.7.3.1 starts on 20May2026 at 20:14:15 

     This program is part of the open-source Quantum ESPRESSO suite
     for quantum simulation of materials; please cite
         "P. Giannozzi et al., J. Phys.:Condens. Matter 21 395502 (2009);
         "P. Giannozzi et al., J. Phys.:Condens. Matter 29 465901 (2017);
         "P. Giannozzi et al., J. Chem. Phys. 152 154105 (2020);
          URL http://www.quantum-espresso.org", 
     in publications or presentations arising from this work. More details at
     http://www.quantum-espresso.org/quote

     Parallel version (MPI & OpenMP), running on       6 processor cores
     Number of MPI processes:                 6
     Threads/MPI process:                     1

     MPI processes distributed on     1 nodes
     5354 MiB available memory on the printing compute node when the environment starts
 
     Waiting for input...
     Reading input from standard input

     Current dimensions of program PWSCF are:
     Max number of different atomic species (ntypx) = 10
     Max number of k-points (npk) =  40000
     Max angular momentum in pseudopotentials (lmaxx) =  4
 
     K-points division:     npool     =       3
     R & G space division:  proc/nbgrp/npool/nimage =       2
     Subspace diagonalization in iterative solution of the eigenvalue problem:
     a serial algorithm will be used

 
     Parallelization info
     --------------------
     sticks:   dense  smooth     PW     G-vecs:    dense   smooth      PW
     Min        3970    1595    453               178062    45062    6804
     Max        3971    1596    454               178065    45063    6805
     Sum        7941    3191    907               356127    90125   13609
 
     Using Slab Decomposition
 


     bravais-lattice index     =            8
     lattice parameter (alat)  =      21.1460  a.u.
     unit-cell volume          =    1434.9758 (a.u.)^3
     number of atoms/cell      =            8
     number of atomic types    =            2
     number of electrons       =        80.00
     number of Kohn-Sham states=           40
     kinetic-energy cutoff     =      60.0000  Ry
     charge density cutoff     =     600.0000  Ry
     scf convergence threshold =      1.0E-08
     mixing beta               =       0.7000
     number of iterations used =            8  plain     mixing
     Exchange-correlation= SLA  PW   PBE  PBE
                           (   1   4   3   4   0   0   0)

     celldm(1)=  21.146035  celldm(2)=   0.372779  celldm(3)=   0.407105
     celldm(4)=   0.000000  celldm(5)=   0.000000  celldm(6)=   0.000000

     crystal axes: (cart. coord. in units of alat)
               a(1) = (   1.000000   0.000000   0.000000 )  
               a(2) = (   0.000000   0.372779   0.000000 )  
               a(3) = (   0.000000   0.000000   0.407105 )  

     reciprocal axes: (cart. coord. in units 2 pi/alat)
               b(1) = (  1.000000  0.000000  0.000000 )  
               b(2) = (  0.000000  2.682553  0.000000 )  
               b(3) = (  0.000000  0.000000  2.456371 )  


     PseudoPot. # 1 for Sn read from file:
     ../pseudo/Sn_pbe_v1.uspp.F.UPF
     MD5 check sum: 4cf58ce39ec5d5d420df3dd08604eb00
     Pseudo is Ultrasoft + core correction, Zval = 14.0
     Generated by new atomic code, or converted to UPF format
     Using radial grid of  891 points,  6 beta functions with: 
                l(1) =   0
                l(2) =   0
                l(3) =   1
                l(4) =   1
                l(5) =   2
                l(6) =   2
     Q(r) pseudized with  6 coefficients,  rinner =    1.200   1.200   1.200
                                                       1.200   1.200

     PseudoPot. # 2 for Se read from file:
     ../pseudo/Se_pbe_v1.uspp.F.UPF
     MD5 check sum: 1b3568f3a8ae88f9a2a0ad0698632c85
     Pseudo is Ultrasoft + core correction, Zval =  6.0
     Generated by new atomic code, or converted to UPF format
     Using radial grid of  877 points,  6 beta functions with: 
                l(1) =   0
                l(2) =   0
                l(3) =   1
                l(4) =   1
                l(5) =   2
                l(6) =   2
     Q(r) pseudized with  8 coefficients,  rinner =    1.300   1.300   1.300
                                                       1.300   1.300

     atomic species   valence    mass     pseudopotential
     Sn               14.00   118.71000     Sn( 1.00)
     Se                6.00    78.97100     Se( 1.00)

      8 Sym. Ops., with inversion, found ( 6 have fractional translation)


                                    s                        frac. trans.

      isym =  1     identity                                     

 cryst.   s( 1) = (     1          0          0      )
                  (     0          1          0      )
                  (     0          0          1      )

 cart.    s( 1) = (  1.0000000  0.0000000  0.0000000 )
                  (  0.0000000  1.0000000  0.0000000 )
                  (  0.0000000  0.0000000  1.0000000 )


      isym =  2     180 deg rotation - cart. axis [0,0,1]        

 cryst.   s( 2) = (    -1          0          0      )    f =(  0.5000000 )
                  (     0         -1          0      )       (  0.0000000 )
                  (     0          0          1      )       ( -0.5000000 )

 cart.    s( 2) = ( -1.0000000  0.0000000  0.0000000 )    f =(  0.5000000 )
                  (  0.0000000 -1.0000000  0.0000000 )       (  0.0000000 )
                  (  0.0000000  0.0000000  1.0000000 )       ( -0.2035523 )


      isym =  3     180 deg rotation - cart. axis [0,1,0]        

 cryst.   s( 3) = (    -1          0          0      )    f =(  0.0000000 )
                  (     0          1          0      )       (  0.5000000 )
                  (     0          0         -1      )       (  0.0000000 )

 cart.    s( 3) = ( -1.0000000  0.0000000  0.0000000 )    f =(  0.0000000 )
                  (  0.0000000  1.0000000  0.0000000 )       (  0.1863896 )
                  (  0.0000000  0.0000000 -1.0000000 )       (  0.0000000 )


      isym =  4     180 deg rotation - cart. axis [1,0,0]        

 cryst.   s( 4) = (     1          0          0      )    f =(  0.5000000 )
                  (     0         -1          0      )       (  0.5000000 )
                  (     0          0         -1      )       (  0.5000000 )

 cart.    s( 4) = (  1.0000000  0.0000000  0.0000000 )    f =(  0.5000000 )
                  (  0.0000000 -1.0000000  0.0000000 )       (  0.1863896 )
                  (  0.0000000  0.0000000 -1.0000000 )       (  0.2035523 )


      isym =  5     inversion                                    

 cryst.   s( 5) = (    -1          0          0      )
                  (     0         -1          0      )
                  (     0          0         -1      )

 cart.    s( 5) = ( -1.0000000  0.0000000  0.0000000 )
                  (  0.0000000 -1.0000000  0.0000000 )
                  (  0.0000000  0.0000000 -1.0000000 )


      isym =  6     inv. 180 deg rotation - cart. axis [0,0,1]   

 cryst.   s( 6) = (     1          0          0      )    f =(  0.5000000 )
                  (     0          1          0      )       (  0.0000000 )
                  (     0          0         -1      )       (  0.5000000 )

 cart.    s( 6) = (  1.0000000  0.0000000  0.0000000 )    f =(  0.5000000 )
                  (  0.0000000  1.0000000  0.0000000 )       (  0.0000000 )
                  (  0.0000000  0.0000000 -1.0000000 )       (  0.2035523 )


      isym =  7     inv. 180 deg rotation - cart. axis [0,1,0]   

 cryst.   s( 7) = (     1          0          0      )    f =(  0.0000000 )
                  (     0         -1          0      )       (  0.5000000 )
                  (     0          0          1      )       (  0.0000000 )

 cart.    s( 7) = (  1.0000000  0.0000000  0.0000000 )    f =(  0.0000000 )
                  (  0.0000000 -1.0000000  0.0000000 )       (  0.1863896 )
                  (  0.0000000  0.0000000  1.0000000 )       (  0.0000000 )


      isym =  8     inv. 180 deg rotation - cart. axis [1,0,0]   

 cryst.   s( 8) = (    -1          0          0      )    f =(  0.5000000 )
                  (     0          1          0      )       (  0.5000000 )
                  (     0          0          1      )       ( -0.5000000 )

 cart.    s( 8) = ( -1.0000000  0.0000000  0.0000000 )    f =(  0.5000000 )
                  (  0.0000000  1.0000000  0.0000000 )       (  0.1863896 )
                  (  0.0000000  0.0000000  1.0000000 )       ( -0.2035523 )


     point group D_2h (mmm) 
     there are  8 classes
     the character table:

       E     C2    C2'   C2''  i     s_v   s_v'  s_v''
A_g    1.00  1.00  1.00  1.00  1.00  1.00  1.00  1.00
B_1g   1.00  1.00 -1.00 -1.00  1.00  1.00 -1.00 -1.00
B_2g   1.00 -1.00  1.00 -1.00  1.00 -1.00  1.00 -1.00
B_3g   1.00 -1.00 -1.00  1.00  1.00 -1.00 -1.00  1.00
A_u    1.00  1.00  1.00  1.00 -1.00 -1.00 -1.00 -1.00
B_1u   1.00  1.00 -1.00 -1.00 -1.00 -1.00  1.00  1.00
B_2u   1.00 -1.00  1.00 -1.00 -1.00  1.00 -1.00  1.00
B_3u   1.00 -1.00 -1.00  1.00 -1.00  1.00  1.00 -1.00

     the symmetry operations in each class and the name of the first element:

     E        1
          identity                                               
     C2       2
          180 deg rotation - cart. axis [0,0,1]                  
     C2'      4
          180 deg rotation - cart. axis [1,0,0]                  
     C2''     3
          180 deg rotation - cart. axis [0,1,0]                  
     i        5
          inversion                                              
     s_v      6
          inv. 180 deg rotation - cart. axis [0,0,1]             
     s_v'     8
          inv. 180 deg rotation - cart. axis [1,0,0]             
     s_v''    7
          inv. 180 deg rotation - cart. axis [0,1,0]             

   Cartesian axes

     site n.     atom                  positions (alat units)
         1        Se     tau(   1) = (   0.8549563   0.0931948   0.1967325  )
         2        Sn     tau(   2) = (   0.1165395   0.0931948   0.0457126  )
         3        Se     tau(   3) = (   0.6450437   0.2795845   0.4002848  )
         4        Sn     tau(   4) = (   0.3834605   0.2795845   0.2492648  )
         5        Se     tau(   5) = (   0.3549563   0.0931948   0.0068198  )
         6        Sn     tau(   6) = (   0.6165395   0.0931948   0.1578397  )
         7        Se     tau(   7) = (   0.1450437   0.2795845   0.2103721  )
         8        Sn     tau(   8) = (   0.8834605   0.2795845   0.3613920  )

     --------------------------------------------
     DFT-D3 Dispersion Correction (3-body terms):
     --------------------------------------------
       Reference C6 values for interpolation: 

         atom   Coordination number   C6
         Se         0.000           427.35
         Se         0.990           427.57
         Se         1.981           421.05
         Sn         0.000          1255.14
         Sn         0.951          1084.09
         Sn         1.950          1010.83
         Sn         2.926           818.29
         Sn         3.912           672.20

       Values used:

         atom   Coordination number  R0_AB[au]  C6      C8
         Se         3.547            3.332    421.05  29958.36
         Sn         4.362            3.957    672.28  84379.06
         Se         3.547            3.332    421.05  29958.36
         Sn         4.362            3.957    672.28  84379.06
         Se         3.547            3.332    421.05  29958.36
         Sn         4.362            3.957    672.28  84379.06
         Se         3.547            3.332    421.05  29958.36
         Sn         4.362            3.957    672.28  84379.06

         Molecular C6 ( Ry / a.u.^6 ) =     34498.48


   Crystallographic axes

     site n.     atom                  positions (cryst. coord.)
         1        Se     tau(   1) = (  0.8549563  0.2500000  0.4832481  )
         2        Sn     tau(   2) = (  0.1165395  0.2500000  0.1122870  )
         3        Se     tau(   3) = (  0.6450437  0.7500000  0.9832481  )
         4        Sn     tau(   4) = (  0.3834605  0.7500000  0.6122870  )
         5        Se     tau(   5) = (  0.3549563  0.2500000  0.0167519  )
         6        Sn     tau(   6) = (  0.6165395  0.2500000  0.3877130  )
         7        Se     tau(   7) = (  0.1450437  0.7500000  0.5167519  )
         8        Sn     tau(   8) = (  0.8834605  0.7500000  0.8877130  )

     number of k points=    32
                       cart. coord. in units 2pi/alat
        k(    1) = (   0.1666667   0.1676595   0.1535232), wk =   0.0833333
        k(    2) = (   0.1666667   0.1676595   0.4605696), wk =   0.0833333
        k(    3) = (   0.1666667   0.1676595   0.7676161), wk =   0.0833333
        k(    4) = (   0.1666667   0.1676595   1.0746625), wk =   0.0833333
        k(    5) = (   0.1666667   0.5029786   0.1535232), wk =   0.0833333
        k(    6) = (   0.1666667   0.5029786   0.4605696), wk =   0.0833333
        k(    7) = (   0.1666667   0.5029786   0.7676161), wk =   0.0833333
        k(    8) = (   0.1666667   0.5029786   1.0746625), wk =   0.0833333
        k(    9) = (   0.1666667   0.8382977   0.1535232), wk =   0.0833333
        k(   10) = (   0.1666667   0.8382977   0.4605696), wk =   0.0833333
        k(   11) = (   0.1666667   0.8382977   0.7676161), wk =   0.0833333
        k(   12) = (   0.1666667   0.8382977   1.0746625), wk =   0.0833333
        k(   13) = (   0.1666667   1.1736168   0.1535232), wk =   0.0833333
        k(   14) = (   0.1666667   1.1736168   0.4605696), wk =   0.0833333
        k(   15) = (   0.1666667   1.1736168   0.7676161), wk =   0.0833333
        k(   16) = (   0.1666667   1.1736168   1.0746625), wk =   0.0833333
        k(   17) = (  -0.5000000   0.1676595   0.1535232), wk =   0.0416667
        k(   18) = (  -0.5000000   0.1676595   0.4605696), wk =   0.0416667
        k(   19) = (  -0.5000000   0.1676595   0.7676161), wk =   0.0416667
        k(   20) = (  -0.5000000   0.1676595   1.0746625), wk =   0.0416667
        k(   21) = (  -0.5000000   0.5029786   0.1535232), wk =   0.0416667
        k(   22) = (  -0.5000000   0.5029786   0.4605696), wk =   0.0416667
        k(   23) = (  -0.5000000   0.5029786   0.7676161), wk =   0.0416667
        k(   24) = (  -0.5000000   0.5029786   1.0746625), wk =   0.0416667
        k(   25) = (  -0.5000000   0.8382977   0.1535232), wk =   0.0416667
        k(   26) = (  -0.5000000   0.8382977   0.4605696), wk =   0.0416667
        k(   27) = (  -0.5000000   0.8382977   0.7676161), wk =   0.0416667
        k(   28) = (  -0.5000000   0.8382977   1.0746625), wk =   0.0416667
        k(   29) = (  -0.5000000   1.1736168   0.1535232), wk =   0.0416667
        k(   30) = (  -0.5000000   1.1736168   0.4605696), wk =   0.0416667
        k(   31) = (  -0.5000000   1.1736168   0.7676161), wk =   0.0416667
        k(   32) = (  -0.5000000   1.1736168   1.0746625), wk =   0.0416667

                       cryst. coord.
        k(    1) = (   0.1666667   0.0625000   0.0625000), wk =   0.0833333
        k(    2) = (   0.1666667   0.0625000   0.1875000), wk =   0.0833333
        k(    3) = (   0.1666667   0.0625000   0.3125000), wk =   0.0833333
        k(    4) = (   0.1666667   0.0625000   0.4375000), wk =   0.0833333
        k(    5) = (   0.1666667   0.1875000   0.0625000), wk =   0.0833333
        k(    6) = (   0.1666667   0.1875000   0.1875000), wk =   0.0833333
        k(    7) = (   0.1666667   0.1875000   0.3125000), wk =   0.0833333
        k(    8) = (   0.1666667   0.1875000   0.4375000), wk =   0.0833333
        k(    9) = (   0.1666667   0.3125000   0.0625000), wk =   0.0833333
        k(   10) = (   0.1666667   0.3125000   0.1875000), wk =   0.0833333
        k(   11) = (   0.1666667   0.3125000   0.3125000), wk =   0.0833333
        k(   12) = (   0.1666667   0.3125000   0.4375000), wk =   0.0833333
        k(   13) = (   0.1666667   0.4375000   0.0625000), wk =   0.0833333
        k(   14) = (   0.1666667   0.4375000   0.1875000), wk =   0.0833333
        k(   15) = (   0.1666667   0.4375000   0.3125000), wk =   0.0833333
        k(   16) = (   0.1666667   0.4375000   0.4375000), wk =   0.0833333
        k(   17) = (  -0.5000000   0.0625000   0.0625000), wk =   0.0416667
        k(   18) = (  -0.5000000   0.0625000   0.1875000), wk =   0.0416667
        k(   19) = (  -0.5000000   0.0625000   0.3125000), wk =   0.0416667
        k(   20) = (  -0.5000000   0.0625000   0.4375000), wk =   0.0416667
        k(   21) = (  -0.5000000   0.1875000   0.0625000), wk =   0.0416667
        k(   22) = (  -0.5000000   0.1875000   0.1875000), wk =   0.0416667
        k(   23) = (  -0.5000000   0.1875000   0.3125000), wk =   0.0416667
        k(   24) = (  -0.5000000   0.1875000   0.4375000), wk =   0.0416667
        k(   25) = (  -0.5000000   0.3125000   0.0625000), wk =   0.0416667
        k(   26) = (  -0.5000000   0.3125000   0.1875000), wk =   0.0416667
        k(   27) = (  -0.5000000   0.3125000   0.3125000), wk =   0.0416667
        k(   28) = (  -0.5000000   0.3125000   0.4375000), wk =   0.0416667
        k(   29) = (  -0.5000000   0.4375000   0.0625000), wk =   0.0416667
        k(   30) = (  -0.5000000   0.4375000   0.1875000), wk =   0.0416667
        k(   31) = (  -0.5000000   0.4375000   0.3125000), wk =   0.0416667
        k(   32) = (  -0.5000000   0.4375000   0.4375000), wk =   0.0416667

     Dense  grid:   356127 G-vectors     FFT dimensions: ( 180,  64,  72)

     Smooth grid:    90125 G-vectors     FFT dimensions: ( 108,  40,  48)

     Dynamical RAM for                 wfc:       3.44 MB

     Dynamical RAM for     wfc (w. buffer):      41.24 MB

     Dynamical RAM for           str. fact:       5.43 MB

     Dynamical RAM for           local pot:       0.00 MB

     Dynamical RAM for          nlocal pot:      12.37 MB

     Dynamical RAM for                qrad:       3.93 MB

     Dynamical RAM for          rho,v,vnew:      17.64 MB

     Dynamical RAM for               rhoin:       5.88 MB

     Dynamical RAM for            rho*nmix:      43.47 MB

     Dynamical RAM for           G-vectors:      10.53 MB

     Dynamical RAM for          h,s,v(r/c):       0.29 MB

     Dynamical RAM for          <psi|beta>:       0.09 MB

     Dynamical RAM for                 psi:       6.87 MB

     Dynamical RAM for                hpsi:       6.87 MB

     Dynamical RAM for                spsi:       6.87 MB

     Dynamical RAM for      wfcinit/wfcrot:       9.00 MB

     Dynamical RAM for           addusdens:     173.89 MB

     Dynamical RAM for          addusforce:     178.89 MB

     Estimated static dynamical RAM per process >     121.01 MB

     Estimated max dynamical RAM per process >     343.37 MB

     Estimated total dynamical RAM >       1.84 GB

     Initial potential from superposition of free atoms

     starting charge      75.9995, renormalised to      80.0000
     Starting wfcs are   52 randomized atomic wfcs

     total cpu time spent up to now is        3.9 secs

     Self-consistent Calculation

     iteration #  1     ecut=    60.00 Ry     beta= 0.70
     Davidson diagonalization with overlap

---- Real-time Memory Report at c_bands before calling an iterative solver
           391 MiB given to the printing process from OS
             0 MiB allocation reported by mallinfo(arena+hblkhd)
          4351 MiB available memory on the node where the printing process lives
------------------
     ethr =  1.00E-02,  avg # of iterations =  2.0

     total cpu time spent up to now is       10.7 secs

     total energy              =    -826.64166719 Ry
     estimated scf accuracy    <       2.66011741 Ry

     iteration #  2     ecut=    60.00 Ry     beta= 0.70
     Davidson diagonalization with overlap

---- Real-time Memory Report at c_bands before calling an iterative solver
           487 MiB given to the printing process from OS
             0 MiB allocation reported by mallinfo(arena+hblkhd)
          4078 MiB available memory on the node where the printing process lives
------------------
     ethr =  3.33E-03,  avg # of iterations =  3.0

     total cpu time spent up to now is       18.4 secs

     total energy              =    -827.54984105 Ry
     estimated scf accuracy    <       0.93288586 Ry

     iteration #  3     ecut=    60.00 Ry     beta= 0.70
     Davidson diagonalization with overlap

---- Real-time Memory Report at c_bands before calling an iterative solver
           529 MiB given to the printing process from OS
             0 MiB allocation reported by mallinfo(arena+hblkhd)
          3914 MiB available memory on the node where the printing process lives
------------------
     ethr =  1.17E-03,  avg # of iterations =  2.5

     total cpu time spent up to now is       25.0 secs

     total energy              =    -827.73621904 Ry
     estimated scf accuracy    <       0.00934253 Ry

     iteration #  4     ecut=    60.00 Ry     beta= 0.70
     Davidson diagonalization with overlap

---- Real-time Memory Report at c_bands before calling an iterative solver
           532 MiB given to the printing process from OS
             0 MiB allocation reported by mallinfo(arena+hblkhd)
          3909 MiB available memory on the node where the printing process lives
------------------
     ethr =  1.17E-05,  avg # of iterations =  5.0

     total cpu time spent up to now is       33.5 secs

     total energy              =    -827.74221204 Ry
     estimated scf accuracy    <       0.00447562 Ry

     iteration #  5     ecut=    60.00 Ry     beta= 0.70
     Davidson diagonalization with overlap

---- Real-time Memory Report at c_bands before calling an iterative solver
           535 MiB given to the printing process from OS
             0 MiB allocation reported by mallinfo(arena+hblkhd)
          3901 MiB available memory on the node where the printing process lives
------------------
     ethr =  5.59E-06,  avg # of iterations =  3.2

     total cpu time spent up to now is       40.4 secs

     total energy              =    -827.74365096 Ry
     estimated scf accuracy    <       0.00111065 Ry

     iteration #  6     ecut=    60.00 Ry     beta= 0.70
     Davidson diagonalization with overlap

---- Real-time Memory Report at c_bands before calling an iterative solver
           538 MiB given to the printing process from OS
             0 MiB allocation reported by mallinfo(arena+hblkhd)
          3897 MiB available memory on the node where the printing process lives
------------------
     ethr =  1.39E-06,  avg # of iterations =  2.2

     total cpu time spent up to now is       46.7 secs

     total energy              =    -827.74379541 Ry
     estimated scf accuracy    <       0.00003838 Ry

     iteration #  7     ecut=    60.00 Ry     beta= 0.70
     Davidson diagonalization with overlap

---- Real-time Memory Report at c_bands before calling an iterative solver
           540 MiB given to the printing process from OS
             0 MiB allocation reported by mallinfo(arena+hblkhd)
          3894 MiB available memory on the node where the printing process lives
------------------
     ethr =  4.80E-08,  avg # of iterations =  4.6

     total cpu time spent up to now is       54.9 secs

     total energy              =    -827.74382659 Ry
     estimated scf accuracy    <       0.00002121 Ry

     iteration #  8     ecut=    60.00 Ry     beta= 0.70
     Davidson diagonalization with overlap

---- Real-time Memory Report at c_bands before calling an iterative solver
           543 MiB given to the printing process from OS
             0 MiB allocation reported by mallinfo(arena+hblkhd)
          3890 MiB available memory on the node where the printing process lives
------------------
     ethr =  2.65E-08,  avg # of iterations =  2.1

     total cpu time spent up to now is       61.2 secs

     total energy              =    -827.74383050 Ry
     estimated scf accuracy    <       0.00000046 Ry

     iteration #  9     ecut=    60.00 Ry     beta= 0.70
     Davidson diagonalization with overlap

---- Real-time Memory Report at c_bands before calling an iterative solver
           545 MiB given to the printing process from OS
             0 MiB allocation reported by mallinfo(arena+hblkhd)
          3887 MiB available memory on the node where the printing process lives
------------------
     ethr =  5.80E-10,  avg # of iterations =  6.7

     total cpu time spent up to now is       73.9 secs

     total energy              =    -827.74383120 Ry
     estimated scf accuracy    <       0.00000005 Ry

     iteration # 10     ecut=    60.00 Ry     beta= 0.70
     Davidson diagonalization with overlap

---- Real-time Memory Report at c_bands before calling an iterative solver
           547 MiB given to the printing process from OS
             0 MiB allocation reported by mallinfo(arena+hblkhd)
          3881 MiB available memory on the node where the printing process lives
------------------
     ethr =  5.77E-11,  avg # of iterations =  3.7

     total cpu time spent up to now is       81.7 secs

     End of self-consistent calculation

          k = 0.1667 0.1677 0.1535 ( 11278 PWs)   bands (ev):

   -13.3462 -13.3350 -13.3309 -13.3290 -13.3272 -13.3260 -13.3223 -13.3187
   -13.3137 -13.3097 -13.3070 -13.3069 -13.2955 -13.2883 -13.2700 -13.2690
   -13.2617 -13.2612 -13.2497 -13.2427  -5.7764  -5.4611  -4.6909  -4.2558
     0.5621   1.4778   2.4454   2.7724   3.2391   4.4837   4.6114   4.8922
     5.1651   5.2988   5.8720   6.2213   6.4831   6.9626   7.2258   7.5236

     occupation numbers 
     1.0000   1.0000   1.0000   1.0000   1.0000   1.0000   1.0000   1.0000
     1.0000   1.0000   1.0000   1.0000   1.0000   1.0000   1.0000   1.0000
     1.0000   1.0000   1.0000   1.0000   1.0000   1.0000   1.0000   1.0000
     1.0000   1.0000   1.0000   1.0000   1.0000   1.0000   1.0000   1.0000
     1.0000   1.0000   1.0000   1.0000   1.0000   1.0000   1.0000   1.0000

          k = 0.1667 0.1677 0.4606 ( 11268 PWs)   bands (ev):

   -13.3445 -13.3345 -13.3308 -13.3300 -13.3273 -13.3269 -13.3230 -13.3198
   -13.3128 -13.3071 -13.3070 -13.3045 -13.2952 -13.2891 -13.2703 -13.2679
   -13.2624 -13.2623 -13.2491 -13.2432  -5.6565  -5.3510  -4.6962  -4.3033
     0.2545   1.2477   1.8650   2.4714   3.3473   4.5174   4.7328   5.3096
     5.4891   5.8361   5.8804   6.3242   6.6793   6.9839   7.3636   7.5908

     occupation numbers 
     1.0000   1.0000   1.0000   1.0000   1.0000   1.0000   1.0000   1.0000
     1.0000   1.0000   1.0000   1.0000   1.0000   1.0000   1.0000   1.0000
     1.0000   1.0000   1.0000   1.0000   1.0000   1.0000   1.0000   1.0000
     1.0000   1.0000   1.0000   1.0000   1.0000   1.0000   1.0000   1.0000
     1.0000   1.0000   1.0000   1.0000   1.0000   1.0000   1.0000   1.0000

          k = 0.1667 0.1677 0.7676 ( 11266 PWs)   bands (ev):

   -13.3417 -13.3342 -13.3318 -13.3307 -13.3288 -13.3270 -13.3236 -13.3214
   -13.3114 -13.3075 -13.3029 -13.3008 -13.2951 -13.2907 -13.2700 -13.2668
   -13.2643 -13.2633 -13.2481 -13.2442  -5.4394  -5.1536  -4.7459  -4.4181
    -0.0372   0.7538   1.4187   2.0013   3.6529   4.7475   4.9442   5.5635
     5.8650   5.9673   6.2505   6.3428   6.8532   7.3112   7.3870   7.8304

     occupation numbers 
     1.0000   1.0000   1.0000   1.0000   1.0000   1.0000   1.0000   1.0000
     1.0000   1.0000   1.0000   1.0000   1.0000   1.0000   1.0000   1.0000
     1.0000   1.0000   1.0000   1.0000   1.0000   1.0000   1.0000   1.0000
     1.0000   1.0000   1.0000   1.0000   1.0000   1.0000   1.0000   1.0000
     1.0000   1.0000   1.0000   1.0000   1.0000   1.0000   1.0000   1.0000

          k = 0.1667 0.1677 1.0747 ( 11247 PWs)   bands (ev):

   -13.3384 -13.3356 -13.3323 -13.3318 -13.3286 -13.3277 -13.3236 -13.3229
   -13.3098 -13.3085 -13.2988 -13.2972 -13.2957 -13.2932 -13.2686 -13.2667
   -13.2654 -13.2644 -13.2468 -13.2454  -5.1763  -4.9840  -4.8123  -4.6102
    -0.0720   0.2203   1.3497   1.5736   4.1193   4.6187   5.3302   5.6307
     5.8604   6.0055   6.3172   6.5621   7.1455   7.4363   7.6329   7.7132

     occupation numbers 
     1.0000   1.0000   1.0000   1.0000   1.0000   1.0000   1.0000   1.0000
     1.0000   1.0000   1.0000   1.0000   1.0000   1.0000   1.0000   1.0000
     1.0000   1.0000   1.0000   1.0000   1.0000   1.0000   1.0000   1.0000
     1.0000   1.0000   1.0000   1.0000   1.0000   1.0000   1.0000   1.0000
     1.0000   1.0000   1.0000   1.0000   1.0000   1.0000   1.0000   1.0000

          k = 0.1667 0.5030 0.1535 ( 11286 PWs)   bands (ev):

   -13.3402 -13.3335 -13.3315 -13.3285 -13.3260 -13.3256 -13.3240 -13.3219
   -13.3142 -13.3089 -13.3060 -13.3047 -13.2932 -13.2895 -13.2718 -13.2679
   -13.2650 -13.2595 -13.2497 -13.2444  -5.6119  -5.3204  -4.6298  -4.2684
     0.4250   1.2426   2.0859   2.2238   3.3527   4.3379   4.6628   5.0150
     5.3112   5.4739   5.9125   6.2757   6.4540   7.1159   7.4054   7.5418

     occupation numbers 
     1.0000   1.0000   1.0000   1.0000   1.0000   1.0000   1.0000   1.0000
     1.0000   1.0000   1.0000   1.0000   1.0000   1.0000   1.0000   1.0000
     1.0000   1.0000   1.0000   1.0000   1.0000   1.0000   1.0000   1.0000
     1.0000   1.0000   1.0000   1.0000   1.0000   1.0000   1.0000   1.0000
     1.0000   1.0000   1.0000   1.0000   1.0000   1.0000   1.0000   1.0000

          k = 0.1667 0.5030 0.4606 ( 11274 PWs)   bands (ev):

   -13.3401 -13.3337 -13.3329 -13.3292 -13.3263 -13.3256 -13.3237 -13.3229
   -13.3135 -13.3091 -13.3036 -13.3023 -13.2934 -13.2895 -13.2714 -13.2679
   -13.2653 -13.2605 -13.2492 -13.2446  -5.4981  -5.2170  -4.6317  -4.3029
     0.2710   1.1928   1.7262   2.1016   3.4879   3.9366   4.2544   5.1606
     5.3486   5.8979   6.0167   6.2610   6.8558   7.0125   7.3905   7.5712

     occupation numbers 
     1.0000   1.0000   1.0000   1.0000   1.0000   1.0000   1.0000   1.0000
     1.0000   1.0000   1.0000   1.0000   1.0000   1.0000   1.0000   1.0000
     1.0000   1.0000   1.0000   1.0000   1.0000   1.0000   1.0000   1.0000
     1.0000   1.0000   1.0000   1.0000   1.0000   1.0000   1.0000   1.0000
     1.0000   1.0000   1.0000   1.0000   1.0000   1.0000   1.0000   1.0000

          k = 0.1667 0.5030 0.7676 ( 11255 PWs)   bands (ev):

   -13.3400 -13.3356 -13.3332 -13.3304 -13.3272 -13.3250 -13.3247 -13.3226
   -13.3123 -13.3096 -13.2999 -13.2987 -13.2937 -13.2902 -13.2706 -13.2680
   -13.2654 -13.2621 -13.2482 -13.2452  -5.2939  -5.0339  -4.6713  -4.3923
     0.1087   0.8644   1.4522   1.8786   3.7427   3.8912   4.2054   5.0423
     5.1756   5.8766   5.9815   6.5083   6.7451   7.0354   7.2528   7.5843

     occupation numbers 
     1.0000   1.0000   1.0000   1.0000   1.0000   1.0000   1.0000   1.0000
     1.0000   1.0000   1.0000   1.0000   1.0000   1.0000   1.0000   1.0000
     1.0000   1.0000   1.0000   1.0000   1.0000   1.0000   1.0000   1.0000
     1.0000   1.0000   1.0000   1.0000   1.0000   1.0000   1.0000   1.0000
     1.0000   1.0000   1.0000   1.0000   1.0000   1.0000   1.0000   1.0000

          k = 0.1667 0.5030 1.0747 ( 11248 PWs)   bands (ev):

   -13.3395 -13.3380 -13.3327 -13.3317 -13.3273 -13.3263 -13.3236 -13.3228
   -13.3112 -13.3104 -13.2966 -13.2951 -13.2945 -13.2920 -13.2695 -13.2685
   -13.2648 -13.2636 -13.2471 -13.2460  -5.0513  -4.8785  -4.7270  -4.5515
     0.1227   0.3991   1.4508   1.6183   4.0580   4.1286   4.4226   4.7201
     5.0552   5.3643   6.0420   6.3236   6.7413   7.0082   7.2949   7.4978

     occupation numbers 
     1.0000   1.0000   1.0000   1.0000   1.0000   1.0000   1.0000   1.0000
     1.0000   1.0000   1.0000   1.0000   1.0000   1.0000   1.0000   1.0000
     1.0000   1.0000   1.0000   1.0000   1.0000   1.0000   1.0000   1.0000
     1.0000   1.0000   1.0000   1.0000   1.0000   1.0000   1.0000   1.0000
     1.0000   1.0000   1.0000   1.0000   1.0000   1.0000   1.0000   1.0000

          k = 0.1667 0.8383 0.1535 ( 11264 PWs)   bands (ev):

   -13.3379 -13.3356 -13.3343 -13.3334 -13.3232 -13.3214 -13.3199 -13.3182
   -13.3129 -13.3106 -13.3035 -13.3003 -13.2927 -13.2897 -13.2764 -13.2746
   -13.2613 -13.2565 -13.2497 -13.2470  -5.3104  -5.0746  -4.5698  -4.3548
     0.2460   0.9542   1.2786   1.7001   3.6948   4.4517   4.8346   5.2252
     5.5370   5.6477   6.0338   6.2253   6.5577   7.0827   7.2044   7.6066

     occupation numbers 
     1.0000   1.0000   1.0000   1.0000   1.0000   1.0000   1.0000   1.0000
     1.0000   1.0000   1.0000   1.0000   1.0000   1.0000   1.0000   1.0000
     1.0000   1.0000   1.0000   1.0000   1.0000   1.0000   1.0000   1.0000
     1.0000   1.0000   1.0000   1.0000   1.0000   1.0000   1.0000   1.0000
     1.0000   1.0000   1.0000   1.0000   1.0000   1.0000   1.0000   1.0000

          k = 0.1667 0.8383 0.4606 ( 11253 PWs)   bands (ev):

   -13.3408 -13.3376 -13.3357 -13.3339 -13.3237 -13.3204 -13.3194 -13.3180
   -13.3119 -13.3105 -13.3017 -13.2986 -13.2931 -13.2892 -13.2759 -13.2744
   -13.2614 -13.2573 -13.2492 -13.2469  -5.2108  -4.9866  -4.5611  -4.3609
     0.2869   1.0476   1.3156   1.5968   3.6894   3.8063   4.1969   4.8544
     5.2889   5.8158   5.8718   6.3660   6.4401   6.9072   7.0776   7.3665

     occupation numbers 
     1.0000   1.0000   1.0000   1.0000   1.0000   1.0000   1.0000   1.0000
     1.0000   1.0000   1.0000   1.0000   1.0000   1.0000   1.0000   1.0000
     1.0000   1.0000   1.0000   1.0000   1.0000   1.0000   1.0000   1.0000
     1.0000   1.0000   1.0000   1.0000   1.0000   1.0000   1.0000   1.0000
     1.0000   1.0000   1.0000   1.0000   1.0000   1.0000   1.0000   1.0000

          k = 0.1667 0.8383 0.7676 ( 11245 PWs)   bands (ev):

   -13.3438 -13.3412 -13.3372 -13.3358 -13.3233 -13.3197 -13.3191 -13.3178
   -13.3108 -13.3104 -13.2990 -13.2962 -13.2928 -13.2893 -13.2750 -13.2740
   -13.2612 -13.2584 -13.2485 -13.2469  -5.0373  -4.8358  -4.5744  -4.3959
     0.3529   0.9937   1.3836   1.5562   3.3091   3.6673   4.0937   4.4024
     4.7699   5.2821   5.6069   5.9949   6.3111   6.6392   6.9098   7.3417

     occupation numbers 
     1.0000   1.0000   1.0000   1.0000   1.0000   1.0000   1.0000   1.0000
     1.0000   1.0000   1.0000   1.0000   1.0000   1.0000   1.0000   1.0000
     1.0000   1.0000   1.0000   1.0000   1.0000   1.0000   1.0000   1.0000
     1.0000   1.0000   1.0000   1.0000   1.0000   1.0000   1.0000   1.0000
     1.0000   1.0000   1.0000   1.0000   1.0000   1.0000   1.0000   1.0000

          k = 0.1667 0.8383 1.0747 ( 11251 PWs)   bands (ev):

   -13.3452 -13.3442 -13.3380 -13.3375 -13.3221 -13.3207 -13.3183 -13.3178
   -13.3102 -13.3102 -13.2965 -13.2953 -13.2916 -13.2902 -13.2742 -13.2739
   -13.2605 -13.2595 -13.2477 -13.2472  -4.8413  -4.7123  -4.6042  -4.4853
     0.4738   0.7064   1.5157   1.5709   3.3289   3.6749   3.7972   4.1612
     4.5714   4.9399   5.3689   5.7504   6.0056   6.2873   7.0026   7.1264

     occupation numbers 
     1.0000   1.0000   1.0000   1.0000   1.0000   1.0000   1.0000   1.0000
     1.0000   1.0000   1.0000   1.0000   1.0000   1.0000   1.0000   1.0000
     1.0000   1.0000   1.0000   1.0000   1.0000   1.0000   1.0000   1.0000
     1.0000   1.0000   1.0000   1.0000   1.0000   1.0000   1.0000   1.0000
     1.0000   1.0000   1.0000   1.0000   1.0000   1.0000   1.0000   1.0000

          k = 0.1667 1.1736 0.1535 ( 11255 PWs)   bands (ev):

   -13.3403 -13.3390 -13.3369 -13.3358 -13.3193 -13.3179 -13.3168 -13.3150
   -13.3084 -13.3072 -13.3047 -13.2998 -13.2917 -13.2863 -13.2833 -13.2814
   -13.2559 -13.2533 -13.2507 -13.2505  -4.9339  -4.8015  -4.6109  -4.5822
     0.2445   0.5950   0.9031   1.1903   4.2044   4.6377   5.0455   5.4036
     5.5996   5.6294   6.0610   6.3783   6.6765   6.9287   6.9756   7.1554

     occupation numbers 
     1.0000   1.0000   1.0000   1.0000   1.0000   1.0000   1.0000   1.0000
     1.0000   1.0000   1.0000   1.0000   1.0000   1.0000   1.0000   1.0000
     1.0000   1.0000   1.0000   1.0000   1.0000   1.0000   1.0000   1.0000
     1.0000   1.0000   1.0000   1.0000   1.0000   1.0000   1.0000   1.0000
     1.0000   1.0000   1.0000   1.0000   1.0000   1.0000   1.0000   1.0000

          k = 0.1667 1.1736 0.4606 ( 11269 PWs)   bands (ev):

   -13.3432 -13.3420 -13.3384 -13.3375 -13.3198 -13.3181 -13.3155 -13.3144
   -13.3079 -13.3066 -13.3032 -13.2992 -13.2910 -13.2872 -13.2814 -13.2804
   -13.2561 -13.2541 -13.2501 -13.2499  -4.8608  -4.7392  -4.5796  -4.5475
     0.3907   0.7325   1.0197   1.2228   3.9589   4.1442   4.4337   4.7136
     4.9658   5.3927   5.9052   6.0966   6.2227   6.5034   7.0717   7.3128

     occupation numbers 
     1.0000   1.0000   1.0000   1.0000   1.0000   1.0000   1.0000   1.0000
     1.0000   1.0000   1.0000   1.0000   1.0000   1.0000   1.0000   1.0000
     1.0000   1.0000   1.0000   1.0000   1.0000   1.0000   1.0000   1.0000
     1.0000   1.0000   1.0000   1.0000   1.0000   1.0000   1.0000   1.0000
     1.0000   1.0000   1.0000   1.0000   1.0000   1.0000   1.0000   1.0000

          k = 0.1667 1.1736 0.7676 ( 11267 PWs)   bands (ev):

   -13.3470 -13.3460 -13.3406 -13.3400 -13.3200 -13.3185 -13.3143 -13.3137
   -13.3070 -13.3059 -13.3013 -13.2986 -13.2897 -13.2876 -13.2794 -13.2790
   -13.2563 -13.2550 -13.2495 -13.2493  -4.7418  -4.6410  -4.5440  -4.5048
     0.6393   0.9463   1.1974   1.2646   3.3178   3.7744   3.8881   4.1774
     4.5499   4.8600   5.2623   5.7182   5.8348   6.0852   6.9528   7.0818

     occupation numbers 
     1.0000   1.0000   1.0000   1.0000   1.0000   1.0000   1.0000   1.0000
     1.0000   1.0000   1.0000   1.0000   1.0000   1.0000   1.0000   1.0000
     1.0000   1.0000   1.0000   1.0000   1.0000   1.0000   1.0000   1.0000
     1.0000   1.0000   1.0000   1.0000   1.0000   1.0000   1.0000   1.0000
     1.0000   1.0000   1.0000   1.0000   1.0000   1.0000   1.0000   1.0000

          k = 0.1667 1.1736 1.0747 ( 11269 PWs)   bands (ev):

   -13.3494 -13.3490 -13.3421 -13.3419 -13.3198 -13.3192 -13.3136 -13.3134
   -13.3062 -13.3057 -13.2996 -13.2987 -13.2883 -13.2877 -13.2782 -13.2781
   -13.2561 -13.2556 -13.2491 -13.2490  -4.6252  -4.5681  -4.5280  -4.4931
     0.8875   1.0251   1.3272   1.3655   3.0669   3.2734   3.6751   3.7940
     4.3797   4.3957   4.9186   5.2490   5.7985   5.9844   6.7957   6.8506

     occupation numbers 
     1.0000   1.0000   1.0000   1.0000   1.0000   1.0000   1.0000   1.0000
     1.0000   1.0000   1.0000   1.0000   1.0000   1.0000   1.0000   1.0000
     1.0000   1.0000   1.0000   1.0000   1.0000   1.0000   1.0000   1.0000
     1.0000   1.0000   1.0000   1.0000   1.0000   1.0000   1.0000   1.0000
     1.0000   1.0000   1.0000   1.0000   1.0000   1.0000   1.0000   1.0000

          k =-0.5000 0.1677 0.1535 ( 11298 PWs)   bands (ev):

   -13.3412 -13.3412 -13.3289 -13.3289 -13.3279 -13.3279 -13.3199 -13.3199
   -13.3106 -13.3106 -13.3085 -13.3085 -13.2915 -13.2915 -13.2691 -13.2691
   -13.2618 -13.2618 -13.2460 -13.2460  -5.6474  -5.6474  -4.4447  -4.4447
     0.8854   0.8854   2.6963   2.6963   3.9393   3.9393   4.8070   4.8070
     5.3388   5.3388   5.9561   5.9561   6.3153   6.3153   7.4422   7.4422

     occupation numbers 
     1.0000   1.0000   1.0000   1.0000   1.0000   1.0000   1.0000   1.0000
     1.0000   1.0000   1.0000   1.0000   1.0000   1.0000   1.0000   1.0000
     1.0000   1.0000   1.0000   1.0000   1.0000   1.0000   1.0000   1.0000
     1.0000   1.0000   1.0000   1.0000   1.0000   1.0000   1.0000   1.0000
     1.0000   1.0000   1.0000   1.0000   1.0000   1.0000   1.0000   1.0000

          k =-0.5000 0.1677 0.4606 ( 11284 PWs)   bands (ev):

   -13.3401 -13.3401 -13.3293 -13.3293 -13.3282 -13.3282 -13.3212 -13.3212
   -13.3100 -13.3100 -13.3060 -13.3060 -13.2919 -13.2919 -13.2688 -13.2688
   -13.2626 -13.2626 -13.2460 -13.2460  -5.5327  -5.5327  -4.4707  -4.4707
     0.6107   0.6107   2.2244   2.2244   4.1883   4.1883   4.8855   4.8855
     5.5765   5.5765   6.1108   6.1108   6.7500   6.7500   7.3578   7.3578

     occupation numbers 
     1.0000   1.0000   1.0000   1.0000   1.0000   1.0000   1.0000   1.0000
     1.0000   1.0000   1.0000   1.0000   1.0000   1.0000   1.0000   1.0000
     1.0000   1.0000   1.0000   1.0000   1.0000   1.0000   1.0000   1.0000
     1.0000   1.0000   1.0000   1.0000   1.0000   1.0000   1.0000   1.0000
     1.0000   1.0000   1.0000   1.0000   1.0000   1.0000   1.0000   1.0000

          k =-0.5000 0.1677 0.7676 ( 11252 PWs)   bands (ev):

   -13.3384 -13.3384 -13.3309 -13.3309 -13.3278 -13.3278 -13.3229 -13.3229
   -13.3092 -13.3092 -13.3020 -13.3020 -13.2927 -13.2927 -13.2682 -13.2682
   -13.2639 -13.2639 -13.2460 -13.2460  -5.3279  -5.3279  -4.5510  -4.5510
     0.2970   0.2970   1.6759   1.6759   4.5134   4.5134   5.1721   5.1721
     5.7134   5.7134   6.3141   6.3141   6.9662   6.9662   7.5078   7.5078

     occupation numbers 
     1.0000   1.0000   1.0000   1.0000   1.0000   1.0000   1.0000   1.0000
     1.0000   1.0000   1.0000   1.0000   1.0000   1.0000   1.0000   1.0000
     1.0000   1.0000   1.0000   1.0000   1.0000   1.0000   1.0000   1.0000
     1.0000   1.0000   1.0000   1.0000   1.0000   1.0000   1.0000   1.0000
     1.0000   1.0000   1.0000   1.0000   1.0000   1.0000   1.0000   1.0000

          k =-0.5000 0.1677 1.0747 ( 11258 PWs)   bands (ev):

   -13.3368 -13.3368 -13.3322 -13.3322 -13.3277 -13.3277 -13.3240 -13.3240
   -13.3087 -13.3087 -13.2983 -13.2983 -13.2942 -13.2942 -13.2674 -13.2674
   -13.2652 -13.2652 -13.2460 -13.2460  -5.1032  -5.1032  -4.6893  -4.6893
     0.1254   0.1254   1.3144   1.3144   4.9225   4.9225   5.4728   5.4728
     5.5573   5.5573   6.1710   6.1710   7.3192   7.3192   7.6079   7.6079

     occupation numbers 
     1.0000   1.0000   1.0000   1.0000   1.0000   1.0000   1.0000   1.0000
     1.0000   1.0000   1.0000   1.0000   1.0000   1.0000   1.0000   1.0000
     1.0000   1.0000   1.0000   1.0000   1.0000   1.0000   1.0000   1.0000
     1.0000   1.0000   1.0000   1.0000   1.0000   1.0000   1.0000   1.0000
     1.0000   1.0000   1.0000   1.0000   1.0000   1.0000   1.0000   1.0000

          k =-0.5000 0.5030 0.1535 ( 11300 PWs)   bands (ev):

   -13.3369 -13.3369 -13.3305 -13.3305 -13.3255 -13.3255 -13.3230 -13.3230
   -13.3116 -13.3116 -13.3054 -13.3054 -13.2912 -13.2912 -13.2702 -13.2702
   -13.2618 -13.2618 -13.2469 -13.2469  -5.4919  -5.4919  -4.4225  -4.4225
     0.7312   0.7312   2.1921   2.1921   4.0641   4.0641   4.7111   4.7111
     5.6285   5.6285   5.8291   5.8291   6.4883   6.4883   7.5582   7.5582

     occupation numbers 
     1.0000   1.0000   1.0000   1.0000   1.0000   1.0000   1.0000   1.0000
     1.0000   1.0000   1.0000   1.0000   1.0000   1.0000   1.0000   1.0000
     1.0000   1.0000   1.0000   1.0000   1.0000   1.0000   1.0000   1.0000
     1.0000   1.0000   1.0000   1.0000   1.0000   1.0000   1.0000   1.0000
     1.0000   1.0000   1.0000   1.0000   1.0000   1.0000   1.0000   1.0000

          k =-0.5000 0.5030 0.4606 ( 11278 PWs)   bands (ev):

   -13.3370 -13.3370 -13.3315 -13.3315 -13.3257 -13.3257 -13.3230 -13.3230
   -13.3113 -13.3113 -13.3029 -13.3029 -13.2915 -13.2915 -13.2700 -13.2700
   -13.2625 -13.2625 -13.2467 -13.2467  -5.3834  -5.3834  -4.4409  -4.4409
     0.6132   0.6132   1.9590   1.9590   3.9934   3.9934   4.6347   4.6347
     5.3135   5.3135   6.2471   6.2471   6.8524   6.8524   7.4667   7.4667

     occupation numbers 
     1.0000   1.0000   1.0000   1.0000   1.0000   1.0000   1.0000   1.0000
     1.0000   1.0000   1.0000   1.0000   1.0000   1.0000   1.0000   1.0000
     1.0000   1.0000   1.0000   1.0000   1.0000   1.0000   1.0000   1.0000
     1.0000   1.0000   1.0000   1.0000   1.0000   1.0000   1.0000   1.0000
     1.0000   1.0000   1.0000   1.0000   1.0000   1.0000   1.0000   1.0000

          k =-0.5000 0.5030 0.7676 ( 11256 PWs)   bands (ev):

   -13.3374 -13.3374 -13.3334 -13.3334 -13.3255 -13.3255 -13.3229 -13.3229
   -13.3110 -13.3110 -13.2993 -13.2993 -13.2921 -13.2921 -13.2698 -13.2698
   -13.2634 -13.2634 -13.2465 -13.2465  -5.1918  -5.1918  -4.5041  -4.5041
     0.4307   0.4307   1.6458   1.6458   3.9807   3.9807   4.7998   4.7998
     5.1534   5.1534   6.3484   6.3484   6.7115   6.7115   7.4179   7.4179

     occupation numbers 
     1.0000   1.0000   1.0000   1.0000   1.0000   1.0000   1.0000   1.0000
     1.0000   1.0000   1.0000   1.0000   1.0000   1.0000   1.0000   1.0000
     1.0000   1.0000   1.0000   1.0000   1.0000   1.0000   1.0000   1.0000
     1.0000   1.0000   1.0000   1.0000   1.0000   1.0000   1.0000   1.0000
     1.0000   1.0000   1.0000   1.0000   1.0000   1.0000   1.0000   1.0000

          k =-0.5000 0.5030 1.0747 ( 11232 PWs)   bands (ev):

   -13.3377 -13.3377 -13.3348 -13.3348 -13.3250 -13.3250 -13.3231 -13.3231
   -13.3108 -13.3108 -13.2959 -13.2959 -13.2934 -13.2934 -13.2695 -13.2695
   -13.2641 -13.2641 -13.2463 -13.2463  -4.9853  -4.9853  -4.6196  -4.6196
     0.3049   0.3049   1.4158   1.4158   4.2194   4.2194   4.6418   4.6418
     5.3774   5.3774   5.9898   5.9898   6.6469   6.6469   7.2541   7.2541

     occupation numbers 
     1.0000   1.0000   1.0000   1.0000   1.0000   1.0000   1.0000   1.0000
     1.0000   1.0000   1.0000   1.0000   1.0000   1.0000   1.0000   1.0000
     1.0000   1.0000   1.0000   1.0000   1.0000   1.0000   1.0000   1.0000
     1.0000   1.0000   1.0000   1.0000   1.0000   1.0000   1.0000   1.0000
     1.0000   1.0000   1.0000   1.0000   1.0000   1.0000   1.0000   1.0000

          k =-0.5000 0.8383 0.1535 ( 11256 PWs)   bands (ev):

   -13.3374 -13.3374 -13.3331 -13.3331 -13.3217 -13.3217 -13.3201 -13.3201
   -13.3114 -13.3114 -13.3020 -13.3020 -13.2910 -13.2910 -13.2758 -13.2758
   -13.2588 -13.2588 -13.2483 -13.2483  -5.2117  -5.2117  -4.4421  -4.4421
     0.5342   0.5342   1.4849   1.4849   4.3450   4.3450   4.8941   4.8941
     5.7846   5.7846   5.9461   5.9461   6.4845   6.4845   7.4032   7.4032

     occupation numbers 
     1.0000   1.0000   1.0000   1.0000   1.0000   1.0000   1.0000   1.0000
     1.0000   1.0000   1.0000   1.0000   1.0000   1.0000   1.0000   1.0000
     1.0000   1.0000   1.0000   1.0000   1.0000   1.0000   1.0000   1.0000
     1.0000   1.0000   1.0000   1.0000   1.0000   1.0000   1.0000   1.0000
     1.0000   1.0000   1.0000   1.0000   1.0000   1.0000   1.0000   1.0000

          k =-0.5000 0.8383 0.4606 ( 11274 PWs)   bands (ev):

   -13.3392 -13.3392 -13.3351 -13.3351 -13.3216 -13.3216 -13.3191 -13.3191
   -13.3111 -13.3111 -13.3003 -13.3003 -13.2909 -13.2909 -13.2756 -13.2756
   -13.2590 -13.2590 -13.2481 -13.2481  -5.1178  -5.1178  -4.4414  -4.4414
     0.5950   0.5950   1.4664   1.4664   3.8713   3.8713   4.7314   4.7314
     5.2094   5.2094   6.1908   6.1908   6.4280   6.4280   7.3082   7.3082

     occupation numbers 
     1.0000   1.0000   1.0000   1.0000   1.0000   1.0000   1.0000   1.0000
     1.0000   1.0000   1.0000   1.0000   1.0000   1.0000   1.0000   1.0000
     1.0000   1.0000   1.0000   1.0000   1.0000   1.0000   1.0000   1.0000
     1.0000   1.0000   1.0000   1.0000   1.0000   1.0000   1.0000   1.0000
     1.0000   1.0000   1.0000   1.0000   1.0000   1.0000   1.0000   1.0000

          k =-0.5000 0.8383 0.7676 ( 11260 PWs)   bands (ev):

   -13.3417 -13.3417 -13.3377 -13.3377 -13.3210 -13.3210 -13.3184 -13.3184
   -13.3106 -13.3106 -13.2982 -13.2982 -13.2904 -13.2904 -13.2753 -13.2753
   -13.2593 -13.2593 -13.2477 -13.2477  -4.9567  -4.9567  -4.4651  -4.4651
     0.6373   0.6373   1.4552   1.4552   3.5340   3.5340   4.3862   4.3862
     4.9697   4.9697   5.6791   5.6791   6.3497   6.3497   7.1958   7.1958

     occupation numbers 
     1.0000   1.0000   1.0000   1.0000   1.0000   1.0000   1.0000   1.0000
     1.0000   1.0000   1.0000   1.0000   1.0000   1.0000   1.0000   1.0000
     1.0000   1.0000   1.0000   1.0000   1.0000   1.0000   1.0000   1.0000
     1.0000   1.0000   1.0000   1.0000   1.0000   1.0000   1.0000   1.0000
     1.0000   1.0000   1.0000   1.0000   1.0000   1.0000   1.0000   1.0000

          k =-0.5000 0.8383 1.0747 ( 11256 PWs)   bands (ev):

   -13.3433 -13.3433 -13.3397 -13.3397 -13.3203 -13.3203 -13.3183 -13.3183
   -13.3103 -13.3103 -13.2968 -13.2968 -13.2898 -13.2898 -13.2750 -13.2750
   -13.2595 -13.2595 -13.2474 -13.2474  -4.7914  -4.7914  -4.5306  -4.5306
     0.6185   0.6185   1.4776   1.4776   3.5475   3.5475   3.9182   3.9182
     4.9768   4.9768   5.2925   5.2925   6.3554   6.3554   6.8801   6.8801

     occupation numbers 
     1.0000   1.0000   1.0000   1.0000   1.0000   1.0000   1.0000   1.0000
     1.0000   1.0000   1.0000   1.0000   1.0000   1.0000   1.0000   1.0000
     1.0000   1.0000   1.0000   1.0000   1.0000   1.0000   1.0000   1.0000
     1.0000   1.0000   1.0000   1.0000   1.0000   1.0000   1.0000   1.0000
     1.0000   1.0000   1.0000   1.0000   1.0000   1.0000   1.0000   1.0000

          k =-0.5000 1.1736 0.1535 ( 11264 PWs)   bands (ev):

   -13.3389 -13.3389 -13.3374 -13.3374 -13.3177 -13.3177 -13.3170 -13.3170
   -13.3073 -13.3073 -13.3024 -13.3024 -13.2885 -13.2885 -13.2828 -13.2828
   -13.2545 -13.2545 -13.2507 -13.2507  -4.8755  -4.8755  -4.5893  -4.5893
     0.5311   0.5311   0.8675   0.8675   4.8042   4.8042   5.1583   5.1583
     5.6644   5.6644   5.9183   5.9183   6.6054   6.6054   6.9938   6.9938

     occupation numbers 
     1.0000   1.0000   1.0000   1.0000   1.0000   1.0000   1.0000   1.0000
     1.0000   1.0000   1.0000   1.0000   1.0000   1.0000   1.0000   1.0000
     1.0000   1.0000   1.0000   1.0000   1.0000   1.0000   1.0000   1.0000
     1.0000   1.0000   1.0000   1.0000   1.0000   1.0000   1.0000   1.0000
     1.0000   1.0000   1.0000   1.0000   1.0000   1.0000   1.0000   1.0000

          k =-0.5000 1.1736 0.4606 ( 11264 PWs)   bands (ev):

   -13.3412 -13.3412 -13.3396 -13.3396 -13.3176 -13.3176 -13.3166 -13.3166
   -13.3066 -13.3066 -13.3018 -13.3018 -13.2876 -13.2876 -13.2821 -13.2821
   -13.2544 -13.2544 -13.2505 -13.2505  -4.8076  -4.8076  -4.5565  -4.5565
     0.6620   0.6620   0.9655   0.9655   4.1492   4.1492   4.6897   4.6897
     5.2523   5.2523   5.6948   5.6948   6.4796   6.4796   6.9209   6.9209

     occupation numbers 
     1.0000   1.0000   1.0000   1.0000   1.0000   1.0000   1.0000   1.0000
     1.0000   1.0000   1.0000   1.0000   1.0000   1.0000   1.0000   1.0000
     1.0000   1.0000   1.0000   1.0000   1.0000   1.0000   1.0000   1.0000
     1.0000   1.0000   1.0000   1.0000   1.0000   1.0000   1.0000   1.0000
     1.0000   1.0000   1.0000   1.0000   1.0000   1.0000   1.0000   1.0000

          k =-0.5000 1.1736 0.7676 ( 11254 PWs)   bands (ev):

   -13.3443 -13.3443 -13.3428 -13.3428 -13.3174 -13.3174 -13.3163 -13.3163
   -13.3057 -13.3057 -13.3009 -13.3009 -13.2862 -13.2862 -13.2810 -13.2810
   -13.2544 -13.2544 -13.2503 -13.2503  -4.6991  -4.6991  -4.5170  -4.5170
     0.8553   0.8553   1.1320   1.1320   3.5928   3.5928   4.1102   4.1102
     4.6828   4.6828   5.1456   5.1456   6.4217   6.4217   6.7967   6.7967

     occupation numbers 
     1.0000   1.0000   1.0000   1.0000   1.0000   1.0000   1.0000   1.0000
     1.0000   1.0000   1.0000   1.0000   1.0000   1.0000   1.0000   1.0000
     1.0000   1.0000   1.0000   1.0000   1.0000   1.0000   1.0000   1.0000
     1.0000   1.0000   1.0000   1.0000   1.0000   1.0000   1.0000   1.0000
     1.0000   1.0000   1.0000   1.0000   1.0000   1.0000   1.0000   1.0000

          k =-0.5000 1.1736 1.0747 ( 11258 PWs)   bands (ev):

   -13.3464 -13.3464 -13.3450 -13.3450 -13.3173 -13.3173 -13.3162 -13.3162
   -13.3051 -13.3051 -13.3003 -13.3003 -13.2852 -13.2852 -13.2803 -13.2803
   -13.2544 -13.2544 -13.2501 -13.2501  -4.6019  -4.6019  -4.5054  -4.5054
     0.9756   0.9756   1.3007   1.3007   3.4110   3.4110   3.6559   3.6559
     4.3340   4.3340   4.6150   4.6150   6.5245   6.5245   6.7142   6.7142

     occupation numbers 
     1.0000   1.0000   1.0000   1.0000   1.0000   1.0000   1.0000   1.0000
     1.0000   1.0000   1.0000   1.0000   1.0000   1.0000   1.0000   1.0000
     1.0000   1.0000   1.0000   1.0000   1.0000   1.0000   1.0000   1.0000
     1.0000   1.0000   1.0000   1.0000   1.0000   1.0000   1.0000   1.0000
     1.0000   1.0000   1.0000   1.0000   1.0000   1.0000   1.0000   1.0000

     highest occupied level (ev):     7.8304

!    total energy              =    -827.74383122 Ry
     estimated scf accuracy    <          8.6E-09 Ry

     The total energy is the sum of the following terms:
     one-electron contribution =    -259.82809913 Ry
     hartree contribution      =     180.27908098 Ry
     xc contribution           =    -309.12288945 Ry
     ewald contribution        =    -438.94950842 Ry
     DFT-D3 Dispersion         =      -0.12241520 Ry

     convergence has been achieved in  10 iterations

     Forces acting on atoms (cartesian axes, Ry/au):

     atom    1 type  2   force =     0.01132436    0.00000000    0.00105479
     atom    2 type  1   force =    -0.01159458    0.00000000   -0.00043619
     atom    3 type  2   force =    -0.01132436    0.00000000    0.00105479
     atom    4 type  1   force =     0.01159458    0.00000000   -0.00043619
     atom    5 type  2   force =     0.01132436    0.00000000   -0.00105479
     atom    6 type  1   force =    -0.01159458    0.00000000    0.00043619
     atom    7 type  2   force =    -0.01132436    0.00000000   -0.00105479
     atom    8 type  1   force =     0.01159458   -0.00000000    0.00043619
     The non-local contrib.  to forces
     atom    1 type  2   force =    -0.10675504    0.00000000    0.11233491
     atom    2 type  1   force =     0.35278137    0.00000000    0.30427303
     atom    3 type  2   force =     0.10675504    0.00000000    0.11233491
     atom    4 type  1   force =    -0.35278137    0.00000000    0.30427303
     atom    5 type  2   force =    -0.10675504    0.00000000   -0.11233491
     atom    6 type  1   force =     0.35278137    0.00000000   -0.30427303
     atom    7 type  2   force =     0.10675504    0.00000000   -0.11233491
     atom    8 type  1   force =    -0.35278137    0.00000000   -0.30427303
     The ionic contribution  to forces
     atom    1 type  2   force =     1.37867740   -0.00000000   -1.19156047
     atom    2 type  1   force =    -0.66370411    0.00000000   -0.60238482
     atom    3 type  2   force =    -1.37867740    0.00000000   -1.19156047
     atom    4 type  1   force =     0.66370411    0.00000000   -0.60238482
     atom    5 type  2   force =     1.37867740    0.00000000    1.19156047
     atom    6 type  1   force =    -0.66370411   -0.00000000    0.60238482
     atom    7 type  2   force =    -1.37867740    0.00000000    1.19156047
     atom    8 type  1   force =     0.66370411    0.00000000    0.60238482
     The local contribution  to forces
     atom    1 type  2   force =    -1.27132192    0.00000000    1.09132187
     atom    2 type  1   force =     0.30492525    0.00000000    0.30212674
     atom    3 type  2   force =     1.27132192   -0.00000000    1.09132187
     atom    4 type  1   force =    -0.30492525    0.00000000    0.30212674
     atom    5 type  2   force =    -1.27132192    0.00000000   -1.09132187
     atom    6 type  1   force =     0.30492525    0.00000000   -0.30212674
     atom    7 type  2   force =     1.27132192    0.00000000   -1.09132187
     atom    8 type  1   force =    -0.30492525    0.00000000   -0.30212674
     The core correction contribution to forces
     atom    1 type  2   force =     0.01158404    0.00000000   -0.01250370
     atom    2 type  1   force =    -0.00484956   -0.00000000   -0.00540399
     atom    3 type  2   force =    -0.01158404   -0.00000000   -0.01250370
     atom    4 type  1   force =     0.00484956    0.00000000   -0.00540399
     atom    5 type  2   force =     0.01158404   -0.00000000    0.01250370
     atom    6 type  1   force =    -0.00484956    0.00000000    0.00540399
     atom    7 type  2   force =    -0.01158404   -0.00000000    0.01250370
     atom    8 type  1   force =     0.00484956   -0.00000000    0.00540399
     The Hubbard contrib.    to forces
     atom    1 type  2   force =     0.00000000    0.00000000    0.00000000
     atom    2 type  1   force =     0.00000000    0.00000000    0.00000000
     atom    3 type  2   force =     0.00000000    0.00000000    0.00000000
     atom    4 type  1   force =     0.00000000    0.00000000    0.00000000
     atom    5 type  2   force =     0.00000000    0.00000000    0.00000000
     atom    6 type  1   force =     0.00000000    0.00000000    0.00000000
     atom    7 type  2   force =     0.00000000    0.00000000    0.00000000
     atom    8 type  1   force =     0.00000000    0.00000000    0.00000000
     The SCF correction term to forces
     atom    1 type  2   force =    -0.00000402   -0.00000000   -0.00000091
     atom    2 type  1   force =    -0.00004920    0.00000000   -0.00006138
     atom    3 type  2   force =     0.00000402    0.00000000   -0.00000091
     atom    4 type  1   force =     0.00004920   -0.00000000   -0.00006138
     atom    5 type  2   force =    -0.00000402   -0.00000000    0.00000091
     atom    6 type  1   force =    -0.00004920   -0.00000000    0.00006138
     atom    7 type  2   force =     0.00000402   -0.00000000    0.00000091
     atom    8 type  1   force =     0.00004920    0.00000000    0.00006138

     DFT-D3 dispersion contribution to forces:
     atom    1 type  2   force =    -0.00085609    0.00000000    0.00146307
     atom    2 type  1   force =    -0.00069834   -0.00000000    0.00101422
     atom    3 type  2   force =     0.00085609    0.00000000    0.00146307
     atom    4 type  1   force =     0.00069834   -0.00000000    0.00101422
     atom    5 type  2   force =    -0.00085609    0.00000000   -0.00146307
     atom    6 type  1   force =    -0.00069834   -0.00000000   -0.00101422
     atom    7 type  2   force =     0.00085609    0.00000000   -0.00146307
     atom    8 type  1   force =     0.00069834   -0.00000000   -0.00101422

     Total force =     0.032495     Total SCF correction =     0.000158

     DFT-D3 dispersion Force =     0.004190

     Writing all to output data dir ./tmp/SnSe_pnma.save/ :
     XML data file, charge density, pseudopotentials, collected wavefunctions
 
     init_run     :      3.29s CPU      3.62s WALL (       1 calls)
     electrons    :     73.77s CPU     77.88s WALL (       1 calls)
     forces       :      1.26s CPU      1.45s WALL (       1 calls)
     force_dftd3  :      0.06s CPU      0.06s WALL (       1 calls)

     Called by init_run:
     wfcinit      :      2.14s CPU      2.19s WALL (       1 calls)
     wfcinit:atom :      0.03s CPU      0.03s WALL (      11 calls)
     wfcinit:wfcr :      1.90s CPU      1.91s WALL (      11 calls)
     potinit      :      0.27s CPU      0.33s WALL (       1 calls)
     hinit0       :      0.29s CPU      0.31s WALL (       1 calls)

     Called by electrons:
     c_bands      :     55.28s CPU     55.64s WALL (      10 calls)
     sum_band     :     12.95s CPU     14.72s WALL (      10 calls)
     v_of_rho     :      2.18s CPU      2.34s WALL (      11 calls)
     v_h          :      0.16s CPU      0.17s WALL (      11 calls)
     v_xc         :      2.18s CPU      2.36s WALL (      12 calls)
     newd         :      3.53s CPU      5.51s WALL (      11 calls)
     mix_rho      :      0.23s CPU      0.24s WALL (      10 calls)
     energy_dftd3 :      0.04s CPU      0.04s WALL (       1 calls)

     Called by c_bands:
     init_us_2    :      1.38s CPU      1.40s WALL (     242 calls)
     cegterg      :     50.28s CPU     50.50s WALL (     110 calls)

     Called by sum_band:
     sum_band:wei :      0.00s CPU      0.00s WALL (      10 calls)
     sum_band:loo :      8.94s CPU      8.99s WALL (      10 calls)
     sum_band:buf :      0.08s CPU      0.08s WALL (     110 calls)
     sum_band:ini :      0.59s CPU      0.59s WALL (     110 calls)
     sum_band:cal :      0.81s CPU      0.81s WALL (     110 calls)
     sum_band:bec :      0.01s CPU      0.01s WALL (     110 calls)
     addusdens    :      3.49s CPU      5.16s WALL (      10 calls)
                                        0.00s GPU  (      10 calls)
     addusd:skk   :      0.03s CPU      0.03s WALL (      20 calls)
                                        0.00s GPU  (      20 calls)

     Called by *egterg:
     cdiaghg      :      0.81s CPU      0.82s WALL (     512 calls)
     cegterg:over :      2.18s CPU      2.18s WALL (     402 calls)
     cegterg:upda :      1.32s CPU      1.33s WALL (     402 calls)
     cegterg:last :      3.28s CPU      3.28s WALL (     303 calls)
     h_psi        :     40.06s CPU     40.25s WALL (     523 calls)
     s_psi        :      3.24s CPU      3.24s WALL (     523 calls)
     g_psi        :      0.13s CPU      0.13s WALL (     402 calls)

     Called by h_psi:
     h_psi:calbec :      2.89s CPU      2.90s WALL (     523 calls)
     vloc_psi     :     33.70s CPU     33.86s WALL (     523 calls)
     add_vuspsi   :      3.21s CPU      3.22s WALL (     523 calls)

     General routines
     calbec       :      4.03s CPU      4.04s WALL (     677 calls)
     fft          :      1.15s CPU      1.18s WALL (     152 calls)
     ffts         :      0.03s CPU      0.04s WALL (      21 calls)
     fftw         :     21.74s CPU     21.84s WALL (   33892 calls)
     interpolate  :      0.12s CPU      0.13s WALL (      11 calls)
 
     Parallel routines
 
     PWSCF        :   1m18.61s CPU   1m24.14s WALL

 
   This run was terminated on:  20:15:39  20May2026            

=------------------------------------------------------------------------------=
   JOB DONE.
=------------------------------------------------------------------------------=
