
     Program PWSCF v.7.3.1 starts on 20May2026 at 15: 1:26 

     This program is part of the open-source Quantum ESPRESSO suite
     for quantum simulation of materials; please cite
         "P. Giannozzi et al., J. Phys.:Condens. Matter 21 395502 (2009);
         "P. Giannozzi et al., J. Phys.:Condens. Matter 29 465901 (2017);
         "P. Giannozzi et al., J. Chem. Phys. 152 154105 (2020);
          URL http://www.quantum-espresso.org", 
     in publications or presentations arising from this work. More details at
     http://www.quantum-espresso.org/quote

     Parallel version (MPI & OpenMP), running on       6 processor cores
     Number of MPI processes:                 6
     Threads/MPI process:                     1

     MPI processes distributed on     1 nodes
     10808 MiB available memory on the printing compute node when the environment starts
 
     Waiting for input...
     Reading input from standard input

     Current dimensions of program PWSCF are:
     Max number of different atomic species (ntypx) = 10
     Max number of k-points (npk) =  40000
     Max angular momentum in pseudopotentials (lmaxx) =  4
 
     K-points division:     npool     =       3
     R & G space division:  proc/nbgrp/npool/nimage =       2
     Subspace diagonalization in iterative solution of the eigenvalue problem:
     a serial algorithm will be used

 
     Parallelization info
     --------------------
     sticks:   dense  smooth     PW     G-vecs:    dense   smooth      PW
     Min        1958     779    234                62110    15657    2540
     Max        1959     780    235                62113    15660    2541
     Sum        3917    1559    469               124223    31317    5081
 
     Using Slab Decomposition
 


     bravais-lattice index     =            8
     lattice parameter (alat)  =      20.8626  a.u.
     unit-cell volume          =    1415.7402 (a.u.)^3
     number of atoms/cell      =            8
     number of atomic types    =            2
     number of electrons       =        80.00
     number of Kohn-Sham states=           40
     kinetic-energy cutoff     =      30.0000  Ry
     charge density cutoff     =     300.0000  Ry
     scf convergence threshold =      1.0E-08
     mixing beta               =       0.7000
     number of iterations used =            8  plain     mixing
     Exchange-correlation= SLA  PW   PBE  PBE
                           (   1   4   3   4   0   0   0)

     celldm(1)=  20.862576  celldm(2)=   0.377844  celldm(3)=   0.412636
     celldm(4)=   0.000000  celldm(5)=   0.000000  celldm(6)=   0.000000

     crystal axes: (cart. coord. in units of alat)
               a(1) = (   1.000000   0.000000   0.000000 )  
               a(2) = (   0.000000   0.377844   0.000000 )  
               a(3) = (   0.000000   0.000000   0.412636 )  

     reciprocal axes: (cart. coord. in units 2 pi/alat)
               b(1) = (  1.000000  0.000000  0.000000 )  
               b(2) = (  0.000000  2.646593  0.000000 )  
               b(3) = (  0.000000  0.000000  2.423444 )  


     PseudoPot. # 1 for Sn read from file:
     ../pseudo/Sn_pbe_v1.uspp.F.UPF
     MD5 check sum: 4cf58ce39ec5d5d420df3dd08604eb00
     Pseudo is Ultrasoft + core correction, Zval = 14.0
     Generated by new atomic code, or converted to UPF format
     Using radial grid of  891 points,  6 beta functions with: 
                l(1) =   0
                l(2) =   0
                l(3) =   1
                l(4) =   1
                l(5) =   2
                l(6) =   2
     Q(r) pseudized with  6 coefficients,  rinner =    1.200   1.200   1.200
                                                       1.200   1.200

     PseudoPot. # 2 for Se read from file:
     ../pseudo/Se_pbe_v1.uspp.F.UPF
     MD5 check sum: 1b3568f3a8ae88f9a2a0ad0698632c85
     Pseudo is Ultrasoft + core correction, Zval =  6.0
     Generated by new atomic code, or converted to UPF format
     Using radial grid of  877 points,  6 beta functions with: 
                l(1) =   0
                l(2) =   0
                l(3) =   1
                l(4) =   1
                l(5) =   2
                l(6) =   2
     Q(r) pseudized with  8 coefficients,  rinner =    1.300   1.300   1.300
                                                       1.300   1.300

     atomic species   valence    mass     pseudopotential
     Sn               14.00   118.71000     Sn( 1.00)
     Se                6.00    78.97100     Se( 1.00)

      8 Sym. Ops., with inversion, found ( 6 have fractional translation)


                                    s                        frac. trans.

      isym =  1     identity                                     

 cryst.   s( 1) = (     1          0          0      )
                  (     0          1          0      )
                  (     0          0          1      )

 cart.    s( 1) = (  1.0000000  0.0000000  0.0000000 )
                  (  0.0000000  1.0000000  0.0000000 )
                  (  0.0000000  0.0000000  1.0000000 )


      isym =  2     180 deg rotation - cart. axis [0,0,1]        

 cryst.   s( 2) = (    -1          0          0      )    f =(  0.5000000 )
                  (     0         -1          0      )       (  0.0000000 )
                  (     0          0          1      )       ( -0.5000000 )

 cart.    s( 2) = ( -1.0000000  0.0000000  0.0000000 )    f =(  0.5000000 )
                  (  0.0000000 -1.0000000  0.0000000 )       (  0.0000000 )
                  (  0.0000000  0.0000000  1.0000000 )       ( -0.2063179 )


      isym =  3     180 deg rotation - cart. axis [0,1,0]        

 cryst.   s( 3) = (    -1          0          0      )    f =(  0.0000000 )
                  (     0          1          0      )       (  0.5000000 )
                  (     0          0         -1      )       (  0.0000000 )

 cart.    s( 3) = ( -1.0000000  0.0000000  0.0000000 )    f =(  0.0000000 )
                  (  0.0000000  1.0000000  0.0000000 )       (  0.1889221 )
                  (  0.0000000  0.0000000 -1.0000000 )       (  0.0000000 )


      isym =  4     180 deg rotation - cart. axis [1,0,0]        

 cryst.   s( 4) = (     1          0          0      )    f =(  0.5000000 )
                  (     0         -1          0      )       (  0.5000000 )
                  (     0          0         -1      )       ( -0.5000000 )

 cart.    s( 4) = (  1.0000000  0.0000000  0.0000000 )    f =(  0.5000000 )
                  (  0.0000000 -1.0000000  0.0000000 )       (  0.1889221 )
                  (  0.0000000  0.0000000 -1.0000000 )       ( -0.2063179 )


      isym =  5     inversion                                    

 cryst.   s( 5) = (    -1          0          0      )
                  (     0         -1          0      )
                  (     0          0         -1      )

 cart.    s( 5) = ( -1.0000000  0.0000000  0.0000000 )
                  (  0.0000000 -1.0000000  0.0000000 )
                  (  0.0000000  0.0000000 -1.0000000 )


      isym =  6     inv. 180 deg rotation - cart. axis [0,0,1]   

 cryst.   s( 6) = (     1          0          0      )    f =(  0.5000000 )
                  (     0          1          0      )       (  0.0000000 )
                  (     0          0         -1      )       ( -0.5000000 )

 cart.    s( 6) = (  1.0000000  0.0000000  0.0000000 )    f =(  0.5000000 )
                  (  0.0000000  1.0000000  0.0000000 )       (  0.0000000 )
                  (  0.0000000  0.0000000 -1.0000000 )       ( -0.2063179 )


      isym =  7     inv. 180 deg rotation - cart. axis [0,1,0]   

 cryst.   s( 7) = (     1          0          0      )    f =(  0.0000000 )
                  (     0         -1          0      )       (  0.5000000 )
                  (     0          0          1      )       (  0.0000000 )

 cart.    s( 7) = (  1.0000000  0.0000000  0.0000000 )    f =(  0.0000000 )
                  (  0.0000000 -1.0000000  0.0000000 )       (  0.1889221 )
                  (  0.0000000  0.0000000  1.0000000 )       (  0.0000000 )


      isym =  8     inv. 180 deg rotation - cart. axis [1,0,0]   

 cryst.   s( 8) = (    -1          0          0      )    f =(  0.5000000 )
                  (     0          1          0      )       (  0.5000000 )
                  (     0          0          1      )       ( -0.5000000 )

 cart.    s( 8) = ( -1.0000000  0.0000000  0.0000000 )    f =(  0.5000000 )
                  (  0.0000000  1.0000000  0.0000000 )       (  0.1889221 )
                  (  0.0000000  0.0000000  1.0000000 )       ( -0.2063179 )


     point group D_2h (mmm) 
     there are  8 classes
     the character table:

       E     C2    C2'   C2''  i     s_v   s_v'  s_v''
A_g    1.00  1.00  1.00  1.00  1.00  1.00  1.00  1.00
B_1g   1.00  1.00 -1.00 -1.00  1.00  1.00 -1.00 -1.00
B_2g   1.00 -1.00  1.00 -1.00  1.00 -1.00  1.00 -1.00
B_3g   1.00 -1.00 -1.00  1.00  1.00 -1.00 -1.00  1.00
A_u    1.00  1.00  1.00  1.00 -1.00 -1.00 -1.00 -1.00
B_1u   1.00  1.00 -1.00 -1.00 -1.00 -1.00  1.00  1.00
B_2u   1.00 -1.00  1.00 -1.00 -1.00  1.00 -1.00  1.00
B_3u   1.00 -1.00 -1.00  1.00 -1.00  1.00  1.00 -1.00

     the symmetry operations in each class and the name of the first element:

     E        1
          identity                                               
     C2       2
          180 deg rotation - cart. axis [0,0,1]                  
     C2'      4
          180 deg rotation - cart. axis [1,0,0]                  
     C2''     3
          180 deg rotation - cart. axis [0,1,0]                  
     i        5
          inversion                                              
     s_v      6
          inv. 180 deg rotation - cart. axis [0,0,1]             
     s_v'     8
          inv. 180 deg rotation - cart. axis [1,0,0]             
     s_v''    7
          inv. 180 deg rotation - cart. axis [0,1,0]             

   Cartesian axes

     site n.     atom                  positions (alat units)
         1        Se     tau(   1) = (   0.8549563   0.0944611   0.1994055  )
         2        Sn     tau(   2) = (   0.1165395   0.0944611   0.0463337  )
         3        Se     tau(   3) = (   0.6450437   0.2833832   0.4057234  )
         4        Sn     tau(   4) = (   0.3834605   0.2833832   0.2526516  )
         5        Se     tau(   5) = (   0.3549563   0.0944611   0.0069124  )
         6        Sn     tau(   6) = (   0.6165395   0.0944611   0.1599843  )
         7        Se     tau(   7) = (   0.1450437   0.2833832   0.2132304  )
         8        Sn     tau(   8) = (   0.8834605   0.2833832   0.3663022  )

     --------------------------------------------
     DFT-D3 Dispersion Correction (3-body terms):
     --------------------------------------------
       Reference C6 values for interpolation: 

         atom   Coordination number   C6
         Se         0.000           427.35
         Se         0.990           427.57
         Se         1.981           421.05
         Sn         0.000          1255.14
         Sn         0.951          1084.09
         Sn         1.950          1010.83
         Sn         2.926           818.29
         Sn         3.912           672.20

       Values used:

         atom   Coordination number  R0_AB[au]  C6      C8
         Se         3.604            3.332    421.05  29958.36
         Sn         4.474            3.957    672.24  84373.19
         Se         3.604            3.332    421.05  29958.36
         Sn         4.474            3.957    672.24  84373.19
         Se         3.604            3.332    421.05  29958.36
         Sn         4.474            3.957    672.24  84373.19
         Se         3.604            3.332    421.05  29958.36
         Sn         4.474            3.957    672.24  84373.19

         Molecular C6 ( Ry / a.u.^6 ) =     34497.16


   Crystallographic axes

     site n.     atom                  positions (cryst. coord.)
         1        Se     tau(   1) = (  0.8549563  0.2500000  0.4832481  )
         2        Sn     tau(   2) = (  0.1165395  0.2500000  0.1122870  )
         3        Se     tau(   3) = (  0.6450437  0.7500000  0.9832481  )
         4        Sn     tau(   4) = (  0.3834605  0.7500000  0.6122870  )
         5        Se     tau(   5) = (  0.3549563  0.2500000  0.0167519  )
         6        Sn     tau(   6) = (  0.6165395  0.2500000  0.3877130  )
         7        Se     tau(   7) = (  0.1450437  0.7500000  0.5167519  )
         8        Sn     tau(   8) = (  0.8834605  0.7500000  0.8877130  )

     number of k points=    32
                       cart. coord. in units 2pi/alat
        k(    1) = (   0.1666667   0.1654121   0.1514653), wk =   0.0833333
        k(    2) = (   0.1666667   0.1654121   0.4543958), wk =   0.0833333
        k(    3) = (   0.1666667   0.1654121   0.7573263), wk =   0.0833333
        k(    4) = (   0.1666667   0.1654121   1.0602568), wk =   0.0833333
        k(    5) = (   0.1666667   0.4962363   0.1514653), wk =   0.0833333
        k(    6) = (   0.1666667   0.4962363   0.4543958), wk =   0.0833333
        k(    7) = (   0.1666667   0.4962363   0.7573263), wk =   0.0833333
        k(    8) = (   0.1666667   0.4962363   1.0602568), wk =   0.0833333
        k(    9) = (   0.1666667   0.8270605   0.1514653), wk =   0.0833333
        k(   10) = (   0.1666667   0.8270605   0.4543958), wk =   0.0833333
        k(   11) = (   0.1666667   0.8270605   0.7573263), wk =   0.0833333
        k(   12) = (   0.1666667   0.8270605   1.0602568), wk =   0.0833333
        k(   13) = (   0.1666667   1.1578846   0.1514653), wk =   0.0833333
        k(   14) = (   0.1666667   1.1578846   0.4543958), wk =   0.0833333
        k(   15) = (   0.1666667   1.1578846   0.7573263), wk =   0.0833333
        k(   16) = (   0.1666667   1.1578846   1.0602568), wk =   0.0833333
        k(   17) = (  -0.5000000   0.1654121   0.1514653), wk =   0.0416667
        k(   18) = (  -0.5000000   0.1654121   0.4543958), wk =   0.0416667
        k(   19) = (  -0.5000000   0.1654121   0.7573263), wk =   0.0416667
        k(   20) = (  -0.5000000   0.1654121   1.0602568), wk =   0.0416667
        k(   21) = (  -0.5000000   0.4962363   0.1514653), wk =   0.0416667
        k(   22) = (  -0.5000000   0.4962363   0.4543958), wk =   0.0416667
        k(   23) = (  -0.5000000   0.4962363   0.7573263), wk =   0.0416667
        k(   24) = (  -0.5000000   0.4962363   1.0602568), wk =   0.0416667
        k(   25) = (  -0.5000000   0.8270605   0.1514653), wk =   0.0416667
        k(   26) = (  -0.5000000   0.8270605   0.4543958), wk =   0.0416667
        k(   27) = (  -0.5000000   0.8270605   0.7573263), wk =   0.0416667
        k(   28) = (  -0.5000000   0.8270605   1.0602568), wk =   0.0416667
        k(   29) = (  -0.5000000   1.1578846   0.1514653), wk =   0.0416667
        k(   30) = (  -0.5000000   1.1578846   0.4543958), wk =   0.0416667
        k(   31) = (  -0.5000000   1.1578846   0.7573263), wk =   0.0416667
        k(   32) = (  -0.5000000   1.1578846   1.0602568), wk =   0.0416667

                       cryst. coord.
        k(    1) = (   0.1666667   0.0625000   0.0625000), wk =   0.0833333
        k(    2) = (   0.1666667   0.0625000   0.1875000), wk =   0.0833333
        k(    3) = (   0.1666667   0.0625000   0.3125000), wk =   0.0833333
        k(    4) = (   0.1666667   0.0625000   0.4375000), wk =   0.0833333
        k(    5) = (   0.1666667   0.1875000   0.0625000), wk =   0.0833333
        k(    6) = (   0.1666667   0.1875000   0.1875000), wk =   0.0833333
        k(    7) = (   0.1666667   0.1875000   0.3125000), wk =   0.0833333
        k(    8) = (   0.1666667   0.1875000   0.4375000), wk =   0.0833333
        k(    9) = (   0.1666667   0.3125000   0.0625000), wk =   0.0833333
        k(   10) = (   0.1666667   0.3125000   0.1875000), wk =   0.0833333
        k(   11) = (   0.1666667   0.3125000   0.3125000), wk =   0.0833333
        k(   12) = (   0.1666667   0.3125000   0.4375000), wk =   0.0833333
        k(   13) = (   0.1666667   0.4375000   0.0625000), wk =   0.0833333
        k(   14) = (   0.1666667   0.4375000   0.1875000), wk =   0.0833333
        k(   15) = (   0.1666667   0.4375000   0.3125000), wk =   0.0833333
        k(   16) = (   0.1666667   0.4375000   0.4375000), wk =   0.0833333
        k(   17) = (  -0.5000000   0.0625000   0.0625000), wk =   0.0416667
        k(   18) = (  -0.5000000   0.0625000   0.1875000), wk =   0.0416667
        k(   19) = (  -0.5000000   0.0625000   0.3125000), wk =   0.0416667
        k(   20) = (  -0.5000000   0.0625000   0.4375000), wk =   0.0416667
        k(   21) = (  -0.5000000   0.1875000   0.0625000), wk =   0.0416667
        k(   22) = (  -0.5000000   0.1875000   0.1875000), wk =   0.0416667
        k(   23) = (  -0.5000000   0.1875000   0.3125000), wk =   0.0416667
        k(   24) = (  -0.5000000   0.1875000   0.4375000), wk =   0.0416667
        k(   25) = (  -0.5000000   0.3125000   0.0625000), wk =   0.0416667
        k(   26) = (  -0.5000000   0.3125000   0.1875000), wk =   0.0416667
        k(   27) = (  -0.5000000   0.3125000   0.3125000), wk =   0.0416667
        k(   28) = (  -0.5000000   0.3125000   0.4375000), wk =   0.0416667
        k(   29) = (  -0.5000000   0.4375000   0.0625000), wk =   0.0416667
        k(   30) = (  -0.5000000   0.4375000   0.1875000), wk =   0.0416667
        k(   31) = (  -0.5000000   0.4375000   0.3125000), wk =   0.0416667
        k(   32) = (  -0.5000000   0.4375000   0.4375000), wk =   0.0416667

     Dense  grid:   124223 G-vectors     FFT dimensions: ( 120,  48,  48)

     Smooth grid:    31317 G-vectors     FFT dimensions: (  80,  30,  32)

     Dynamical RAM for                 wfc:       1.20 MB

     Dynamical RAM for     wfc (w. buffer):      14.38 MB

     Dynamical RAM for           str. fact:       1.90 MB

     Dynamical RAM for           local pot:       0.00 MB

     Dynamical RAM for          nlocal pot:       4.32 MB

     Dynamical RAM for                qrad:       2.78 MB

     Dynamical RAM for          rho,v,vnew:       6.01 MB

     Dynamical RAM for               rhoin:       2.00 MB

     Dynamical RAM for            rho*nmix:      15.16 MB

     Dynamical RAM for           G-vectors:       3.67 MB

     Dynamical RAM for          h,s,v(r/c):       0.29 MB

     Dynamical RAM for          <psi|beta>:       0.09 MB

     Dynamical RAM for                 psi:       2.40 MB

     Dynamical RAM for                hpsi:       2.40 MB

     Dynamical RAM for                spsi:       2.40 MB

     Dynamical RAM for      wfcinit/wfcrot:       3.18 MB

     Dynamical RAM for           addusdens:      60.66 MB

     Dynamical RAM for          addusforce:      62.41 MB

     Estimated static dynamical RAM per process >      43.18 MB

     Estimated max dynamical RAM per process >     120.75 MB

     Estimated total dynamical RAM >     663.85 MB

     Initial potential from superposition of free atoms

     starting charge      75.9995, renormalised to      80.0000
     Starting wfcs are   52 randomized atomic wfcs

     total cpu time spent up to now is        1.5 secs

     Self-consistent Calculation

     iteration #  1     ecut=    30.00 Ry     beta= 0.70
     Davidson diagonalization with overlap

---- Real-time Memory Report at c_bands before calling an iterative solver
           212 MiB given to the printing process from OS
             0 MiB allocation reported by mallinfo(arena+hblkhd)
         10363 MiB available memory on the node where the printing process lives
------------------
     ethr =  1.00E-02,  avg # of iterations =  2.0

     total cpu time spent up to now is        3.5 secs

     total energy              =    -826.61618830 Ry
     estimated scf accuracy    <       2.66580454 Ry

     iteration #  2     ecut=    30.00 Ry     beta= 0.70
     Davidson diagonalization with overlap

---- Real-time Memory Report at c_bands before calling an iterative solver
           251 MiB given to the printing process from OS
             0 MiB allocation reported by mallinfo(arena+hblkhd)
          9887 MiB available memory on the node where the printing process lives
------------------
     ethr =  3.33E-03,  avg # of iterations =  3.0

     total cpu time spent up to now is        5.8 secs

     total energy              =    -827.53438694 Ry
     estimated scf accuracy    <       0.92506747 Ry

     iteration #  3     ecut=    30.00 Ry     beta= 0.70
     Davidson diagonalization with overlap

---- Real-time Memory Report at c_bands before calling an iterative solver
           269 MiB given to the printing process from OS
             0 MiB allocation reported by mallinfo(arena+hblkhd)
          9804 MiB available memory on the node where the printing process lives
------------------
     ethr =  1.16E-03,  avg # of iterations =  2.4

     total cpu time spent up to now is        7.7 secs

     total energy              =    -827.71981593 Ry
     estimated scf accuracy    <       0.00845725 Ry

     iteration #  4     ecut=    30.00 Ry     beta= 0.70
     Davidson diagonalization with overlap

---- Real-time Memory Report at c_bands before calling an iterative solver
           272 MiB given to the printing process from OS
             0 MiB allocation reported by mallinfo(arena+hblkhd)
          9797 MiB available memory on the node where the printing process lives
------------------
     ethr =  1.06E-05,  avg # of iterations =  5.0

     total cpu time spent up to now is       10.0 secs

     total energy              =    -827.72533168 Ry
     estimated scf accuracy    <       0.00443389 Ry

     iteration #  5     ecut=    30.00 Ry     beta= 0.70
     Davidson diagonalization with overlap

---- Real-time Memory Report at c_bands before calling an iterative solver
           276 MiB given to the printing process from OS
             0 MiB allocation reported by mallinfo(arena+hblkhd)
          9789 MiB available memory on the node where the printing process lives
------------------
     ethr =  5.54E-06,  avg # of iterations =  3.3

     total cpu time spent up to now is       11.9 secs

     total energy              =    -827.72674209 Ry
     estimated scf accuracy    <       0.00118479 Ry

     iteration #  6     ecut=    30.00 Ry     beta= 0.70
     Davidson diagonalization with overlap

---- Real-time Memory Report at c_bands before calling an iterative solver
           278 MiB given to the printing process from OS
             0 MiB allocation reported by mallinfo(arena+hblkhd)
          9788 MiB available memory on the node where the printing process lives
------------------
     ethr =  1.48E-06,  avg # of iterations =  2.2

     total cpu time spent up to now is       13.7 secs

     total energy              =    -827.72692607 Ry
     estimated scf accuracy    <       0.00003619 Ry

     iteration #  7     ecut=    30.00 Ry     beta= 0.70
     Davidson diagonalization with overlap

---- Real-time Memory Report at c_bands before calling an iterative solver
           279 MiB given to the printing process from OS
             0 MiB allocation reported by mallinfo(arena+hblkhd)
          9840 MiB available memory on the node where the printing process lives
------------------
     ethr =  4.52E-08,  avg # of iterations =  4.1

     total cpu time spent up to now is       15.8 secs

     total energy              =    -827.72695272 Ry
     estimated scf accuracy    <       0.00000283 Ry

     iteration #  8     ecut=    30.00 Ry     beta= 0.70
     Davidson diagonalization with overlap

---- Real-time Memory Report at c_bands before calling an iterative solver
           281 MiB given to the printing process from OS
             0 MiB allocation reported by mallinfo(arena+hblkhd)
          9786 MiB available memory on the node where the printing process lives
------------------
     ethr =  3.54E-09,  avg # of iterations =  3.0

     total cpu time spent up to now is       18.1 secs

     total energy              =    -827.72695370 Ry
     estimated scf accuracy    <       0.00000077 Ry

     iteration #  9     ecut=    30.00 Ry     beta= 0.70
     Davidson diagonalization with overlap

---- Real-time Memory Report at c_bands before calling an iterative solver
           283 MiB given to the printing process from OS
             0 MiB allocation reported by mallinfo(arena+hblkhd)
          9783 MiB available memory on the node where the printing process lives
------------------
     ethr =  9.68E-10,  avg # of iterations =  2.9

     total cpu time spent up to now is       20.2 secs

     End of self-consistent calculation

          k = 0.1667 0.1654 0.1515 (  3930 PWs)   bands (ev):

   -13.1651 -13.1522 -13.1477 -13.1462 -13.1436 -13.1431 -13.1397 -13.1367
   -13.1289 -13.1276 -13.1242 -13.1222 -13.1119 -13.1036 -13.0838 -13.0830
   -13.0752 -13.0741 -13.0615 -13.0538  -5.6878  -5.3562  -4.5476  -4.0864
     0.6413   1.5953   2.6244   2.9271   3.3456   4.5941   4.7183   5.0007
     5.2851   5.4603   6.0332   6.4029   6.6753   7.1903   7.4107   7.6950

     occupation numbers 
     1.0000   1.0000   1.0000   1.0000   1.0000   1.0000   1.0000   1.0000
     1.0000   1.0000   1.0000   1.0000   1.0000   1.0000   1.0000   1.0000
     1.0000   1.0000   1.0000   1.0000   1.0000   1.0000   1.0000   1.0000
     1.0000   1.0000   1.0000   1.0000   1.0000   1.0000   1.0000   1.0000
     1.0000   1.0000   1.0000   1.0000   1.0000   1.0000   1.0000   1.0000

          k = 0.1667 0.1654 0.4544 (  3920 PWs)   bands (ev):

   -13.1632 -13.1516 -13.1477 -13.1472 -13.1444 -13.1434 -13.1406 -13.1375
   -13.1281 -13.1250 -13.1224 -13.1216 -13.1118 -13.1046 -13.0842 -13.0818
   -13.0759 -13.0754 -13.0608 -13.0543  -5.5657  -5.2438  -4.5571  -4.1410
     0.3388   1.3809   2.0171   2.6416   3.4601   4.6227   4.8410   5.4366
     5.6014   6.0062   6.0505   6.4997   6.8425   7.1470   7.5674   7.7980

     occupation numbers 
     1.0000   1.0000   1.0000   1.0000   1.0000   1.0000   1.0000   1.0000
     1.0000   1.0000   1.0000   1.0000   1.0000   1.0000   1.0000   1.0000
     1.0000   1.0000   1.0000   1.0000   1.0000   1.0000   1.0000   1.0000
     1.0000   1.0000   1.0000   1.0000   1.0000   1.0000   1.0000   1.0000
     1.0000   1.0000   1.0000   1.0000   1.0000   1.0000   1.0000   1.0000

          k = 0.1667 0.1654 0.7573 (  3925 PWs)   bands (ev):

   -13.1599 -13.1515 -13.1490 -13.1476 -13.1459 -13.1437 -13.1412 -13.1389
   -13.1267 -13.1228 -13.1207 -13.1177 -13.1119 -13.1065 -13.0837 -13.0806
   -13.0775 -13.0769 -13.0597 -13.0554  -5.3436  -5.0416  -4.6154  -4.2684
     0.0578   0.8925   1.5676   2.1780   3.7668   4.8525   5.0476   5.6879
     6.0171   6.1163   6.4129   6.5035   7.0173   7.4683   7.5742   8.0239

     occupation numbers 
     1.0000   1.0000   1.0000   1.0000   1.0000   1.0000   1.0000   1.0000
     1.0000   1.0000   1.0000   1.0000   1.0000   1.0000   1.0000   1.0000
     1.0000   1.0000   1.0000   1.0000   1.0000   1.0000   1.0000   1.0000
     1.0000   1.0000   1.0000   1.0000   1.0000   1.0000   1.0000   1.0000
     1.0000   1.0000   1.0000   1.0000   1.0000   1.0000   1.0000   1.0000

          k = 0.1667 0.1654 1.0603 (  3921 PWs)   bands (ev):

   -13.1563 -13.1531 -13.1495 -13.1489 -13.1455 -13.1445 -13.1411 -13.1403
   -13.1251 -13.1237 -13.1164 -13.1143 -13.1123 -13.1094 -13.0822 -13.0801
   -13.0792 -13.0781 -13.0582 -13.0567  -5.0723  -4.8700  -4.6875  -4.4747
     0.0382   0.3463   1.5134   1.7479   4.2302   4.7229   5.4406   5.7594
     5.9975   6.1526   6.4918   6.7178   7.3103   7.5932   7.8026   7.8835

     occupation numbers 
     1.0000   1.0000   1.0000   1.0000   1.0000   1.0000   1.0000   1.0000
     1.0000   1.0000   1.0000   1.0000   1.0000   1.0000   1.0000   1.0000
     1.0000   1.0000   1.0000   1.0000   1.0000   1.0000   1.0000   1.0000
     1.0000   1.0000   1.0000   1.0000   1.0000   1.0000   1.0000   1.0000
     1.0000   1.0000   1.0000   1.0000   1.0000   1.0000   1.0000   1.0000

          k = 0.1667 0.4962 0.1515 (  3928 PWs)   bands (ev):

   -13.1589 -13.1508 -13.1489 -13.1462 -13.1430 -13.1426 -13.1406 -13.1394
   -13.1298 -13.1242 -13.1235 -13.1212 -13.1095 -13.1050 -13.0862 -13.0817
   -13.0784 -13.0724 -13.0617 -13.0557  -5.5211  -5.2141  -4.4893  -4.1080
     0.5109   1.3712   2.2396   2.4070   3.4572   4.4409   4.7781   5.1409
     5.4316   5.6077   6.0853   6.4589   6.6127   7.2890   7.5937   7.7709

     occupation numbers 
     1.0000   1.0000   1.0000   1.0000   1.0000   1.0000   1.0000   1.0000
     1.0000   1.0000   1.0000   1.0000   1.0000   1.0000   1.0000   1.0000
     1.0000   1.0000   1.0000   1.0000   1.0000   1.0000   1.0000   1.0000
     1.0000   1.0000   1.0000   1.0000   1.0000   1.0000   1.0000   1.0000
     1.0000   1.0000   1.0000   1.0000   1.0000   1.0000   1.0000   1.0000

          k = 0.1667 0.4962 0.4544 (  3927 PWs)   bands (ev):

   -13.1586 -13.1510 -13.1504 -13.1470 -13.1433 -13.1425 -13.1410 -13.1395
   -13.1290 -13.1245 -13.1212 -13.1187 -13.1098 -13.1051 -13.0857 -13.0818
   -13.0787 -13.0735 -13.0611 -13.0560  -5.4050  -5.1086  -4.4950  -4.1481
     0.3602   1.3305   1.8813   2.2656   3.5938   4.0394   4.3740   5.3270
     5.5102   6.0514   6.1358   6.4190   6.9970   7.1698   7.5840   7.7670

     occupation numbers 
     1.0000   1.0000   1.0000   1.0000   1.0000   1.0000   1.0000   1.0000
     1.0000   1.0000   1.0000   1.0000   1.0000   1.0000   1.0000   1.0000
     1.0000   1.0000   1.0000   1.0000   1.0000   1.0000   1.0000   1.0000
     1.0000   1.0000   1.0000   1.0000   1.0000   1.0000   1.0000   1.0000
     1.0000   1.0000   1.0000   1.0000   1.0000   1.0000   1.0000   1.0000

          k = 0.1667 0.4962 0.7573 (  3924 PWs)   bands (ev):

   -13.1582 -13.1531 -13.1509 -13.1483 -13.1444 -13.1421 -13.1414 -13.1390
   -13.1279 -13.1250 -13.1174 -13.1151 -13.1103 -13.1060 -13.0849 -13.0820
   -13.0788 -13.0751 -13.0600 -13.0566  -5.1961  -4.9212  -4.5421  -4.2474
     0.2065   1.0048   1.6022   2.0443   3.8456   3.9956   4.3257   5.1921
     5.3365   6.0103   6.1415   6.6510   6.8975   7.2059   7.4350   7.7861

     occupation numbers 
     1.0000   1.0000   1.0000   1.0000   1.0000   1.0000   1.0000   1.0000
     1.0000   1.0000   1.0000   1.0000   1.0000   1.0000   1.0000   1.0000
     1.0000   1.0000   1.0000   1.0000   1.0000   1.0000   1.0000   1.0000
     1.0000   1.0000   1.0000   1.0000   1.0000   1.0000   1.0000   1.0000
     1.0000   1.0000   1.0000   1.0000   1.0000   1.0000   1.0000   1.0000

          k = 0.1667 0.4962 1.0603 (  3916 PWs)   bands (ev):

   -13.1574 -13.1557 -13.1506 -13.1497 -13.1444 -13.1433 -13.1401 -13.1392
   -13.1268 -13.1258 -13.1137 -13.1115 -13.1112 -13.1081 -13.0837 -13.0827
   -13.0781 -13.0768 -13.0588 -13.0576  -4.9458  -4.7640  -4.6028  -4.4182
     0.2340   0.5256   1.6111   1.7847   4.1578   4.2322   4.5380   4.8455
     5.2014   5.5035   6.1967   6.4759   6.9195   7.1975   7.4933   7.7055

     occupation numbers 
     1.0000   1.0000   1.0000   1.0000   1.0000   1.0000   1.0000   1.0000
     1.0000   1.0000   1.0000   1.0000   1.0000   1.0000   1.0000   1.0000
     1.0000   1.0000   1.0000   1.0000   1.0000   1.0000   1.0000   1.0000
     1.0000   1.0000   1.0000   1.0000   1.0000   1.0000   1.0000   1.0000
     1.0000   1.0000   1.0000   1.0000   1.0000   1.0000   1.0000   1.0000

          k = 0.1667 0.8271 0.1515 (  3943 PWs)   bands (ev):

   -13.1558 -13.1534 -13.1524 -13.1512 -13.1401 -13.1382 -13.1363 -13.1349
   -13.1291 -13.1259 -13.1194 -13.1172 -13.1087 -13.1058 -13.0913 -13.0891
   -13.0745 -13.0694 -13.0620 -13.0588  -5.2144  -4.9650  -4.4356  -4.2118
     0.3446   1.1035   1.4178   1.8927   3.8006   4.5525   4.9434   5.3533
     5.6504   5.7821   6.1910   6.3909   6.7049   7.2556   7.3818   7.7982

     occupation numbers 
     1.0000   1.0000   1.0000   1.0000   1.0000   1.0000   1.0000   1.0000
     1.0000   1.0000   1.0000   1.0000   1.0000   1.0000   1.0000   1.0000
     1.0000   1.0000   1.0000   1.0000   1.0000   1.0000   1.0000   1.0000
     1.0000   1.0000   1.0000   1.0000   1.0000   1.0000   1.0000   1.0000
     1.0000   1.0000   1.0000   1.0000   1.0000   1.0000   1.0000   1.0000

          k = 0.1667 0.8271 0.4544 (  3942 PWs)   bands (ev):

   -13.1589 -13.1554 -13.1537 -13.1518 -13.1403 -13.1372 -13.1358 -13.1347
   -13.1280 -13.1260 -13.1176 -13.1154 -13.1093 -13.1052 -13.0908 -13.0889
   -13.0745 -13.0702 -13.0615 -13.0587  -5.1128  -4.8753  -4.4295  -4.2206
     0.3870   1.1960   1.4584   1.7716   3.7883   3.9075   4.3168   5.0058
     5.4375   5.9553   6.0042   6.5112   6.5781   7.1032   7.2477   7.5686

     occupation numbers 
     1.0000   1.0000   1.0000   1.0000   1.0000   1.0000   1.0000   1.0000
     1.0000   1.0000   1.0000   1.0000   1.0000   1.0000   1.0000   1.0000
     1.0000   1.0000   1.0000   1.0000   1.0000   1.0000   1.0000   1.0000
     1.0000   1.0000   1.0000   1.0000   1.0000   1.0000   1.0000   1.0000
     1.0000   1.0000   1.0000   1.0000   1.0000   1.0000   1.0000   1.0000

          k = 0.1667 0.8271 0.7573 (  3934 PWs)   bands (ev):

   -13.1621 -13.1593 -13.1550 -13.1536 -13.1398 -13.1362 -13.1357 -13.1344
   -13.1267 -13.1260 -13.1149 -13.1129 -13.1092 -13.1054 -13.0899 -13.0887
   -13.0743 -13.0714 -13.0606 -13.0587  -4.9350  -4.7212  -4.4480  -4.2607
     0.4576   1.1355   1.5342   1.7096   3.4107   3.7776   4.2048   4.5335
     4.9329   5.4125   5.7457   6.1464   6.4715   6.8292   7.1347   7.5422

     occupation numbers 
     1.0000   1.0000   1.0000   1.0000   1.0000   1.0000   1.0000   1.0000
     1.0000   1.0000   1.0000   1.0000   1.0000   1.0000   1.0000   1.0000
     1.0000   1.0000   1.0000   1.0000   1.0000   1.0000   1.0000   1.0000
     1.0000   1.0000   1.0000   1.0000   1.0000   1.0000   1.0000   1.0000
     1.0000   1.0000   1.0000   1.0000   1.0000   1.0000   1.0000   1.0000

          k = 0.1667 0.8271 1.0603 (  3920 PWs)   bands (ev):

   -13.1635 -13.1624 -13.1559 -13.1553 -13.1386 -13.1371 -13.1349 -13.1343
   -13.1260 -13.1259 -13.1124 -13.1113 -13.1083 -13.1066 -13.0891 -13.0886
   -13.0736 -13.0726 -13.0597 -13.0590  -4.7325  -4.5963  -4.4815  -4.3568
     0.5879   0.8340   1.6672   1.7217   3.4322   3.7787   3.9249   4.2745
     4.7159   5.0605   5.5339   5.9085   6.1835   6.4767   7.2302   7.3457

     occupation numbers 
     1.0000   1.0000   1.0000   1.0000   1.0000   1.0000   1.0000   1.0000
     1.0000   1.0000   1.0000   1.0000   1.0000   1.0000   1.0000   1.0000
     1.0000   1.0000   1.0000   1.0000   1.0000   1.0000   1.0000   1.0000
     1.0000   1.0000   1.0000   1.0000   1.0000   1.0000   1.0000   1.0000
     1.0000   1.0000   1.0000   1.0000   1.0000   1.0000   1.0000   1.0000

          k = 0.1667 1.1579 0.1515 (  3941 PWs)   bands (ev):

   -13.1584 -13.1572 -13.1545 -13.1535 -13.1356 -13.1342 -13.1332 -13.1312
   -13.1241 -13.1240 -13.1203 -13.1163 -13.1079 -13.1022 -13.0986 -13.0969
   -13.0687 -13.0661 -13.0632 -13.0630  -4.8279  -4.6858  -4.4862  -4.4598
     0.3586   0.7233   1.0749   1.3776   4.3057   4.7307   5.1522   5.5294
     5.7286   5.7540   6.1935   6.5387   6.8196   7.0955   7.1412   7.3253

     occupation numbers 
     1.0000   1.0000   1.0000   1.0000   1.0000   1.0000   1.0000   1.0000
     1.0000   1.0000   1.0000   1.0000   1.0000   1.0000   1.0000   1.0000
     1.0000   1.0000   1.0000   1.0000   1.0000   1.0000   1.0000   1.0000
     1.0000   1.0000   1.0000   1.0000   1.0000   1.0000   1.0000   1.0000
     1.0000   1.0000   1.0000   1.0000   1.0000   1.0000   1.0000   1.0000

          k = 0.1667 1.1579 0.4544 (  3947 PWs)   bands (ev):

   -13.1616 -13.1603 -13.1559 -13.1551 -13.1361 -13.1344 -13.1320 -13.1307
   -13.1235 -13.1228 -13.1190 -13.1156 -13.1073 -13.1031 -13.0968 -13.0958
   -13.0690 -13.0670 -13.0626 -13.0622  -4.7533  -4.6227  -4.4556  -4.4250
     0.5051   0.8604   1.1862   1.4000   4.0561   4.2383   4.5384   4.8158
     5.1060   5.5247   6.0680   6.2610   6.3914   6.6682   7.2803   7.5161

     occupation numbers 
     1.0000   1.0000   1.0000   1.0000   1.0000   1.0000   1.0000   1.0000
     1.0000   1.0000   1.0000   1.0000   1.0000   1.0000   1.0000   1.0000
     1.0000   1.0000   1.0000   1.0000   1.0000   1.0000   1.0000   1.0000
     1.0000   1.0000   1.0000   1.0000   1.0000   1.0000   1.0000   1.0000
     1.0000   1.0000   1.0000   1.0000   1.0000   1.0000   1.0000   1.0000

          k = 0.1667 1.1579 0.7573 (  3927 PWs)   bands (ev):

   -13.1656 -13.1646 -13.1580 -13.1575 -13.1364 -13.1348 -13.1307 -13.1300
   -13.1226 -13.1217 -13.1171 -13.1147 -13.1061 -13.1037 -13.0948 -13.0944
   -13.0693 -13.0680 -13.0619 -13.0614  -4.6313  -4.5231  -4.4218  -4.3824
     0.7549   1.0739   1.3527   1.4219   3.4170   3.8763   3.9975   4.2666
     4.7027   4.9964   5.4350   5.8862   6.0148   6.2585   7.1808   7.3014

     occupation numbers 
     1.0000   1.0000   1.0000   1.0000   1.0000   1.0000   1.0000   1.0000
     1.0000   1.0000   1.0000   1.0000   1.0000   1.0000   1.0000   1.0000
     1.0000   1.0000   1.0000   1.0000   1.0000   1.0000   1.0000   1.0000
     1.0000   1.0000   1.0000   1.0000   1.0000   1.0000   1.0000   1.0000
     1.0000   1.0000   1.0000   1.0000   1.0000   1.0000   1.0000   1.0000

          k = 0.1667 1.1579 1.0603 (  3910 PWs)   bands (ev):

   -13.1681 -13.1677 -13.1595 -13.1593 -13.1362 -13.1355 -13.1299 -13.1297
   -13.1217 -13.1213 -13.1154 -13.1145 -13.1048 -13.1041 -13.0936 -13.0935
   -13.0691 -13.0686 -13.0613 -13.0611  -4.5108  -4.4501  -4.4074  -4.3714
     1.0069   1.1520   1.4663   1.5072   3.1687   3.3763   3.7843   3.8916
     4.5306   4.5694   5.0858   5.4198   5.9768   6.1612   7.0094   7.0683

     occupation numbers 
     1.0000   1.0000   1.0000   1.0000   1.0000   1.0000   1.0000   1.0000
     1.0000   1.0000   1.0000   1.0000   1.0000   1.0000   1.0000   1.0000
     1.0000   1.0000   1.0000   1.0000   1.0000   1.0000   1.0000   1.0000
     1.0000   1.0000   1.0000   1.0000   1.0000   1.0000   1.0000   1.0000
     1.0000   1.0000   1.0000   1.0000   1.0000   1.0000   1.0000   1.0000

          k =-0.5000 0.1654 0.1515 (  3914 PWs)   bands (ev):

   -13.1593 -13.1593 -13.1456 -13.1456 -13.1452 -13.1452 -13.1373 -13.1373
   -13.1265 -13.1265 -13.1257 -13.1257 -13.1071 -13.1071 -13.0830 -13.0830
   -13.0749 -13.0749 -13.0574 -13.0574  -5.5524  -5.5524  -4.2864  -4.2864
     0.9783   0.9783   2.8552   2.8552   4.0677   4.0677   4.9208   4.9208
     5.5019   5.5019   6.1189   6.1189   6.4861   6.4861   7.6195   7.6195

     occupation numbers 
     1.0000   1.0000   1.0000   1.0000   1.0000   1.0000   1.0000   1.0000
     1.0000   1.0000   1.0000   1.0000   1.0000   1.0000   1.0000   1.0000
     1.0000   1.0000   1.0000   1.0000   1.0000   1.0000   1.0000   1.0000
     1.0000   1.0000   1.0000   1.0000   1.0000   1.0000   1.0000   1.0000
     1.0000   1.0000   1.0000   1.0000   1.0000   1.0000   1.0000   1.0000

          k =-0.5000 0.1654 0.4544 (  3916 PWs)   bands (ev):

   -13.1581 -13.1581 -13.1463 -13.1463 -13.1450 -13.1450 -13.1386 -13.1386
   -13.1254 -13.1254 -13.1236 -13.1236 -13.1076 -13.1076 -13.0827 -13.0827
   -13.0759 -13.0759 -13.0574 -13.0574  -5.4355  -5.4355  -4.3181  -4.3181
     0.7124   0.7124   2.3776   2.3776   4.3323   4.3323   5.0107   5.0107
     5.7058   5.7058   6.2782   6.2782   6.9117   6.9117   7.5412   7.5412

     occupation numbers 
     1.0000   1.0000   1.0000   1.0000   1.0000   1.0000   1.0000   1.0000
     1.0000   1.0000   1.0000   1.0000   1.0000   1.0000   1.0000   1.0000
     1.0000   1.0000   1.0000   1.0000   1.0000   1.0000   1.0000   1.0000
     1.0000   1.0000   1.0000   1.0000   1.0000   1.0000   1.0000   1.0000
     1.0000   1.0000   1.0000   1.0000   1.0000   1.0000   1.0000   1.0000

          k =-0.5000 0.1654 0.7573 (  3928 PWs)   bands (ev):

   -13.1562 -13.1562 -13.1480 -13.1480 -13.1445 -13.1445 -13.1405 -13.1405
   -13.1245 -13.1245 -13.1196 -13.1196 -13.1088 -13.1088 -13.0820 -13.0820
   -13.0774 -13.0774 -13.0574 -13.0574  -5.2260  -5.2260  -4.4089  -4.4089
     0.4122   0.4122   1.8254   1.8254   4.6610   4.6610   5.3019   5.3019
     5.8391   5.8391   6.4697   6.4697   7.1310   7.1310   7.6719   7.6719

     occupation numbers 
     1.0000   1.0000   1.0000   1.0000   1.0000   1.0000   1.0000   1.0000
     1.0000   1.0000   1.0000   1.0000   1.0000   1.0000   1.0000   1.0000
     1.0000   1.0000   1.0000   1.0000   1.0000   1.0000   1.0000   1.0000
     1.0000   1.0000   1.0000   1.0000   1.0000   1.0000   1.0000   1.0000
     1.0000   1.0000   1.0000   1.0000   1.0000   1.0000   1.0000   1.0000

          k =-0.5000 0.1654 1.0603 (  3896 PWs)   bands (ev):

   -13.1545 -13.1545 -13.1493 -13.1493 -13.1444 -13.1444 -13.1418 -13.1418
   -13.1240 -13.1240 -13.1157 -13.1157 -13.1105 -13.1105 -13.0809 -13.0809
   -13.0789 -13.0789 -13.0574 -13.0574  -4.9951  -4.9951  -4.5585  -4.5585
     0.2521   0.2521   1.4598   1.4598   5.0702   5.0702   5.6021   5.6021
     5.6880   5.6880   6.3302   6.3302   7.4648   7.4648   7.7609   7.7609

     occupation numbers 
     1.0000   1.0000   1.0000   1.0000   1.0000   1.0000   1.0000   1.0000
     1.0000   1.0000   1.0000   1.0000   1.0000   1.0000   1.0000   1.0000
     1.0000   1.0000   1.0000   1.0000   1.0000   1.0000   1.0000   1.0000
     1.0000   1.0000   1.0000   1.0000   1.0000   1.0000   1.0000   1.0000
     1.0000   1.0000   1.0000   1.0000   1.0000   1.0000   1.0000   1.0000

          k =-0.5000 0.4962 0.1515 (  3924 PWs)   bands (ev):

   -13.1549 -13.1549 -13.1481 -13.1481 -13.1423 -13.1423 -13.1401 -13.1401
   -13.1272 -13.1272 -13.1226 -13.1226 -13.1069 -13.1069 -13.0844 -13.0844
   -13.0749 -13.0749 -13.0586 -13.0586  -5.3950  -5.3950  -4.2702  -4.2702
     0.8321   0.8321   2.3533   2.3533   4.1908   4.1908   4.8388   4.8388
     5.7767   5.7767   5.9836   5.9836   6.6380   6.6380   7.7558   7.7558

     occupation numbers 
     1.0000   1.0000   1.0000   1.0000   1.0000   1.0000   1.0000   1.0000
     1.0000   1.0000   1.0000   1.0000   1.0000   1.0000   1.0000   1.0000
     1.0000   1.0000   1.0000   1.0000   1.0000   1.0000   1.0000   1.0000
     1.0000   1.0000   1.0000   1.0000   1.0000   1.0000   1.0000   1.0000
     1.0000   1.0000   1.0000   1.0000   1.0000   1.0000   1.0000   1.0000

          k =-0.5000 0.4962 0.4544 (  3936 PWs)   bands (ev):

   -13.1550 -13.1550 -13.1491 -13.1491 -13.1427 -13.1427 -13.1398 -13.1398
   -13.1268 -13.1268 -13.1201 -13.1201 -13.1074 -13.1074 -13.0842 -13.0842
   -13.0756 -13.0756 -13.0584 -13.0584  -5.2843  -5.2843  -4.2933  -4.2933
     0.7203   0.7203   2.1117   2.1117   4.1128   4.1128   4.7894   4.7894
     5.4677   5.4677   6.3836   6.3836   6.9921   6.9921   7.6546   7.6546

     occupation numbers 
     1.0000   1.0000   1.0000   1.0000   1.0000   1.0000   1.0000   1.0000
     1.0000   1.0000   1.0000   1.0000   1.0000   1.0000   1.0000   1.0000
     1.0000   1.0000   1.0000   1.0000   1.0000   1.0000   1.0000   1.0000
     1.0000   1.0000   1.0000   1.0000   1.0000   1.0000   1.0000   1.0000
     1.0000   1.0000   1.0000   1.0000   1.0000   1.0000   1.0000   1.0000

          k =-0.5000 0.4962 0.7573 (  3930 PWs)   bands (ev):

   -13.1552 -13.1552 -13.1512 -13.1512 -13.1425 -13.1425 -13.1396 -13.1396
   -13.1265 -13.1265 -13.1163 -13.1163 -13.1082 -13.1082 -13.0840 -13.0840
   -13.0766 -13.0766 -13.0581 -13.0581  -5.0883  -5.0883  -4.3653  -4.3653
     0.5481   0.5481   1.7930   1.7930   4.0971   4.0971   4.9488   4.9488
     5.3038   5.3038   6.5023   6.5023   6.8530   6.8530   7.6019   7.6019

     occupation numbers 
     1.0000   1.0000   1.0000   1.0000   1.0000   1.0000   1.0000   1.0000
     1.0000   1.0000   1.0000   1.0000   1.0000   1.0000   1.0000   1.0000
     1.0000   1.0000   1.0000   1.0000   1.0000   1.0000   1.0000   1.0000
     1.0000   1.0000   1.0000   1.0000   1.0000   1.0000   1.0000   1.0000
     1.0000   1.0000   1.0000   1.0000   1.0000   1.0000   1.0000   1.0000

          k =-0.5000 0.4962 1.0603 (  3922 PWs)   bands (ev):

   -13.1552 -13.1552 -13.1530 -13.1530 -13.1419 -13.1419 -13.1397 -13.1397
   -13.1263 -13.1263 -13.1126 -13.1126 -13.1098 -13.1098 -13.0837 -13.0837
   -13.0773 -13.0773 -13.0579 -13.0579  -4.8761  -4.8761  -4.4904  -4.4904
     0.4311   0.4311   1.5601   1.5601   4.3352   4.3352   4.7663   4.7663
     5.5166   5.5166   6.1666   6.1666   6.8125   6.8125   7.4404   7.4404

     occupation numbers 
     1.0000   1.0000   1.0000   1.0000   1.0000   1.0000   1.0000   1.0000
     1.0000   1.0000   1.0000   1.0000   1.0000   1.0000   1.0000   1.0000
     1.0000   1.0000   1.0000   1.0000   1.0000   1.0000   1.0000   1.0000
     1.0000   1.0000   1.0000   1.0000   1.0000   1.0000   1.0000   1.0000
     1.0000   1.0000   1.0000   1.0000   1.0000   1.0000   1.0000   1.0000

          k =-0.5000 0.8271 0.1515 (  3934 PWs)   bands (ev):

   -13.1553 -13.1553 -13.1511 -13.1511 -13.1384 -13.1384 -13.1366 -13.1366
   -13.1272 -13.1272 -13.1185 -13.1185 -13.1069 -13.1069 -13.0905 -13.0905
   -13.0718 -13.0718 -13.0604 -13.0604  -5.1101  -5.1101  -4.3022  -4.3022
     0.6514   0.6514   1.6450   1.6450   4.4686   4.4686   5.0253   5.0253
     5.9237   5.9237   6.0877   6.0877   6.6227   6.6227   7.5820   7.5820

     occupation numbers 
     1.0000   1.0000   1.0000   1.0000   1.0000   1.0000   1.0000   1.0000
     1.0000   1.0000   1.0000   1.0000   1.0000   1.0000   1.0000   1.0000
     1.0000   1.0000   1.0000   1.0000   1.0000   1.0000   1.0000   1.0000
     1.0000   1.0000   1.0000   1.0000   1.0000   1.0000   1.0000   1.0000
     1.0000   1.0000   1.0000   1.0000   1.0000   1.0000   1.0000   1.0000

          k =-0.5000 0.8271 0.4544 (  3938 PWs)   bands (ev):

   -13.1571 -13.1571 -13.1531 -13.1531 -13.1382 -13.1382 -13.1356 -13.1356
   -13.1269 -13.1269 -13.1167 -13.1167 -13.1070 -13.1070 -13.0903 -13.0903
   -13.0720 -13.0720 -13.0601 -13.0601  -5.0143  -5.0143  -4.3041  -4.3041
     0.7144   0.7144   1.6192   1.6192   3.9845   3.9845   4.8769   4.8769
     5.3541   5.3541   6.3272   6.3272   6.5748   6.5748   7.4965   7.4965

     occupation numbers 
     1.0000   1.0000   1.0000   1.0000   1.0000   1.0000   1.0000   1.0000
     1.0000   1.0000   1.0000   1.0000   1.0000   1.0000   1.0000   1.0000
     1.0000   1.0000   1.0000   1.0000   1.0000   1.0000   1.0000   1.0000
     1.0000   1.0000   1.0000   1.0000   1.0000   1.0000   1.0000   1.0000
     1.0000   1.0000   1.0000   1.0000   1.0000   1.0000   1.0000   1.0000

          k =-0.5000 0.8271 0.7573 (  3934 PWs)   bands (ev):

   -13.1595 -13.1595 -13.1560 -13.1560 -13.1375 -13.1375 -13.1348 -13.1348
   -13.1265 -13.1265 -13.1143 -13.1143 -13.1068 -13.1068 -13.0901 -13.0901
   -13.0723 -13.0723 -13.0597 -13.0597  -4.8495  -4.8495  -4.3330  -4.3330
     0.7604   0.7604   1.5985   1.5985   3.6519   3.6519   4.5234   4.5234
     5.0932   5.0932   5.8225   5.8225   6.5369   6.5369   7.4053   7.4053

     occupation numbers 
     1.0000   1.0000   1.0000   1.0000   1.0000   1.0000   1.0000   1.0000
     1.0000   1.0000   1.0000   1.0000   1.0000   1.0000   1.0000   1.0000
     1.0000   1.0000   1.0000   1.0000   1.0000   1.0000   1.0000   1.0000
     1.0000   1.0000   1.0000   1.0000   1.0000   1.0000   1.0000   1.0000
     1.0000   1.0000   1.0000   1.0000   1.0000   1.0000   1.0000   1.0000

          k =-0.5000 0.8271 1.0603 (  3926 PWs)   bands (ev):

   -13.1611 -13.1611 -13.1581 -13.1581 -13.1365 -13.1365 -13.1348 -13.1348
   -13.1263 -13.1263 -13.1126 -13.1126 -13.1065 -13.1065 -13.0899 -13.0899
   -13.0725 -13.0725 -13.0594 -13.0594  -4.6796  -4.6796  -4.4045  -4.4045
     0.7439   0.7439   1.6176   1.6176   3.6647   3.6647   4.0415   4.0415
     5.1028   5.1028   5.4296   5.4296   6.5682   6.5682   7.0996   7.0996

     occupation numbers 
     1.0000   1.0000   1.0000   1.0000   1.0000   1.0000   1.0000   1.0000
     1.0000   1.0000   1.0000   1.0000   1.0000   1.0000   1.0000   1.0000
     1.0000   1.0000   1.0000   1.0000   1.0000   1.0000   1.0000   1.0000
     1.0000   1.0000   1.0000   1.0000   1.0000   1.0000   1.0000   1.0000
     1.0000   1.0000   1.0000   1.0000   1.0000   1.0000   1.0000   1.0000

          k =-0.5000 1.1579 0.1515 (  3966 PWs)   bands (ev):

   -13.1569 -13.1569 -13.1553 -13.1553 -13.1340 -13.1340 -13.1333 -13.1333
   -13.1234 -13.1234 -13.1184 -13.1184 -13.1046 -13.1046 -13.0982 -13.0982
   -13.0673 -13.0673 -13.0632 -13.0632  -4.7653  -4.7653  -4.4653  -4.4653
     0.6678   0.6678   1.0197   1.0197   4.9255   4.9255   5.2841   5.2841
     5.7976   5.7976   6.0575   6.0575   6.7425   6.7425   7.1462   7.1462

     occupation numbers 
     1.0000   1.0000   1.0000   1.0000   1.0000   1.0000   1.0000   1.0000
     1.0000   1.0000   1.0000   1.0000   1.0000   1.0000   1.0000   1.0000
     1.0000   1.0000   1.0000   1.0000   1.0000   1.0000   1.0000   1.0000
     1.0000   1.0000   1.0000   1.0000   1.0000   1.0000   1.0000   1.0000
     1.0000   1.0000   1.0000   1.0000   1.0000   1.0000   1.0000   1.0000

          k =-0.5000 1.1579 0.4544 (  3946 PWs)   bands (ev):

   -13.1591 -13.1591 -13.1577 -13.1577 -13.1339 -13.1339 -13.1329 -13.1329
   -13.1227 -13.1227 -13.1177 -13.1177 -13.1038 -13.1038 -13.0976 -13.0976
   -13.0672 -13.0672 -13.0630 -13.0630  -4.6961  -4.6961  -4.4328  -4.4328
     0.7974   0.7974   1.1134   1.1134   4.2581   4.2581   4.8056   4.8056
     5.3875   5.3875   5.8303   5.8303   6.6678   6.6678   7.1137   7.1137

     occupation numbers 
     1.0000   1.0000   1.0000   1.0000   1.0000   1.0000   1.0000   1.0000
     1.0000   1.0000   1.0000   1.0000   1.0000   1.0000   1.0000   1.0000
     1.0000   1.0000   1.0000   1.0000   1.0000   1.0000   1.0000   1.0000
     1.0000   1.0000   1.0000   1.0000   1.0000   1.0000   1.0000   1.0000
     1.0000   1.0000   1.0000   1.0000   1.0000   1.0000   1.0000   1.0000

          k =-0.5000 1.1579 0.7573 (  3938 PWs)   bands (ev):

   -13.1623 -13.1623 -13.1609 -13.1609 -13.1336 -13.1336 -13.1325 -13.1325
   -13.1217 -13.1217 -13.1167 -13.1167 -13.1024 -13.1024 -13.0966 -13.0966
   -13.0672 -13.0672 -13.0627 -13.0627  -4.5854  -4.5854  -4.3943  -4.3943
     0.9873   0.9873   1.2713   1.2713   3.7078   3.7078   4.2261   4.2261
     4.8117   4.8117   5.2779   5.2779   6.6377   6.6377   7.0153   7.0153

     occupation numbers 
     1.0000   1.0000   1.0000   1.0000   1.0000   1.0000   1.0000   1.0000
     1.0000   1.0000   1.0000   1.0000   1.0000   1.0000   1.0000   1.0000
     1.0000   1.0000   1.0000   1.0000   1.0000   1.0000   1.0000   1.0000
     1.0000   1.0000   1.0000   1.0000   1.0000   1.0000   1.0000   1.0000
     1.0000   1.0000   1.0000   1.0000   1.0000   1.0000   1.0000   1.0000

          k =-0.5000 1.1579 1.0603 (  3918 PWs)   bands (ev):

   -13.1644 -13.1644 -13.1632 -13.1632 -13.1334 -13.1334 -13.1325 -13.1325
   -13.1211 -13.1211 -13.1161 -13.1161 -13.1014 -13.1014 -13.0959 -13.0959
   -13.0671 -13.0671 -13.0625 -13.0625  -4.4858  -4.4858  -4.3841  -4.3841
     1.1019   1.1019   1.4325   1.4325   3.5348   3.5348   3.7785   3.7785
     4.4676   4.4676   4.7412   4.7412   6.7469   6.7469   6.9382   6.9382

     occupation numbers 
     1.0000   1.0000   1.0000   1.0000   1.0000   1.0000   1.0000   1.0000
     1.0000   1.0000   1.0000   1.0000   1.0000   1.0000   1.0000   1.0000
     1.0000   1.0000   1.0000   1.0000   1.0000   1.0000   1.0000   1.0000
     1.0000   1.0000   1.0000   1.0000   1.0000   1.0000   1.0000   1.0000
     1.0000   1.0000   1.0000   1.0000   1.0000   1.0000   1.0000   1.0000

     highest occupied level (ev):     8.0239

!    total energy              =    -827.72695387 Ry
     estimated scf accuracy    <          5.3E-09 Ry

     The total energy is the sum of the following terms:
     one-electron contribution =    -257.03329993 Ry
     hartree contribution      =     179.40640030 Ry
     xc contribution           =    -309.19593201 Ry
     ewald contribution        =    -440.78053577 Ry
     DFT-D3 Dispersion         =      -0.12358646 Ry

     convergence has been achieved in   9 iterations

     Forces acting on atoms (cartesian axes, Ry/au):

     atom    1 type  2   force =     0.01753305    0.00000000    0.00204707
     atom    2 type  1   force =    -0.01778103    0.00000000   -0.00038692
     atom    3 type  2   force =    -0.01753305    0.00000000    0.00204707
     atom    4 type  1   force =     0.01778103    0.00000000   -0.00038692
     atom    5 type  2   force =     0.01753305    0.00000000   -0.00204707
     atom    6 type  1   force =    -0.01778103   -0.00000000    0.00038692
     atom    7 type  2   force =    -0.01753305    0.00000000   -0.00204707
     atom    8 type  1   force =     0.01778103    0.00000000    0.00038692
     The non-local contrib.  to forces
     atom    1 type  2   force =    -0.10813342    0.00000000    0.11316308
     atom    2 type  1   force =     0.35533378    0.00000000    0.30471831
     atom    3 type  2   force =     0.10813342    0.00000000    0.11316308
     atom    4 type  1   force =    -0.35533378    0.00000000    0.30471831
     atom    5 type  2   force =    -0.10813342    0.00000000   -0.11316308
     atom    6 type  1   force =     0.35533378    0.00000000   -0.30471831
     atom    7 type  2   force =     0.10813342    0.00000000   -0.11316308
     atom    8 type  1   force =    -0.35533378    0.00000000   -0.30471831
     The ionic contribution  to forces
     atom    1 type  2   force =     1.48285544   -0.00000000   -1.13607388
     atom    2 type  1   force =    -0.69387113   -0.00000000   -0.53829857
     atom    3 type  2   force =    -1.48285544    0.00000000   -1.13607388
     atom    4 type  1   force =     0.69387113    0.00000000   -0.53829857
     atom    5 type  2   force =     1.48285544    0.00000000    1.13607388
     atom    6 type  1   force =    -0.69387113   -0.00000000    0.53829857
     atom    7 type  2   force =    -1.48285544   -0.00000000    1.13607388
     atom    8 type  1   force =     0.69387113    0.00000000    0.53829857
     The local contribution  to forces
     atom    1 type  2   force =    -1.36795582    0.00000000    1.03641666
     atom    2 type  1   force =     0.32562688    0.00000000    0.23782749
     atom    3 type  2   force =     1.36795582    0.00000000    1.03641666
     atom    4 type  1   force =    -0.32562688    0.00000000    0.23782749
     atom    5 type  2   force =    -1.36795582    0.00000000   -1.03641666
     atom    6 type  1   force =     0.32562688    0.00000000   -0.23782749
     atom    7 type  2   force =     1.36795582    0.00000000   -1.03641666
     atom    8 type  1   force =    -0.32562688    0.00000000   -0.23782749
     The core correction contribution to forces
     atom    1 type  2   force =     0.01170767    0.00000000   -0.01283114
     atom    2 type  1   force =    -0.00417471    0.00000000   -0.00564115
     atom    3 type  2   force =    -0.01170767   -0.00000000   -0.01283114
     atom    4 type  1   force =     0.00417471    0.00000000   -0.00564115
     atom    5 type  2   force =     0.01170767   -0.00000000    0.01283114
     atom    6 type  1   force =    -0.00417471    0.00000000    0.00564115
     atom    7 type  2   force =    -0.01170767    0.00000000    0.01283114
     atom    8 type  1   force =     0.00417471    0.00000000    0.00564115
     The Hubbard contrib.    to forces
     atom    1 type  2   force =     0.00000000    0.00000000    0.00000000
     atom    2 type  1   force =     0.00000000    0.00000000    0.00000000
     atom    3 type  2   force =     0.00000000    0.00000000    0.00000000
     atom    4 type  1   force =     0.00000000    0.00000000    0.00000000
     atom    5 type  2   force =     0.00000000    0.00000000    0.00000000
     atom    6 type  1   force =     0.00000000    0.00000000    0.00000000
     atom    7 type  2   force =     0.00000000    0.00000000    0.00000000
     atom    8 type  1   force =     0.00000000    0.00000000    0.00000000
     The SCF correction term to forces
     atom    1 type  2   force =    -0.00001480    0.00000000   -0.00001096
     atom    2 type  1   force =    -0.00001037   -0.00000000   -0.00004559
     atom    3 type  2   force =     0.00001480   -0.00000000   -0.00001096
     atom    4 type  1   force =     0.00001037    0.00000000   -0.00004559
     atom    5 type  2   force =    -0.00001480    0.00000000    0.00001096
     atom    6 type  1   force =    -0.00001037   -0.00000000    0.00004559
     atom    7 type  2   force =     0.00001480   -0.00000000    0.00001096
     atom    8 type  1   force =     0.00001037    0.00000000    0.00004559

     DFT-D3 dispersion contribution to forces:
     atom    1 type  2   force =    -0.00092602   -0.00000000    0.00138332
     atom    2 type  1   force =    -0.00068548    0.00000000    0.00105259
     atom    3 type  2   force =     0.00092602    0.00000000    0.00138332
     atom    4 type  1   force =     0.00068548   -0.00000000    0.00105259
     atom    5 type  2   force =    -0.00092602    0.00000000   -0.00138332
     atom    6 type  1   force =    -0.00068548    0.00000000   -0.00105259
     atom    7 type  2   force =     0.00092602   -0.00000000   -0.00138332
     atom    8 type  1   force =     0.00068548   -0.00000000   -0.00105259

     Total force =     0.050116     Total SCF correction =     0.000101

     DFT-D3 dispersion Force =     0.004171

     Writing all to output data dir ./tmp/SnSe_pnma.save/ :
     XML data file, charge density, pseudopotentials, collected wavefunctions
 
     init_run     :      1.15s CPU      1.26s WALL (       1 calls)
     electrons    :     17.67s CPU     18.73s WALL (       1 calls)
     forces       :      0.54s CPU      0.63s WALL (       1 calls)
     force_dftd3  :      0.08s CPU      0.09s WALL (       1 calls)

     Called by init_run:
     wfcinit      :      0.67s CPU      0.69s WALL (       1 calls)
     wfcinit:atom :      0.01s CPU      0.01s WALL (      11 calls)
     wfcinit:wfcr :      0.57s CPU      0.59s WALL (      11 calls)
     potinit      :      0.09s CPU      0.10s WALL (       1 calls)
     hinit0       :      0.19s CPU      0.20s WALL (       1 calls)

     Called by electrons:
     c_bands      :     12.88s CPU     13.02s WALL (       9 calls)
     sum_band     :      3.03s CPU      3.56s WALL (       9 calls)
     v_of_rho     :      0.58s CPU      0.60s WALL (      10 calls)
     v_h          :      0.04s CPU      0.04s WALL (      10 calls)
     v_xc         :      0.59s CPU      0.61s WALL (      11 calls)
     newd         :      1.25s CPU      1.63s WALL (      10 calls)
     mix_rho      :      0.06s CPU      0.07s WALL (       9 calls)
     energy_dftd3 :      0.04s CPU      0.04s WALL (       1 calls)

     Called by c_bands:
     init_us_2    :      0.40s CPU      0.41s WALL (     220 calls)
     cegterg      :     11.32s CPU     11.41s WALL (      99 calls)

     Called by sum_band:
     sum_band:wei :      0.00s CPU      0.00s WALL (       9 calls)
     sum_band:loo :      1.71s CPU      1.72s WALL (       9 calls)
     sum_band:buf :      0.03s CPU      0.03s WALL (      99 calls)
     sum_band:ini :      0.17s CPU      0.17s WALL (      99 calls)
     sum_band:cal :      0.25s CPU      0.26s WALL (      99 calls)
     sum_band:bec :      0.01s CPU      0.01s WALL (      99 calls)
     addusdens    :      1.04s CPU      1.50s WALL (       9 calls)
                                        0.00s GPU  (       9 calls)
     addusd:skk   :      0.01s CPU      0.01s WALL (      18 calls)
                                        0.00s GPU  (      18 calls)

     Called by *egterg:
     cdiaghg      :      0.67s CPU      0.67s WALL (     419 calls)
     cegterg:over :      0.63s CPU      0.63s WALL (     320 calls)
     cegterg:upda :      0.34s CPU      0.34s WALL (     320 calls)
     cegterg:last :      0.81s CPU      0.81s WALL (     242 calls)
     h_psi        :      8.17s CPU      8.24s WALL (     430 calls)
     s_psi        :      0.87s CPU      0.87s WALL (     430 calls)
     g_psi        :      0.03s CPU      0.04s WALL (     320 calls)

     Called by h_psi:
     h_psi:calbec :      0.86s CPU      0.87s WALL (     430 calls)
     vloc_psi     :      6.31s CPU      6.38s WALL (     430 calls)
     add_vuspsi   :      0.92s CPU      0.92s WALL (     430 calls)

     General routines
     calbec       :      1.24s CPU      1.24s WALL (     573 calls)
     fft          :      0.25s CPU      0.27s WALL (     139 calls)
     ffts         :      0.01s CPU      0.01s WALL (      19 calls)
     fftw         :      5.16s CPU      5.21s WALL (   28426 calls)
     interpolate  :      0.03s CPU      0.03s WALL (      10 calls)
 
     Parallel routines
 
     PWSCF        :     19.58s CPU     21.22s WALL

 
   This run was terminated on:  15: 1:48  20May2026            

=------------------------------------------------------------------------------=
   JOB DONE.
=------------------------------------------------------------------------------=
